Title
81287
    1CHL1    C3    1   0.129   0.443  10.344  0.9108 -0.1409 -0.8276
    1CHL1    H3    2   0.088   0.543  10.317 -0.4548 -0.2052  0.8300
    1CHL1    O3    3   0.158   0.452  10.486  0.0619 -0.4227 -0.4432
    1CHL1   H3'    4   0.185   0.364  10.513  1.8331 -0.3538 -1.7866
    1CHL1    C4    5   0.021   0.343  10.294  0.2004  0.6577  0.0246
    1CHL1   H4A    6   0.065   0.244  10.317 -0.8246  0.8255  3.1897
    1CHL1   H4B    7  -0.072   0.367  10.351  1.0981 -0.0347  1.8550
    1CHL1    C5    8   0.007   0.351  10.146  0.7338 -0.0832 -0.2155
    1CHL1    C6    9  -0.114   0.370  10.096  0.1127  0.2086  0.7006
    1CHL1    H6   10  -0.199   0.380  10.164 -2.0948  0.3078 -1.8847
    1CHL1    C7   11  -0.149   0.389   9.949 -0.5997 -0.1550  0.1248
    1CHL1   H7A   12  -0.236   0.324   9.926 -1.4366  1.3957 -1.3773
    1CHL1   H7B   13  -0.178   0.492   9.919  0.5091 -0.5721 -2.6937
    1CHL1    C8   14  -0.021   0.346   9.862 -0.7138 -0.7166  0.1154
    1CHL1    H8   15  -0.026   0.235   9.867 -0.5243 -1.0009 -3.2652
    1CHL1   C14   16  -0.037   0.384   9.715  0.3911 -0.2202 -0.3879
    1CHL1   H14   17  -0.029   0.495   9.713 -1.7904  0.0069  0.0642
    1CHL1   C15   18  -0.169   0.362   9.649  0.2350 -0.0184  0.1959
    1CHL1  H15A   19  -0.196   0.254   9.655  0.1490 -0.3029 -3.1639
    1CHL1  H15B   20  -0.254   0.415   9.696  0.0450  0.2567 -0.4487
    1CHL1   C16   21  -0.135   0.385   9.499  0.0360  0.2753 -0.4623
    1CHL1  H16A   22  -0.162   0.300   9.434 -2.5304  1.2993 -0.8608
    1CHL1  H16B   23  -0.178   0.483   9.469 -1.3430 -0.6106 -1.5088
    1CHL1   C17   24   0.020   0.399   9.493  0.0292  0.6010 -0.1777
    1CHL1   H17   25   0.047   0.506   9.503  1.9226 -0.0734  5.4537
    1CHL1   C13   26   0.070   0.338   9.627 -0.8778  0.2908  0.2535
    1CHL1   C18   27   0.087   0.186   9.616  0.0977  0.5364  0.3174
    1CHL1  H18A   28   0.082   0.142   9.718 -4.5896  0.0539  0.1011
    1CHL1  H18B   29   0.002   0.142   9.560  0.8718  2.1034 -2.2875
    1CHL1  H18C   30   0.176   0.153   9.558  0.1313 -0.1630  0.7548
    1CHL1   C12   31   0.201   0.401   9.676 -0.9408 -0.3358  0.1101
    1CHL1  H12A   32   0.286   0.367   9.614 -1.8252  1.2268 -2.0894
    1CHL1  H12B   33   0.189   0.511   9.673 -3.9850 -0.5422  1.0329
    1CHL1   C11   34   0.227   0.368   9.822 -0.2999 -0.1287 -0.3909
    1CHL1  H11A   35   0.254   0.261   9.818  0.9901  0.1581  0.0520
    1CHL1  H11B   36   0.318   0.425   9.853 -1.1199  0.2922  1.3548
    1CHL1    C9   37   0.108   0.391   9.921 -0.1937 -0.2489 -0.3503
    1CHL1    H9   38   0.105   0.502   9.920  1.5374 -0.1596  1.2575
    1CHL1   C10   39   0.139   0.355  10.069  0.5145 -0.2571  0.4308
    1CHL1   C19   40   0.197   0.211  10.080 -0.1427  0.0344 -0.6964
    1CHL1  H19A   41   0.136   0.136  10.025  2.8139 -1.4405 -2.2099
    1CHL1  H19B   42   0.286   0.213  10.013 -1.2751  2.3692 -2.2579
    1CHL1  H19C   43   0.218   0.174  10.182 -0.7141  1.6429  0.0359
    1CHL1    C1   44   0.242   0.451  10.119 -0.6322 -0.4886 -0.0628
    1CHL1   H1A   45   0.338   0.420  10.073  0.3528  1.3849  0.6107
    1CHL1   H1B   46   0.218   0.558  10.099 -2.6823 -1.2572 -2.1045
    1CHL1    C2   47   0.263   0.433  10.272 -0.5161 -0.6261  0.1074
    1CHL1   H2A   48   0.331   0.512  10.311  0.9226 -2.0737  0.6594
    1CHL1   H2B   49   0.303   0.332  10.297 -1.5617 -1.4553 -1.4071
    1CHL1   C20   50   0.066   0.347   9.359  0.5863 -0.7165  0.5957
    1CHL1   H20   51   0.041   0.240   9.347  2.5209 -0.9533 -1.9886
    1CHL1   C21   52   0.224   0.365   9.352  0.1770  0.1480 -0.0262
    1CHL1  H21A   53   0.264   0.289   9.422 -0.6254  1.0477  1.4447
    1CHL1  H21B   54   0.255   0.469   9.377 -0.3375  0.0661  1.0013
    1CHL1  H21C   55   0.254   0.360   9.245  0.9638  0.8070  0.1531
    1CHL1   C22   56  -0.007   0.422   9.239 -0.1413 -0.0786 -0.1325
    1CHL1  H22A   57  -0.116   0.413   9.252 -0.3401 -0.0537 -1.5713
    1CHL1  H22B   58   0.027   0.527   9.253  1.1739 -0.4826 -0.1032
    1CHL1   C23   59   0.052   0.392   9.101  0.0470  0.0598 -0.2877
    1CHL1  H23A   60   0.161   0.407   9.085 -0.2128  3.4835  0.2307
    1CHL1  H23B   61   0.030   0.285   9.081  0.7741  0.3020 -2.8376
    1CHL1   C24   62  -0.020   0.474   8.996  0.4127 -0.7262  0.4423
    1CHL1  H24A   63  -0.128   0.470   9.023  0.4878 -1.4754  0.6547
    1CHL1  H24B   64   0.001   0.583   8.997 -0.4362 -0.5492  0.3350
    1CHL1   C25   65   0.001   0.421   8.853  0.4281 -0.2281  0.2455
    1CHL1   H25   66  -0.012   0.311   8.855  0.8857 -0.3662 -1.8644
    1CHL1   C26   67  -0.097   0.488   8.758  0.0756 -0.1004 -0.0830
    1CHL1  H26A   68  -0.198   0.462   8.797  0.8322  0.9584  2.8471
    1CHL1  H26B   69  -0.077   0.597   8.767  1.8357 -0.4518  0.7335
    1CHL1  H26C   70  -0.082   0.456   8.653  1.0892  0.6279 -0.1749
    1CHL1   C27   71   0.144   0.439   8.808  0.1285 -0.3840 -0.2249
    1CHL1  H27A   72   0.159   0.385   8.712 -1.5484 -1.3098 -0.0026
    1CHL1  H27B   73   0.178   0.544   8.803 -1.7144  0.4009  1.7319
    1CHL1  H27C   74   0.209   0.383   8.879  1.3374  2.0245  0.6906
    2CHL1    C3   75   1.801   3.615   9.906 -0.1893  0.0163 -0.3975
    2CHL1    H3   76   1.771   3.720   9.883 -1.8586 -0.0630  1.1343
    2CHL1    O3   77   1.810   3.601  10.046 -0.2021 -0.1991  0.0415
    2CHL1   H3'   78   1.806   3.692  10.077 -0.4581 -0.7831  1.8669
    2CHL1    C4   79   1.699   3.511   9.863 -0.8236 -0.9027 -0.1964
    2CHL1   H4A   80   1.717   3.421   9.926 -0.0387  1.1159  2.6835
    2CHL1   H4B   81   1.601   3.543   9.904  1.2720  2.9436  2.4452
    2CHL1    C5   82   1.695   3.496   9.705  0.7096  0.4003 -0.6466
    2CHL1    C6   83   1.577   3.515   9.640 -0.6241  0.2928  0.5489
    2CHL1    H6   84   1.492   3.549   9.701 -0.5093  0.6709  0.5031
    2CHL1    C7   85   1.557   3.484   9.493 -0.3159  0.5393 -0.2527
    2CHL1   H7A   86   1.460   3.437   9.467 -0.8871  1.6074 -0.1263
    2CHL1   H7B   87   1.547   3.584   9.444  0.7141  1.4995  1.3866
    2CHL1    C8   88   1.675   3.409   9.424  0.2955  0.5632 -0.4639
    2CHL1    H8   89   1.675   3.304   9.459 -0.0694  0.0649 -1.9050
    2CHL1   C14   90   1.669   3.420   9.275  0.4457 -0.5574  0.8168
    2CHL1   H14   91   1.674   3.526   9.242 -2.8416 -1.1097 -2.0453
    2CHL1   C15   92   1.544   3.371   9.204  0.1030 -0.5193  0.1775
    2CHL1  H15A   93   1.518   3.271   9.244 -1.3333  0.1698  1.0359
    2CHL1  H15B   94   1.455   3.438   9.208 -1.7058 -2.8546  1.1364
    2CHL1   C16   95   1.594   3.341   9.060 -0.8790  0.1986 -0.1243
    2CHL1  H16A   96   1.547   3.245   9.031 -1.8206  0.6972 -0.2812
    2CHL1  H16B   97   1.552   3.421   8.996  2.0879  0.9700 -1.2716
    2CHL1   C17   98   1.754   3.351   9.063  0.5241  0.6184  0.1205
    2CHL1   H17   99   1.791   3.448   9.022 -0.1724  0.0893 -1.8661
    2CHL1   C13  100   1.785   3.349   9.209 -0.5952  0.0102 -0.6512
    2CHL1   C18  101   1.805   3.203   9.249 -0.5693 -0.1159 -0.5809
    2CHL1  H18A  102   1.827   3.187   9.357 -0.2443  0.6018 -0.5404
    2CHL1  H18B  103   1.726   3.131   9.219  1.7453 -3.5318  0.9029
    2CHL1  H18C  104   1.897   3.163   9.201  0.2067  0.6426  0.2321
    2CHL1   C12  105   1.917   3.420   9.244 -0.5289 -0.4548 -0.7488
    2CHL1  H12A  106   2.006   3.381   9.192  1.8862  3.3621  0.0781
    2CHL1  H12B  107   1.914   3.523   9.202  1.9710  0.0386  0.1116
    2CHL1   C11  108   1.929   3.428   9.398 -0.2404 -0.1112  0.6756
    2CHL1  H11A  109   1.972   3.334   9.439 -0.3489 -1.2570 -1.6588
    2CHL1  H11B  110   2.007   3.504   9.419  1.2388 -1.2910 -0.3293
    2CHL1    C9  111   1.803   3.469   9.478  0.2327  0.4209 -0.0730
    2CHL1    H9  112   1.810   3.576   9.451 -0.5242  0.7903  1.1072
    2CHL1   C10  113   1.827   3.457   9.636 -0.8993 -0.3700  0.1165
    2CHL1   C19  114   1.876   3.314   9.680 -0.2674  0.1675 -0.7245
    2CHL1  H19A  115   1.977   3.282   9.648 -0.6555 -2.2135  0.2216
    2CHL1  H19B  116   1.884   3.313   9.791 -0.6588  0.1166 -0.6941
    2CHL1  H19C  117   1.804   3.234   9.651 -1.2289  0.7694 -0.0488
    2CHL1    C1  118   1.928   3.569   9.684  0.1170 -0.6837 -0.0430
    2CHL1   H1A  119   2.028   3.569   9.635  1.0297  0.0971  1.7281
    2CHL1   H1B  120   1.882   3.667   9.656  0.3231  0.1476  2.3136
    2CHL1    C2  121   1.940   3.590   9.841 -1.2774  0.0974 -0.8410
    2CHL1   H2A  122   2.011   3.670   9.872  0.1652 -2.1539  2.2130
    2CHL1   H2B  123   1.981   3.498   9.888 -1.3537  0.7475  0.5644
    2CHL1   C20  124   1.813   3.239   8.965  0.6109  0.2066 -0.4666
    2CHL1   H20  125   1.800   3.137   9.007  0.9453 -0.0378 -0.9396
    2CHL1   C21  126   1.963   3.256   8.947  0.1344 -0.1939  0.4311
    2CHL1  H21A  127   1.997   3.162   8.899 -0.9448 -0.2914 -0.1571
    2CHL1  H21B  128   2.029   3.256   9.037  0.5381 -1.2292  0.1452
    2CHL1  H21C  129   1.980   3.354   8.898  1.6145 -0.5061  0.2855
    2CHL1   C22  130   1.737   3.228   8.829  0.3547 -0.2370  0.0221
    2CHL1  H22A  131   1.791   3.151   8.770  1.5890  2.3893 -2.4971
    2CHL1  H22B  132   1.634   3.187   8.828  0.6450 -1.1392  2.0117
    2CHL1   C23  133   1.731   3.351   8.729  0.2888  0.5426  0.0318
    2CHL1  H23A  134   1.682   3.437   8.779  1.0455  1.1036 -0.1702
    2CHL1  H23B  135   1.838   3.378   8.716  0.8255 -1.1642  0.6458
    2CHL1   C24  136   1.668   3.311   8.599  0.4927  0.7131 -0.2816
    2CHL1  H24A  137   1.750   3.268   8.538  0.1678 -0.0013 -0.2270
    2CHL1  H24B  138   1.599   3.226   8.618  1.2314  0.0327 -0.5966
    2CHL1   C25  139   1.601   3.418   8.520 -0.4534 -0.4943  0.2477
    2CHL1   H25  140   1.547   3.485   8.590 -1.4417  0.5094 -1.4043
    2CHL1   C26  141   1.708   3.515   8.461  0.4358 -0.0182 -0.2278
    2CHL1  H26A  142   1.780   3.549   8.538 -0.8079  1.4494  0.3361
    2CHL1  H26B  143   1.772   3.454   8.395 -2.7054 -3.5643 -0.3490
    2CHL1  H26C  144   1.662   3.611   8.430 -0.4095  0.1550  1.4132
    2CHL1   C27  145   1.509   3.361   8.406  0.2710  0.8387  0.3148
    2CHL1  H27A  146   1.443   3.428   8.346 -2.1428 -0.7728  1.0325
    2CHL1  H27B  147   1.571   3.301   8.337 -0.6719 -1.5215  1.4337
    2CHL1  H27C  148   1.446   3.283   8.453  0.2517  0.7639  0.1644
    3CHL1    C3  149   3.116   5.000  10.304 -0.3208 -0.1699 -0.0687
    3CHL1    H3  150   3.036   5.074  10.282 -0.9507 -1.5473 -2.9009
    3CHL1    O3  151   3.133   4.979  10.443 -0.3516 -0.0443 -0.2048
    3CHL1   H3'  152   3.180   4.896  10.449  0.6231  0.4992 -0.0326
    3CHL1    C4  153   3.077   4.871  10.233 -0.4616  0.6036  0.0816
    3CHL1   H4A  154   3.155   4.798  10.263  0.6132  2.0324  0.9027
    3CHL1   H4B  155   2.974   4.841  10.264 -0.0753 -1.4043 -0.4310
    3CHL1    C5  156   3.093   4.884  10.084  0.2713 -0.3711  0.4406
    3CHL1    C6  157   2.983   4.865   9.998 -0.5382  0.3287 -0.4558
    3CHL1    H6  158   2.885   4.830  10.035  0.6657 -1.8436  0.8406
    3CHL1    C7  159   2.995   4.878   9.849 -0.4988 -0.0367  0.4237
    3CHL1   H7A  160   2.941   4.789   9.811 -0.0714 -0.5814  1.0709
    3CHL1   H7B  161   2.939   4.968   9.816 -0.6262 -0.9021 -1.8989
    3CHL1    C8  162   3.141   4.870   9.798 -0.0475 -0.4113  0.0622
    3CHL1    H8  163   3.177   4.768   9.823 -0.4290 -0.6151 -0.2184
    3CHL1   C14  164   3.136   4.897   9.647 -0.4309 -0.1125  0.3146
    3CHL1   H14  165   3.115   5.005   9.638  1.0181  0.0640 -1.4479
    3CHL1   C15  166   3.054   4.815   9.555  0.4778 -0.2015 -0.0736
    3CHL1  H15A  167   3.055   4.711   9.594 -0.4075  0.4170  1.7173
    3CHL1  H15B  168   2.951   4.856   9.553  1.3872  2.2744  0.1754
    3CHL1   C16  169   3.118   4.832   9.412  0.1528  0.7506  0.2257
    3CHL1  H16A  170   3.150   4.730   9.382  1.5047  1.9533 -2.8721
    3CHL1  H16B  171   3.040   4.855   9.336 -1.0169  0.2078  1.2350
    3CHL1   C17  172   3.234   4.922   9.441 -0.4442  0.0264  0.1515
    3CHL1   H17  173   3.188   5.024   9.444  0.5606  0.7706 -4.0693
    3CHL1   C13  174   3.277   4.898   9.587  0.2040 -0.1603 -0.1440
    3CHL1   C18  175   3.353   4.757   9.598  0.0960  0.2285 -0.7697
    3CHL1  H18A  176   3.448   4.753   9.541  0.5610 -1.3548  0.0526
    3CHL1  H18B  177   3.366   4.737   9.707  1.3145 -0.3283 -1.0104
    3CHL1  H18C  178   3.288   4.673   9.565  1.5098 -1.1780 -0.0889
    3CHL1   C12  179   3.361   5.017   9.661  1.0713  0.1488  0.0056
    3CHL1  H12A  180   3.465   5.030   9.625  0.4645  2.7297 -1.0070
    3CHL1  H12B  181   3.308   5.112   9.642 -1.0648 -1.0923 -0.5272
    3CHL1   C11  182   3.369   4.993   9.813 -0.0982 -0.0028  0.6921
    3CHL1  H11A  183   3.441   4.910   9.830  1.1727  1.0320  0.5177
    3CHL1  H11B  184   3.408   5.081   9.869 -0.7337  0.2407  0.7589
    3CHL1    C9  185   3.226   4.977   9.875 -0.2585  0.2040  0.8785
    3CHL1    H9  186   3.174   5.073   9.854  1.0084  0.7273  0.0120
    3CHL1   C10  187   3.228   4.936  10.024  0.0808  0.0423 -0.2549
    3CHL1   C19  188   3.335   4.821  10.043  0.3083 -0.2246 -0.2164
    3CHL1  H19A  189   3.321   4.731   9.978  0.9637  0.1718 -0.9294
    3CHL1  H19B  190   3.438   4.864  10.038  0.9212 -1.2491  2.2396
    3CHL1  H19C  191   3.331   4.776  10.144 -0.1174  0.6332  0.1569
    3CHL1    C1  192   3.255   5.060  10.102 -0.3453 -0.0100 -0.0986
    3CHL1   H1A  193   3.360   5.078  10.069  0.4287  0.4577  2.3874
    3CHL1   H1B  194   3.187   5.139  10.064  0.4543  1.2069  0.9300
    3CHL1    C2  195   3.253   5.052  10.254  0.0409  0.0071 -0.3013
    3CHL1   H2A  196   3.282   5.153  10.290  2.1042 -0.9025  0.7349
    3CHL1   H2B  197   3.334   4.988  10.293 -2.1705 -2.7946  0.0269
    3CHL1   C20  198   3.339   4.935   9.329  1.0003 -0.2536  0.1076
    3CHL1   H20  199   3.424   4.990   9.374 -0.1112  1.9429 -0.3264
    3CHL1   C21  200   3.279   5.030   9.222  1.0062 -0.4024 -0.3300
    3CHL1  H21A  201   3.335   5.034   9.126  0.1034  1.8337 -0.8125
    3CHL1  H21B  202   3.259   5.134   9.255  0.2247 -0.8018  0.5000
    3CHL1  H21C  203   3.182   4.982   9.198  0.5111  0.0603  0.6752
    3CHL1   C22  204   3.373   4.807   9.257  0.2009  0.0807  0.5680
    3CHL1  H22A  205   3.380   4.729   9.335  0.8705  0.4219  0.8600
    3CHL1  H22B  206   3.291   4.783   9.186  2.3470 -0.6716 -1.7990
    3CHL1   C23  207   3.501   4.811   9.174  0.2207 -0.1131 -0.7582
    3CHL1  H23A  208   3.483   4.887   9.096 -1.8953 -0.1637 -0.3602
    3CHL1  H23B  209   3.593   4.834   9.232  0.3112 -0.6490 -0.6795
    3CHL1   C24  210   3.528   4.670   9.122  0.8104  0.4553  1.5424
    3CHL1  H24A  211   3.547   4.602   9.208  0.0764  0.3355  1.6123
    3CHL1  H24B  212   3.449   4.631   9.056  0.1530 -0.5795  2.8837
    3CHL1   C25  213   3.654   4.668   9.036 -0.2614 -0.9017 -0.3008
    3CHL1   H25  214   3.739   4.723   9.082  0.5338 -1.1352 -1.4466
    3CHL1   C26  215   3.696   4.522   9.010  0.5257 -0.1624  0.3146
    3CHL1  H26A  216   3.606   4.476   8.962 -1.2788  2.0002  1.4385
    3CHL1  H26B  217   3.779   4.513   8.937  1.4322  1.0873  1.1520
    3CHL1  H26C  218   3.718   4.467   9.103  0.9945  1.2743  1.0820
    3CHL1   C27  219   3.625   4.731   8.897 -0.1574 -1.1481 -0.4757
    3CHL1  H27A  220   3.621   4.840   8.922  0.1299 -1.8389  3.1945
    3CHL1  H27B  221   3.703   4.707   8.822  1.5225 -1.0963  1.1699
    3CHL1  H27C  222   3.531   4.681   8.868  0.5346 -3.3657  0.8718
    4CHL1    C3  223   0.629   6.532  10.493 -1.2302  0.1182  1.1493
    4CHL1    H3  224   0.659   6.634  10.460  1.2788 -1.0436 -0.4069
    4CHL1    O3  225   0.638   6.533  10.636 -0.6176  0.1171  0.4439
    4CHL1   H3'  226   0.573   6.600  10.659 -1.0028 -0.6210  1.5823
    4CHL1    C4  227   0.485   6.497  10.455 -0.1409 -0.2898  0.1032
    4CHL1   H4A  228   0.457   6.398  10.495 -1.7559  0.5041  1.0393
    4CHL1   H4B  229   0.425   6.575  10.507  1.8810  0.5937  1.2480
    4CHL1    C5  230   0.472   6.507  10.306 -0.4767 -0.4005  0.1353
    4CHL1    C6  231   0.371   6.577  10.247 -0.7767 -0.2145  0.1024
    4CHL1    H6  232   0.314   6.648  10.308  0.5045  0.8763  0.0668
    4CHL1    C7  233   0.364   6.586  10.094  0.1894  0.0666 -0.0026
    4CHL1   H7A  234   0.258   6.598  10.060  0.4011  0.3486 -0.5793
    4CHL1   H7B  235   0.404   6.683  10.056 -1.5928  1.3162  1.1037
    4CHL1    C8  236   0.431   6.469  10.019  1.0002 -0.6345  0.1052
    4CHL1    H8  237   0.365   6.380  10.028 -1.6737  1.0441 -1.4114
    4CHL1   C14  238   0.454   6.513   9.874 -0.2776  0.4359  0.5308
    4CHL1   H14  239   0.529   6.594   9.873 -0.2581  0.4266 -0.4518
    4CHL1   C15  240   0.336   6.580   9.799  0.1257 -0.1572  0.7357
    4CHL1  H15A  241   0.243   6.523   9.820  0.5742 -0.3838  2.2257
    4CHL1  H15B  242   0.327   6.687   9.826  0.0698  0.2598 -0.8041
    4CHL1   C16  243   0.376   6.558   9.648  0.4128  0.4023  0.7367
    4CHL1  H16A  244   0.307   6.496   9.587 -0.1309  0.8598  0.8745
    4CHL1  H16B  245   0.383   6.659   9.603  1.0574  0.1722  0.3130
    4CHL1   C17  246   0.508   6.475   9.643 -0.2767  0.2908 -0.5001
    4CHL1   H17  247   0.597   6.543   9.642  0.6229 -0.8132  0.7821
    4CHL1   C13  248   0.515   6.400   9.780 -0.2339  0.0605  0.3317
    4CHL1   C18  249   0.424   6.281   9.771 -0.0529 -0.1060 -1.0261
    4CHL1  H18A  250   0.414   6.218   9.862 -2.5294 -1.4766 -2.1588
    4CHL1  H18B  251   0.328   6.319   9.731 -0.2442  0.5758  0.0406
    4CHL1  H18C  252   0.474   6.209   9.702  0.0846 -3.1989  2.0193
    4CHL1   C12  253   0.651   6.361   9.838  0.3253  0.0667 -0.2528
    4CHL1  H12A  254   0.695   6.275   9.785 -1.7868 -0.6811 -0.9095
    4CHL1  H12B  255   0.716   6.448   9.817 -0.6008  0.7559 -0.3390
    4CHL1   C11  256   0.645   6.337   9.986  0.6959  0.3921  0.0648
    4CHL1  H11A  257   0.578   6.249   9.996 -0.7598  1.5585  0.7413
    4CHL1  H11B  258   0.748   6.305  10.014  1.5252 -1.6731 -4.3301
    4CHL1    C9  259   0.572   6.441  10.077  0.1049 -0.6256  0.6066
    4CHL1    H9  260   0.628   6.536  10.065  0.9622 -1.3082 -1.2020
    4CHL1   C10  261   0.575   6.419  10.226 -0.6428 -0.1898  0.2500
    4CHL1   C19  262   0.526   6.269  10.250 -0.0624  0.4668  0.2351
    4CHL1  H19A  263   0.431   6.248  10.198  1.6208  0.8187 -3.2402
    4CHL1  H19B  264   0.606   6.203  10.210  0.8194 -0.1115  2.7423
    4CHL1  H19C  265   0.527   6.237  10.357  0.1519 -3.5118 -0.7878
    4CHL1    C1  266   0.718   6.442  10.275 -0.3330 -0.4279 -0.0409
    4CHL1   H1A  267   0.782   6.363  10.230  0.6996  2.1164 -3.3999
    4CHL1   H1B  268   0.768   6.535  10.242 -0.9557  0.7015  2.0380
    4CHL1    C2  269   0.737   6.443  10.428 -0.6330 -0.0659 -0.2091
    4CHL1   H2A  270   0.835   6.483  10.461 -1.7100  2.6071 -0.0392
    4CHL1   H2B  271   0.732   6.339  10.468 -0.8229  0.2243  0.5165
    4CHL1   C20  272   0.529   6.398   9.508 -0.2273  0.0268 -0.2644
    4CHL1   H20  273   0.449   6.321   9.501  1.5549 -2.1786  1.8484
    4CHL1   C21  274   0.657   6.317   9.521 -0.1354 -0.0275 -0.0852
    4CHL1  H21A  275   0.748   6.372   9.552  1.3436 -2.7596  0.8117
    4CHL1  H21B  276   0.684   6.256   9.432  2.3448  1.1982 -0.2449
    4CHL1  H21C  277   0.636   6.241   9.600  1.8346  0.0664  0.5700
    4CHL1   C22  278   0.537   6.488   9.381 -0.3246  0.3112  0.0682
    4CHL1  H22A  279   0.467   6.574   9.390  0.2849  1.0312 -1.7415
    4CHL1  H22B  280   0.637   6.537   9.386 -0.9260  1.6586 -0.6190
    4CHL1   C23  281   0.512   6.417   9.254  0.5569  0.2261 -0.3974
    4CHL1  H23A  282   0.582   6.334   9.231  0.1859 -0.4936  0.9503
    4CHL1  H23B  283   0.408   6.377   9.262  0.5185  0.3584 -0.2452
    4CHL1   C24  284   0.501   6.508   9.132  0.4544 -0.1861  0.0609
    4CHL1  H24A  285   0.413   6.574   9.149 -0.4622 -1.1008 -0.9400
    4CHL1  H24B  286   0.593   6.569   9.127  0.4721 -0.1061  1.1574
    4CHL1   C25  287   0.479   6.431   8.999  0.5702 -0.0861  0.2904
    4CHL1   H25  288   0.386   6.371   9.012  0.3229 -0.3156 -2.1337
    4CHL1   C26  289   0.431   6.521   8.884 -0.2204 -0.6124 -0.2308
    4CHL1  H26A  290   0.346   6.582   8.924 -0.0159 -1.1421  1.0734
    4CHL1  H26B  291   0.512   6.589   8.850  0.4053 -0.5946  1.1914
    4CHL1  H26C  292   0.403   6.467   8.792  2.9086  0.2212 -1.7894
    4CHL1   C27  293   0.593   6.349   8.945 -0.4481  1.1474  0.1630
    4CHL1  H27A  294   0.654   6.410   8.874 -0.8179  1.9178  0.4886
    4CHL1  H27B  295   0.662   6.313   9.024  0.7198  1.3271 -0.7326
    4CHL1  H27C  296   0.554   6.262   8.888  2.2076 -0.1903  0.2087
    5CHL1    C3  297   2.431   4.795  10.288  0.8105 -0.1732  0.2914
    5CHL1    H3  298   2.349   4.868  10.271 -1.6684 -2.9081 -0.2091
    5CHL1    O3  299   2.451   4.775  10.425  0.0015 -0.2808 -0.5220
    5CHL1   H3'  300   2.407   4.691  10.441 -0.1948 -0.0451  0.1750
    5CHL1    C4  301   2.407   4.655  10.221  0.1903 -0.8183  0.3908
    5CHL1   H4A  302   2.492   4.594  10.257  0.4689 -1.5981 -1.4843
    5CHL1   H4B  303   2.312   4.608  10.255 -0.6034 -0.2269 -0.9276
    5CHL1    C5  304   2.398   4.663  10.067  0.7552 -0.4675 -1.1980
    5CHL1    C6  305   2.293   4.608  10.007 -0.8370 -0.6760 -0.7709
    5CHL1    H6  306   2.211   4.575  10.073 -0.9809  1.8329  0.4421
    5CHL1    C7  307   2.272   4.609   9.861 -0.2367  0.0758  0.0380
    5CHL1   H7A  308   2.229   4.516   9.817 -2.8420  0.9775  0.5140
    5CHL1   H7B  309   2.208   4.695   9.831  2.0757  2.2965  1.1558
    5CHL1    C8  310   2.403   4.628   9.775  0.2489  0.2357  0.6610
    5CHL1    H8  311   2.469   4.540   9.786  0.1615  0.1942  0.8695
    5CHL1   C14  312   2.367   4.662   9.631 -0.3149 -0.5245 -0.9151
    5CHL1   H14  313   2.299   4.748   9.650 -1.5532 -1.2695 -1.8239
    5CHL1   C15  314   2.295   4.566   9.541  0.0814  0.7229  0.2765
    5CHL1  H15A  315   2.323   4.460   9.559  2.5164  1.0717 -1.0307
    5CHL1  H15B  316   2.185   4.564   9.555 -0.0740 -1.7371 -0.7365
    5CHL1   C16  317   2.330   4.609   9.400 -0.0499  0.4442 -0.1371
    5CHL1  H16A  318   2.385   4.522   9.357 -0.0931 -1.7201  3.6916
    5CHL1  H16B  319   2.242   4.629   9.336 -1.1694 -1.1654  0.8205
    5CHL1   C17  320   2.419   4.739   9.409 -0.3318 -0.0597 -0.0309
    5CHL1   H17  321   2.343   4.820   9.418 -1.1101 -0.8917  1.3170
    5CHL1   C13  322   2.485   4.717   9.547  0.1301  0.4629  0.7362
    5CHL1   C18  323   2.580   4.600   9.525 -0.1556  0.7975 -0.1098
    5CHL1  H18A  324   2.607   4.560   9.624  1.1371 -0.5540 -0.9665
    5CHL1  H18B  325   2.536   4.512   9.472 -1.2640  0.7180  0.9009
    5CHL1  H18C  326   2.675   4.627   9.473 -0.8123  0.5455 -1.4980
    5CHL1   C12  327   2.553   4.838   9.605 -0.2637 -0.2505 -0.2478
    5CHL1  H12A  328   2.640   4.871   9.545 -0.8781  1.5760 -0.2078
    5CHL1  H12B  329   2.480   4.920   9.619 -0.7149 -0.9884  2.1322
    5CHL1   C11  330   2.590   4.808   9.758 -0.6579  0.3837  0.4034
    5CHL1  H11A  331   2.664   4.725   9.758 -1.5113 -0.4059  0.6880
    5CHL1  H11B  332   2.639   4.893   9.810 -0.7304  0.2262  0.7365
    5CHL1    C9  333   2.473   4.752   9.839 -0.1343  0.5181  0.2892
    5CHL1    H9  334   2.390   4.825   9.848 -1.1155 -0.2821 -1.6736
    5CHL1   C10  335   2.515   4.726   9.991  0.0582  0.5416 -0.5674
    5CHL1   C19  336   2.640   4.638  10.002 -0.2156  0.5541  0.3061
    5CHL1  H19A  337   2.726   4.690   9.956 -0.9676  3.0847  1.5961
    5CHL1  H19B  338   2.660   4.621  10.110 -2.3729 -0.3555  0.6216
    5CHL1  H19C  339   2.617   4.539   9.958 -0.2051  0.7026 -0.0301
    5CHL1    C1  340   2.548   4.860  10.070  0.0553  0.0132 -0.8967
    5CHL1   H1A  341   2.640   4.908  10.030  0.1086  0.8225  0.1688
    5CHL1   H1B  342   2.474   4.941  10.052  1.2069  1.7616  1.7006
    5CHL1    C2  343   2.561   4.858  10.224  0.6443  0.6295  0.4703
    5CHL1   H2A  344   2.575   4.963  10.257 -0.6848  0.8156  0.5052
    5CHL1   H2B  345   2.655   4.807  10.255  3.0978  4.6904  0.3307
    5CHL1   C20  346   2.499   4.769   9.286 -0.2714 -0.2427 -0.5652
    5CHL1   H20  347   2.601   4.726   9.285 -0.1250  0.0599  0.2169
    5CHL1   C21  348   2.514   4.922   9.287  0.0627  0.5774 -0.9214
    5CHL1  H21A  349   2.417   4.970   9.266 -1.9226 -2.9679 -0.5715
    5CHL1  H21B  350   2.585   4.953   9.207  1.7554 -1.0746 -0.1597
    5CHL1  H21C  351   2.546   4.953   9.389 -2.8812  0.3096  0.1771
    5CHL1   C22  352   2.429   4.710   9.158 -0.3381 -0.5334 -0.3282
    5CHL1  H22A  353   2.433   4.599   9.157  2.2981 -0.5000 -2.4234
    5CHL1  H22B  354   2.323   4.745   9.164 -0.1229  0.0453  0.2360
    5CHL1   C23  355   2.483   4.772   9.027 -0.2534 -0.2814  1.2883
    5CHL1  H23A  356   2.435   4.871   9.012 -0.0103 -0.5403 -1.7988
    5CHL1  H23B  357   2.593   4.784   9.032 -0.2274 -0.0160  0.3102
    5CHL1   C24  358   2.462   4.670   8.909  0.4991  0.1911 -0.1303
    5CHL1  H24A  359   2.512   4.574   8.937 -0.7276 -1.6266 -3.5213
    5CHL1  H24B  360   2.351   4.664   8.908  0.5207 -0.9951 -2.4151
    5CHL1   C25  361   2.518   4.706   8.769  0.1033 -0.4160 -0.3495
    5CHL1   H25  362   2.621   4.742   8.785  0.0868 -1.5445  2.9658
    5CHL1   C26  363   2.535   4.580   8.680  0.6317  0.5255  0.1296
    5CHL1  H26A  364   2.437   4.530   8.662  0.6623  1.1826 -2.1270
    5CHL1  H26B  365   2.583   4.606   8.583 -0.0284 -0.0813 -0.3674
    5CHL1  H26C  366   2.594   4.504   8.734 -0.6850 -0.5795  0.0699
    5CHL1   C27  367   2.435   4.816   8.699  0.5949 -0.5213 -0.1089
    5CHL1  H27A  368   2.455   4.913   8.749 -2.3556 -0.2846  0.8041
    5CHL1  H27B  369   2.465   4.824   8.592 -3.3961  0.8117 -1.3311
    5CHL1  H27C  370   2.325   4.798   8.701  0.2742  1.2755  1.1405
    6CHL1    C3  371   5.714   1.341  10.343 -0.2910 -0.6480 -0.6123
    6CHL1    H3  372   5.804   1.277  10.326  1.7381  1.7755  0.3182
    6CHL1    O3  373   5.692   1.360  10.485 -0.0998 -0.6540 -0.3259
    6CHL1   H3'  374   5.608   1.405  10.490  0.5234  0.4054  2.2641
    6CHL1    C4  375   5.722   1.471  10.278 -0.2548 -0.3061 -0.4756
    6CHL1   H4A  376   5.643   1.541  10.313  2.1490  2.2060  0.3024
    6CHL1   H4B  377   5.821   1.508  10.312 -0.9372 -0.8672  2.3830
    6CHL1    C5  378   5.710   1.465  10.129 -0.5858 -0.4462  0.3771
    6CHL1    C6  379   5.807   1.516  10.042 -0.0602  0.1755 -0.6827
    6CHL1    H6  380   5.885   1.577  10.090 -0.5966  0.3356 -0.0010
    6CHL1    C7  381   5.801   1.514   9.890 -0.4782 -0.0014 -0.1424
    6CHL1   H7A  382   5.846   1.612   9.860  0.8768 -0.1245  1.3142
    6CHL1   H7B  383   5.878   1.445   9.851 -2.1395 -0.5284 -2.6902
    6CHL1    C8  384   5.657   1.475   9.839 -0.4184  0.6512  0.2793
    6CHL1    H8  385   5.590   1.561   9.862 -1.1519  0.7468 -2.0029
    6CHL1   C14  386   5.669   1.451   9.692  0.3040 -0.2736 -0.5133
    6CHL1   H14  387   5.757   1.384   9.681 -0.9232 -1.7757 -1.7326
    6CHL1   C15  388   5.706   1.572   9.597  0.2136  0.1223  0.3347
    6CHL1  H15A  389   5.654   1.669   9.611  0.1351  0.1472 -0.1087
    6CHL1  H15B  390   5.816   1.585   9.603  0.4521 -1.8933  0.9706
    6CHL1   C16  391   5.677   1.512   9.456  0.0511 -0.2028  0.0280
    6CHL1  H16A  392   5.604   1.576   9.401 -1.7597 -1.6240  0.6616
    6CHL1  H16B  393   5.774   1.492   9.407  1.8590 -0.5842  3.4615
    6CHL1   C17  394   5.601   1.374   9.482  0.2894 -0.4170 -0.2517
    6CHL1   H17  395   5.675   1.291   9.484 -0.0967 -0.7974 -1.0561
    6CHL1   C13  396   5.550   1.387   9.622  0.3223  0.0497 -0.1545
    6CHL1   C18  397   5.424   1.474   9.629  0.4214  0.2090 -0.0180
    6CHL1  H18A  398   5.338   1.430   9.573  0.4326 -3.1330  2.3548
    6CHL1  H18B  399   5.394   1.497   9.733  0.3886  0.7275 -0.1382
    6CHL1  H18C  400   5.438   1.566   9.568  1.5712  0.8912  1.2332
    6CHL1   C12  401   5.536   1.248   9.689  0.0638  0.0437  0.0423
    6CHL1  H12A  402   5.453   1.188   9.645  0.3835  0.1594 -0.7394
    6CHL1  H12B  403   5.629   1.189   9.674  0.1257  0.6026 -2.1030
    6CHL1   C11  404   5.510   1.264   9.838  0.0855  0.2089  0.5563
    6CHL1  H11A  405   5.413   1.316   9.854 -0.5952 -1.0095  0.4697
    6CHL1  H11B  406   5.503   1.165   9.887 -2.3074 -0.2557 -0.5888
    6CHL1    C9  407   5.619   1.348   9.913 -0.4134  0.1605 -0.0086
    6CHL1    H9  408   5.706   1.279   9.910  0.5744  1.3537 -3.3357
    6CHL1   C10  409   5.594   1.381  10.066 -0.5490 -0.4649 -0.1508
    6CHL1   C19  410   5.462   1.446  10.089  0.0700  0.9428  1.0724
    6CHL1  H19A  411   5.375   1.398  10.038  1.5918 -2.3010  1.2786
    6CHL1  H19B  412   5.427   1.464  10.192  0.9281  1.2437  1.3210
    6CHL1  H19C  413   5.462   1.552  10.056  0.1088  0.8627  0.8094
    6CHL1    C1  414   5.591   1.250  10.147 -0.1770  0.2683  0.1733
    6CHL1   H1A  415   5.500   1.197  10.112 -2.1995  3.9813 -0.6932
    6CHL1   H1B  416   5.679   1.186  10.124 -0.1059  0.3442  0.2319
    6CHL1    C2  417   5.590   1.267  10.301 -0.1905 -0.4015  0.0020
    6CHL1   H2A  418   5.602   1.168  10.349 -0.0338 -0.4198 -0.0708
    6CHL1   H2B  419   5.490   1.299  10.335 -0.4235 -0.5265 -0.5643
    6CHL1   C20  420   5.497   1.344   9.373  0.3905  0.6047  0.2528
    6CHL1   H20  421   5.413   1.416   9.380  1.1427  1.6827 -1.2456
    6CHL1   C21  422   5.439   1.200   9.394 -0.5698 -0.6823 -0.3667
    6CHL1  H21A  423   5.396   1.158   9.301  0.8296 -1.2612 -0.7719
    6CHL1  H21B  424   5.351   1.217   9.461 -0.6945 -2.0221 -0.1603
    6CHL1  H21C  425   5.513   1.130   9.437 -0.1185  1.2883  2.3813
    6CHL1   C22  426   5.543   1.347   9.226 -0.7188 -0.0164 -0.5762
    6CHL1  H22A  427   5.611   1.435   9.224  0.6589 -0.9617  1.3004
    6CHL1  H22B  428   5.612   1.261   9.216 -1.3303 -1.0677  3.0496
    6CHL1   C23  429   5.445   1.387   9.116 -0.7392  0.6963  0.7398
    6CHL1  H23A  430   5.361   1.314   9.120  2.3171 -3.1303  0.5179
    6CHL1  H23B  431   5.410   1.492   9.120 -2.2513  0.2391  0.3183
    6CHL1   C24  432   5.511   1.355   8.978  0.7251  0.0385  0.0170
    6CHL1  H24A  433   5.595   1.424   8.959  0.9064  0.2517  1.5125
    6CHL1  H24B  434   5.553   1.252   8.986 -0.8120 -0.5548  0.8648
    6CHL1   C25  435   5.406   1.345   8.861 -0.3425  0.2156 -0.3776
    6CHL1   H25  436   5.327   1.270   8.884  0.9402 -1.3766 -0.9590
    6CHL1   C26  437   5.314   1.476   8.844 -0.1456  0.8196  0.0369
    6CHL1  H26A  438   5.248   1.469   8.756  0.1003 -0.8423 -0.0532
    6CHL1  H26B  439   5.258   1.509   8.934  1.7658  0.6951  1.3342
    6CHL1  H26C  440   5.387   1.557   8.826  0.5530  0.0577 -0.6245
    6CHL1   C27  441   5.477   1.305   8.733 -0.8998  0.5162  0.0547
    6CHL1  H27A  442   5.416   1.302   8.641  1.8198 -0.0321 -1.8745
    6CHL1  H27B  443   5.559   1.375   8.706 -1.7090  0.6564 -2.1708
    6CHL1  H27C  444   5.512   1.199   8.738 -2.0893  0.1496  2.9755
    7CHL1    C3  445   4.402   4.842  10.561  0.4663  0.2978 -0.2144
    7CHL1    H3  446   4.468   4.753  10.559  2.1900  1.4935  0.9926
    7CHL1    O3  447   4.398   4.903  10.687  0.3899  0.2094 -0.8546
    7CHL1   H3'  448   4.346   4.983  10.687  1.5087  1.0606  2.0128
    7CHL1    C4  449   4.463   4.946  10.468 -0.1230 -0.4768 -0.5225
    7CHL1   H4A  450   4.414   5.044  10.488  0.3411 -0.2123 -0.6670
    7CHL1   H4B  451   4.563   4.972  10.508 -1.7338  1.7555  2.5077
    7CHL1    C5  452   4.464   4.899  10.324  0.8968 -0.2938 -0.6796
    7CHL1    C6  453   4.571   4.898  10.242 -0.6861 -0.0548 -0.2180
    7CHL1    H6  454   4.664   4.938  10.283 -0.5659 -3.4445  3.5080
    7CHL1    C7  455   4.579   4.861  10.099 -0.1181 -0.0612 -0.0733
    7CHL1   H7A  456   4.643   4.926  10.036  1.5647 -3.6451 -2.4121
    7CHL1   H7B  457   4.621   4.761  10.073  0.2962  0.6414 -2.2439
    7CHL1    C8  458   4.441   4.860  10.037  0.0697  0.1483 -0.0160
    7CHL1    H8  459   4.403   4.964  10.022 -1.1380 -0.3553 -0.4963
    7CHL1   C14  460   4.446   4.791   9.905  0.0213  0.6457  0.4244
    7CHL1   H14  461   4.487   4.689   9.916 -0.1895  0.3234 -1.4631
    7CHL1   C15  462   4.536   4.853   9.800 -0.1347 -0.4626  0.5217
    7CHL1  H15A  463   4.511   4.961   9.792 -0.7979 -0.6352  0.1629
    7CHL1  H15B  464   4.644   4.864   9.820 -0.3303  3.1786  0.2565
    7CHL1   C16  465   4.499   4.786   9.664 -0.2618 -0.2966  0.5728
    7CHL1  H16A  466   4.461   4.872   9.604 -0.3506  1.7314  3.3617
    7CHL1  H16B  467   4.595   4.743   9.628 -0.3966  1.8670 -2.8867
    7CHL1   C17  468   4.376   4.698   9.694  0.3381  0.5711  0.1464
    7CHL1   H17  469   4.424   4.604   9.729  0.6628  0.8555  0.4742
    7CHL1   C13  470   4.319   4.762   9.824  0.1119  0.0731  1.2028
    7CHL1   C18  471   4.239   4.887   9.779  0.8505  0.3490 -0.4197
    7CHL1  H18A  472   4.133   4.856   9.775  0.5955  0.7175  2.1581
    7CHL1  H18B  473   4.239   4.959   9.863 -0.6774  0.0358 -0.1286
    7CHL1  H18C  474   4.270   4.934   9.683 -0.5917  1.3349 -0.4326
    7CHL1   C12  475   4.222   4.683   9.915 -0.5662 -0.2037  0.2430
    7CHL1  H12A  476   4.124   4.667   9.866 -0.5054  1.1884 -0.3764
    7CHL1  H12B  477   4.274   4.584   9.919 -0.0805 -0.0261 -1.1867
    7CHL1   C11  478   4.209   4.757  10.054 -0.2983  0.2285  0.2839
    7CHL1  H11A  479   4.154   4.848  10.024 -1.1030 -0.5274 -0.6009
    7CHL1  H11B  480   4.146   4.695  10.122  0.8244  0.5166  1.6283
    7CHL1    C9  481   4.343   4.790  10.129 -0.3132 -0.2714  0.2318
    7CHL1    H9  482   4.382   4.690  10.155 -2.3748 -0.5339  2.6997
    7CHL1   C10  483   4.332   4.854  10.271  0.4974  0.8278 -0.1995
    7CHL1   C19  484   4.241   4.977  10.264 -0.1017 -0.1698 -0.1110
    7CHL1  H19A  485   4.141   4.941  10.234  0.2698  0.5504 -2.3953
    7CHL1  H19B  486   4.230   5.040  10.355  2.3302  3.4930 -2.0840
    7CHL1  H19C  487   4.278   5.046  10.186  0.3321  0.4003  0.5858
    7CHL1    C1  488   4.264   4.748  10.371 -0.0798 -0.4785  0.2276
    7CHL1   H1A  489   4.157   4.744  10.339 -0.4151 -0.6977  1.3385
    7CHL1   H1B  490   4.318   4.651  10.372  0.9408  0.0764  0.8776
    7CHL1    C2  491   4.256   4.808  10.518  0.1331 -0.7545 -0.2133
    7CHL1   H2A  492   4.214   4.720  10.570  1.9687 -1.9127 -0.5796
    7CHL1   H2B  493   4.184   4.891  10.531 -0.9493 -1.0028 -3.6735
    7CHL1   C20  494   4.285   4.664   9.583  0.1391  0.2644 -0.2725
    7CHL1   H20  495   4.208   4.742   9.567  0.1171 -0.0304 -1.7932
    7CHL1   C21  496   4.208   4.535   9.612  0.0100 -0.7356 -0.1848
    7CHL1  H21A  497   4.167   4.492   9.518 -2.4532  1.1482 -0.0867
    7CHL1  H21B  498   4.121   4.552   9.679 -0.4678  2.1575 -1.3745
    7CHL1  H21C  499   4.279   4.458   9.651 -0.2464 -1.4664 -1.1107
    7CHL1   C22  500   4.363   4.646   9.444  0.4566  0.1167  0.2005
    7CHL1  H22A  501   4.466   4.616   9.472 -0.3058 -1.3219  1.6063
    7CHL1  H22B  502   4.314   4.562   9.389 -0.6155 -0.8783  2.5532
    7CHL1   C23  503   4.373   4.777   9.358 -0.2697  0.0288  0.3939
    7CHL1  H23A  504   4.270   4.792   9.319 -0.8278  1.6173  2.3117
    7CHL1  H23B  505   4.397   4.871   9.413  1.4282  1.6987 -2.9149
    7CHL1   C24  506   4.484   4.761   9.257  0.1308  0.3293  0.3779
    7CHL1  H24A  507   4.580   4.780   9.310  0.2393  1.3106 -0.1451
    7CHL1  H24B  508   4.485   4.661   9.210 -0.6091  1.1507 -1.4925
    7CHL1   C25  509   4.470   4.866   9.146  0.3382  0.0619  0.0843
    7CHL1   H25  510   4.475   4.968   9.191  1.5074 -0.2119  0.6089
    7CHL1   C26  511   4.598   4.875   9.063 -0.2788 -0.4991 -0.1141
    7CHL1  H26A  512   4.615   4.783   9.003 -2.4056 -1.4504  0.6240
    7CHL1  H26B  513   4.613   4.959   8.992 -0.0940 -0.5144 -0.0933
    7CHL1  H26C  514   4.670   4.895   9.145  1.0691 -4.1879 -0.2082
    7CHL1   C27  515   4.348   4.851   9.062 -0.3196 -0.8580  0.5517
    7CHL1  H27A  516   4.343   4.748   9.021 -0.0705 -0.0858 -1.5342
    7CHL1  H27B  517   4.257   4.880   9.118  0.5576  3.8454  0.0044
    7CHL1  H27C  518   4.347   4.919   8.974  1.0310 -2.3391 -0.6788
    8CHL1    C3  519   2.803   6.601  10.446  0.4275  0.0546 -0.3556
    8CHL1    H3  520   2.796   6.492  10.464  0.3209  0.2649  1.0159
    8CHL1    O3  521   2.878   6.653  10.557 -0.3664 -0.5340 -0.8641
    8CHL1   H3'  522   2.894   6.741  10.523 -1.4731 -0.6900 -1.9184
    8CHL1    C4  523   2.882   6.624  10.318 -0.1494  0.0393  0.6333
    8CHL1   H4A  524   2.911   6.731  10.314 -1.9962  0.5869  1.0691
    8CHL1   H4B  525   2.973   6.562  10.334 -0.0736 -0.4421 -1.3698
    8CHL1    C5  526   2.799   6.584  10.201 -0.5368 -0.1662  0.8319
    8CHL1    C6  527   2.845   6.498  10.117 -0.0012  0.7772 -0.4021
    8CHL1    H6  528   2.941   6.452  10.145 -1.1978 -1.8711 -0.2852
    8CHL1    C7  529   2.778   6.453   9.990 -0.5337 -0.4748 -0.0681
    8CHL1   H7A  530   2.850   6.459   9.907 -0.1334  1.4137  0.3715
    8CHL1   H7B  531   2.751   6.346   9.999 -2.1925  0.0131  1.5131
    8CHL1    C8  532   2.645   6.527   9.963 -0.5407 -0.0278  0.6558
    8CHL1    H8  533   2.669   6.621   9.909  0.7670 -0.6930  0.0222
    8CHL1   C14  534   2.554   6.454   9.866 -0.1507  0.6779  0.7119
    8CHL1   H14  535   2.515   6.373   9.931 -0.2412  0.7155  0.7043
    8CHL1   C15  536   2.601   6.394   9.736 -0.3228 -0.2454  0.0375
    8CHL1  H15A  537   2.664   6.465   9.678  2.7648 -0.6519  2.6052
    8CHL1  H15B  538   2.651   6.296   9.747  0.7715  0.5361  2.7414
    8CHL1   C16  539   2.463   6.359   9.653 -1.1700 -0.2054 -0.6348
    8CHL1  H16A  540   2.465   6.423   9.562 -1.5587 -1.6705 -1.7008
    8CHL1  H16B  541   2.448   6.252   9.629 -2.2753  0.2006 -1.8971
    8CHL1   C17  542   2.352   6.416   9.747  0.7186 -0.0692 -0.0649
    8CHL1   H17  543   2.334   6.334   9.819  0.5741  1.2180  1.4157
    8CHL1   C13  544   2.418   6.522   9.835  0.2632 -0.0702  0.2098
    8CHL1   C18  545   2.433   6.653   9.749  0.0071 -0.5735  0.5215
    8CHL1  H18A  546   2.492   6.728   9.806 -0.7266  0.3570  0.0751
    8CHL1  H18B  547   2.504   6.643   9.664 -2.1318  1.1188 -1.5852
    8CHL1  H18C  548   2.336   6.698   9.720 -0.5261 -2.0331 -0.0740
    8CHL1   C12  549   2.345   6.544   9.967 -0.1763 -0.0283  0.4880
    8CHL1  H12A  550   2.253   6.605   9.959  0.0139  0.0879 -1.1655
    8CHL1  H12B  551   2.302   6.452  10.012 -0.1954  0.5270  1.6619
    8CHL1   C11  552   2.435   6.622  10.072  0.0262  0.1372  0.7837
    8CHL1  H11A  553   2.427   6.731  10.056  0.1595 -0.2118 -2.0480
    8CHL1  H11B  554   2.387   6.605  10.171  1.0171  1.2551  1.4736
    8CHL1    C9  555   2.576   6.564  10.093  0.5693 -0.0710  0.1079
    8CHL1    H9  556   2.569   6.467  10.147 -0.4375  0.1654  0.4304
    8CHL1   C10  557   2.657   6.646  10.184 -0.3973  0.0112 -0.7390
    8CHL1   C19  558   2.687   6.789  10.127  0.0056 -0.5390 -0.4587
    8CHL1  H19A  559   2.712   6.863  10.206  1.1361 -1.9745  0.5872
    8CHL1  H19B  560   2.767   6.779  10.050 -0.8241  2.1486 -1.7945
    8CHL1  H19C  561   2.603   6.835  10.071 -0.2106  0.0257  0.3185
    8CHL1    C1  562   2.582   6.648  10.322  0.6395  0.8206 -0.0518
    8CHL1   H1A  563   2.498   6.721  10.321  1.0115  1.2688 -1.3233
    8CHL1   H1B  564   2.529   6.553  10.344 -0.9541  0.6883 -3.6760
    8CHL1    C2  565   2.664   6.669  10.449 -0.0749  0.1883  0.1936
    8CHL1   H2A  566   2.609   6.643  10.543  0.1751 -0.2159  0.2308
    8CHL1   H2B  567   2.682   6.778  10.456  0.1535  0.1748 -0.1698
    8CHL1   C20  568   2.216   6.447   9.675 -0.1548 -0.2699  0.3690
    8CHL1   H20  569   2.227   6.536   9.609  1.0242 -0.3901  0.3733
    8CHL1   C21  570   2.105   6.485   9.771  0.0596  0.3245 -0.1862
    8CHL1  H21A  571   2.103   6.415   9.857 -2.4582  2.4127  1.6012
    8CHL1  H21B  572   2.007   6.470   9.721 -0.7097  1.7838  0.8162
    8CHL1  H21C  573   2.100   6.592   9.801  1.6391  0.8242 -1.5450
    8CHL1   C22  574   2.195   6.321   9.579  0.6545  0.5035 -0.1101
    8CHL1  H22A  575   2.280   6.319   9.508  0.1166  0.4869 -0.7652
    8CHL1  H22B  576   2.205   6.228   9.639  0.1570  0.3439 -0.2644
    8CHL1   C23  577   2.062   6.335   9.498 -0.5629 -0.5938 -0.3179
    8CHL1  H23A  578   1.986   6.346   9.578  2.0455  0.2141  2.2418
    8CHL1  H23B  579   2.063   6.431   9.443  1.2894 -0.7487 -0.6297
    8CHL1   C24  580   2.056   6.212   9.398 -0.0032 -0.2402 -0.5883
    8CHL1  H24A  581   2.156   6.206   9.351  0.3115  0.1401  0.0129
    8CHL1  H24B  582   2.045   6.122   9.462 -2.7181  0.6409  0.3140
    8CHL1   C25  583   1.939   6.220   9.299 -0.1917  0.0567  0.5229
    8CHL1   H25  584   1.947   6.321   9.254 -1.0033 -0.5825 -1.1315
    8CHL1   C26  585   1.937   6.109   9.199 -0.4182 -0.2573 -0.5163
    8CHL1  H26A  586   2.039   6.107   9.155  0.1720  1.3622  0.6654
    8CHL1  H26B  587   1.918   6.008   9.242  2.3910 -1.1871 -1.2364
    8CHL1  H26C  588   1.861   6.131   9.120 -0.4086  1.8274  0.0006
    8CHL1   C27  589   1.802   6.208   9.371  0.3821 -1.0753 -0.6899
    8CHL1  H27A  590   1.715   6.177   9.309 -1.9970 -0.2710  2.0188
    8CHL1  H27B  591   1.805   6.130   9.449 -1.0436  0.1520  0.6750
    8CHL1  H27C  592   1.769   6.306   9.412 -1.1173 -1.3743 -1.0960
    9CHL1    C3  593   6.472   3.663  10.201 -0.2275 -0.5139 -0.0767
    9CHL1    H3  594   6.572   3.704  10.173 -0.0522 -2.0911 -1.9304
    9CHL1    O3  595   6.422   3.781  10.264  0.3040 -0.1810 -1.1403
    9CHL1   H3'  596   6.357   3.759  10.332  0.0498 -0.6447 -1.5321
    9CHL1    C4  597   6.393   3.630  10.078  1.1406 -0.5635  0.6622
    9CHL1   H4A  598   6.286   3.618  10.108  1.0922 -0.8604  0.3829
    9CHL1   H4B  599   6.390   3.714  10.006  2.5108  0.4697  1.7752
    9CHL1    C5  600   6.444   3.503  10.014  0.4085  0.6831  0.5591
    9CHL1    C6  601   6.485   3.494   9.888 -0.7057  0.6168 -0.3334
    9CHL1    H6  602   6.489   3.584   9.824  0.1156  1.4774  0.8616
    9CHL1    C7  603   6.526   3.359   9.828 -0.0689 -0.5240  0.4834
    9CHL1   H7A  604   6.500   3.354   9.720  0.2579 -0.2437  0.3879
    9CHL1   H7B  605   6.637   3.363   9.822 -0.1675  1.6958 -0.6251
    9CHL1    C8  606   6.481   3.233   9.903  0.3045  0.1071  1.1609
    9CHL1    H8  607   6.373   3.212   9.887  0.7592 -1.3620 -0.1941
    9CHL1   C14  608   6.562   3.112   9.854  0.1411  0.2549 -0.1131
    9CHL1   H14  609   6.665   3.133   9.892 -1.0545  1.7883  2.5268
    9CHL1   C15  610   6.569   3.083   9.704  0.1853 -0.0645  0.7488
    9CHL1  H15A  611   6.468   3.103   9.662  0.1885 -1.5119  0.0091
    9CHL1  H15B  612   6.649   3.145   9.658 -0.0459 -0.9359 -0.9147
    9CHL1   C16  613   6.601   2.936   9.703 -0.1269  0.1326 -0.2546
    9CHL1  H16A  614   6.514   2.879   9.664  0.9454 -2.1751  0.5144
    9CHL1  H16B  615   6.690   2.904   9.643 -0.0125  0.8631 -0.4871
    9CHL1   C17  616   6.623   2.886   9.852 -0.3705 -0.0414  0.0604
    9CHL1   H17  617   6.724   2.920   9.882  0.2206 -2.0896  0.5641
    9CHL1   C13  618   6.527   2.979   9.932  0.0228 -0.0378  0.2316
    9CHL1   C18  619   6.379   2.931   9.925  0.4797  1.1813  0.3109
    9CHL1  H18A  620   6.369   2.832   9.973  0.3154  0.1404 -1.7661
    9CHL1  H18B  621   6.303   3.001   9.966  1.6555  2.8197 -0.2134
    9CHL1  H18C  622   6.349   2.893   9.825  0.5189  0.9507  0.3873
    9CHL1   C12  623   6.556   2.993  10.083 -0.1963  0.2724  0.2395
    9CHL1  H12A  624   6.520   2.902  10.135 -0.8735  1.0227  1.1295
    9CHL1  H12B  625   6.666   2.999  10.093  0.1981 -3.0280 -1.1091
    9CHL1   C11  626   6.487   3.122  10.139 -0.3731 -0.2411 -0.4710
    9CHL1  H11A  627   6.379   3.098  10.148 -0.3117 -0.5856 -0.6591
    9CHL1  H11B  628   6.520   3.139  10.244 -0.2560 -2.4947 -0.0910
    9CHL1    C9  629   6.506   3.252  10.054  0.6146  0.4633 -0.1324
    9CHL1    H9  630   6.614   3.275  10.064  0.4654  1.2699 -0.2774
    9CHL1   C10  631   6.436   3.379  10.113 -0.1723 -0.5061 -0.3739
    9CHL1   C19  632   6.289   3.351  10.156 -0.3563  0.1269 -0.9584
    9CHL1  H19A  633   6.285   3.287  10.247  0.9777  0.0166 -0.9527
    9CHL1  H19B  634   6.227   3.440  10.179  0.4321  0.4812 -0.1808
    9CHL1  H19C  635   6.240   3.291  10.076  0.7881  0.7527 -2.1582
    9CHL1    C1  636   6.516   3.421  10.239  0.4731 -0.0542 -0.2259
    9CHL1   H1A  637   6.499   3.338  10.311 -2.2141  0.1944 -0.4627
    9CHL1   H1B  638   6.623   3.426  10.209  0.3987  1.4122 -0.3257
    9CHL1    C2  639   6.468   3.549  10.305 -0.0519 -0.0123 -0.6884
    9CHL1   H2A  640   6.539   3.571  10.388 -0.5173 -0.0200 -0.2807
    9CHL1   H2B  641   6.364   3.548  10.346  0.4838  0.8849  0.7510
    9CHL1   C20  642   6.628   2.733   9.866 -0.5319 -0.2915  1.1512
    9CHL1   H20  643   6.521   2.712   9.886 -1.0750  3.0539  2.3726
    9CHL1   C21  644   6.706   2.711  10.000  0.4264  0.4758 -0.4824
    9CHL1  H21A  645   6.701   2.601  10.019 -1.1133  0.9635  2.3820
    9CHL1  H21B  646   6.665   2.762  10.089  2.1783  1.0419  0.0580
    9CHL1  H21C  647   6.812   2.747   9.997  0.0700  1.6697  0.6097
    9CHL1   C22  648   6.667   2.651   9.741 -0.5237 -0.8346 -0.0728
    9CHL1  H22A  649   6.753   2.701   9.692 -1.2458  0.2457 -0.2687
    9CHL1  H22B  650   6.712   2.561   9.789  1.4526 -0.1845 -0.6576
    9CHL1   C23  651   6.557   2.601   9.647 -1.1115  0.0697  0.2759
    9CHL1  H23A  652   6.468   2.563   9.704 -0.7861  1.4917  1.7945
    9CHL1  H23B  653   6.526   2.685   9.582  0.6958  1.1412  0.7477
    9CHL1   C24  654   6.604   2.485   9.555  0.2241  0.1188  0.0243
    9CHL1  H24A  655   6.692   2.524   9.500 -0.4302  3.0728  0.8650
    9CHL1  H24B  656   6.649   2.403   9.615 -2.3879 -1.0721  0.5007
    9CHL1   C25  657   6.511   2.425   9.447  0.6437 -0.3054  0.4707
    9CHL1   H25  658   6.566   2.341   9.399  1.2370 -0.5734  1.5979
    9CHL1   C26  659   6.390   2.365   9.515  0.4932  0.1061  0.3974
    9CHL1  H26A  660   6.326   2.439   9.568 -2.6430 -2.2891  0.2152
    9CHL1  H26B  661   6.320   2.325   9.439  1.9762  1.8116 -2.0037
    9CHL1  H26C  662   6.429   2.282   9.579  1.1634 -0.3549 -0.5813
    9CHL1   C27  663   6.474   2.520   9.341  0.3437 -0.8438  0.4503
    9CHL1  H27A  664   6.414   2.477   9.259  1.3502 -0.7744 -0.3541
    9CHL1  H27B  665   6.404   2.597   9.380 -0.7422 -0.4202 -2.1475
    9CHL1  H27C  666   6.564   2.569   9.296 -1.4299  1.7280 -0.5512
   10CHL1    C3  667   5.871   6.639  10.094 -0.5809 -1.4322  0.3501
   10CHL1    H3  668   5.922   6.541  10.103  1.2889 -0.4167  1.3561
   10CHL1    O3  669   5.896   6.710  10.214  0.6524 -0.2872 -0.5529
   10CHL1   H3'  670   5.855   6.661  10.286 -0.9472  2.1634  0.3602
   10CHL1    C4  671   5.934   6.729   9.986  0.3896  0.5543  1.1242
   10CHL1   H4A  672   5.904   6.835   9.998 -1.7491  0.1309  0.0705
   10CHL1   H4B  673   6.043   6.714   9.992  0.3775 -0.2919 -0.2421
   10CHL1    C5  674   5.903   6.692   9.842 -0.1248 -0.1843  0.2809
   10CHL1    C6  675   5.998   6.656   9.754 -0.3560 -0.0728 -0.3628
   10CHL1    H6  676   6.100   6.654   9.794 -0.6785  0.7311  0.5615
   10CHL1    C7  677   5.964   6.630   9.610  0.1707  0.1348  0.7247
   10CHL1   H7A  678   6.040   6.669   9.539 -0.3460 -1.1746 -0.5872
   10CHL1   H7B  679   5.973   6.522   9.587  1.7681  0.5738 -0.9282
   10CHL1    C8  680   5.826   6.687   9.571  0.0953 -0.2990  0.3882
   10CHL1    H8  681   5.823   6.798   9.575 -0.8868 -0.3032  0.1600
   10CHL1   C14  682   5.784   6.641   9.435 -0.1134  0.0391 -0.1948
   10CHL1   H14  683   5.813   6.534   9.433  0.6565  0.2377 -0.1715
   10CHL1   C15  684   5.867   6.692   9.320 -1.0181  0.1888  0.4390
   10CHL1  H15A  685   5.876   6.803   9.310  1.6508 -0.0336 -0.4017
   10CHL1  H15B  686   5.971   6.655   9.323  0.2204  3.3235  0.2298
   10CHL1   C16  687   5.792   6.650   9.194 -0.4185 -0.0515  0.4218
   10CHL1  H16A  688   5.783   6.736   9.124  2.3515 -0.5771 -0.7148
   10CHL1  H16B  689   5.841   6.563   9.146  0.3785 -1.4674  3.5567
   10CHL1   C17  690   5.650   6.602   9.252 -0.2709 -0.2447  0.6036
   10CHL1   H17  691   5.661   6.492   9.270  0.8471 -0.5769 -1.7794
   10CHL1   C13  692   5.639   6.663   9.389 -0.5312  0.5312 -0.2048
   10CHL1   C18  693   5.606   6.812   9.376 -0.2273  0.5856  0.2132
   10CHL1  H18A  694   5.499   6.818   9.347  0.4860 -1.9432 -3.5587
   10CHL1  H18B  695   5.627   6.859   9.475 -0.4389  1.3410 -0.0995
   10CHL1  H18C  696   5.670   6.862   9.300 -0.9716 -0.0499 -0.8596
   10CHL1   C12  697   5.548   6.588   9.490 -0.0475 -0.5138  0.1150
   10CHL1  H12A  698   5.441   6.597   9.463 -0.2657 -0.5524  0.9361
   10CHL1  H12B  699   5.561   6.478   9.499  0.9296 -0.7206 -2.8302
   10CHL1   C11  700   5.567   6.654   9.628  0.5859  0.4221 -0.0755
   10CHL1  H11A  701   5.531   6.758   9.616  0.2609  0.0920 -2.3594
   10CHL1  H11B  702   5.504   6.608   9.708 -0.7163  1.3805 -0.5272
   10CHL1    C9  703   5.716   6.642   9.675 -0.1501  0.5611 -0.1766
   10CHL1    H9  704   5.731   6.532   9.684  0.8593  0.7083  0.0901
   10CHL1   C10  705   5.749   6.695   9.813  0.0249  0.1243 -0.7684
   10CHL1   C19  706   5.685   6.832   9.833 -0.3870  0.0059  0.2420
   10CHL1  H19A  707   5.745   6.895   9.764  0.5708 -0.5067  0.5872
   10CHL1  H19B  708   5.577   6.843   9.808 -0.4090  0.6045  0.5738
   10CHL1  H19C  709   5.694   6.863   9.939 -0.4606  0.1471  0.2079
   10CHL1    C1  710   5.686   6.590   9.916 -0.2259 -0.1975 -0.0143
   10CHL1   H1A  711   5.577   6.579   9.895 -0.0487 -0.4518 -0.8208
   10CHL1   H1B  712   5.727   6.488   9.902 -0.3987 -0.4028  0.8783
   10CHL1    C2  713   5.719   6.625  10.066  0.3047  0.2972 -0.0417
   10CHL1   H2A  714   5.679   6.540  10.125 -1.8800  0.1440 -1.5832
   10CHL1   H2B  715   5.656   6.712  10.094 -0.6117  0.1470 -1.5271
   10CHL1   C20  716   5.540   6.629   9.144  0.1682 -0.0418 -0.4214
   10CHL1   H20  717   5.539   6.739   9.125  0.1819 -0.2737 -1.8953
   10CHL1   C21  718   5.404   6.600   9.204 -0.4680 -0.5069 -0.1504
   10CHL1  H21A  719   5.332   6.620   9.122 -0.1759  0.4642 -0.1790
   10CHL1  H21B  720   5.377   6.672   9.284  2.5165  0.5168  0.0627
   10CHL1  H21C  721   5.397   6.493   9.234 -1.9681 -0.1129  1.0788
   10CHL1   C22  722   5.562   6.550   9.017 -0.1733 -0.0566  0.9622
   10CHL1  H22A  723   5.638   6.470   9.031 -1.2400 -1.6533 -1.6055
   10CHL1  H22B  724   5.468   6.507   8.977  0.5590 -0.1031 -0.8345
   10CHL1   C23  725   5.612   6.642   8.904 -0.2181 -0.1775  0.0237
   10CHL1  H23A  726   5.535   6.722   8.891 -1.3118 -0.7811  2.3148
   10CHL1  H23B  727   5.707   6.694   8.929 -0.1353 -0.3130 -0.0084
   10CHL1   C24  728   5.619   6.565   8.769 -0.0314 -0.1082  0.5707
   10CHL1  H24A  729   5.686   6.477   8.782 -1.0563 -1.1109 -0.6691
   10CHL1  H24B  730   5.518   6.523   8.751 -1.3192  2.4918  1.3235
   10CHL1   C25  731   5.674   6.640   8.645 -0.3421  0.0770  0.5338
   10CHL1   H25  732   5.755   6.705   8.685 -1.4071  1.5724  0.3682
   10CHL1   C26  733   5.727   6.530   8.554 -0.0553 -0.3526 -0.2833
   10CHL1  H26A  734   5.801   6.464   8.604 -1.2680 -0.0266  2.0453
   10CHL1  H26B  735   5.648   6.466   8.508  0.3790 -0.1145 -1.3997
   10CHL1  H26C  736   5.783   6.583   8.473 -2.2598 -0.2683 -1.8474
   10CHL1   C27  737   5.581   6.738   8.567  0.6129  0.9774 -0.4368
   10CHL1  H27A  738   5.502   6.676   8.520  1.4457 -1.1077  0.7693
   10CHL1  H27B  739   5.531   6.802   8.644 -0.5324 -0.8505  0.4161
   10CHL1  H27C  740   5.633   6.791   8.484 -0.0478  1.4722 -0.5453
   11CHL1    C3  741   1.887   2.933  10.142  0.3951 -0.2564  1.0701
   11CHL1    H3  742   1.795   2.871  10.149 -1.6073  2.2044 -1.6015
   11CHL1    O3  743   1.916   2.973  10.274  0.1605 -0.3625  0.3146
   11CHL1   H3'  744   2.000   3.018  10.280  0.3625 -0.9048  2.6469
   11CHL1    C4  745   2.009   2.854  10.088  0.5377  0.1090  0.2445
   11CHL1   H4A  746   2.089   2.932  10.086  1.5218 -0.8815  0.2219
   11CHL1   H4B  747   2.040   2.782  10.166 -0.2435 -0.9121 -0.3598
   11CHL1    C5  748   2.004   2.797   9.952 -0.3145  0.2937 -0.7122
   11CHL1    C6  749   2.015   2.672   9.930 -0.4205 -0.0639 -0.1684
   11CHL1    H6  750   2.037   2.600  10.011  1.8066 -0.3997 -1.0095
   11CHL1    C7  751   2.006   2.615   9.797 -0.0730  0.1724  0.3028
   11CHL1   H7A  752   2.082   2.534   9.788 -1.7599 -1.5100  0.3834
   11CHL1   H7B  753   1.917   2.549   9.787  0.0563 -0.4205  2.4725
   11CHL1    C8  754   2.010   2.712   9.681 -0.3466  0.5978 -0.7907
   11CHL1    H8  755   2.114   2.749   9.668  0.0521 -0.8460 -1.9673
   11CHL1   C14  756   1.976   2.648   9.546 -0.6520  0.3414 -0.1428
   11CHL1   H14  757   1.871   2.615   9.562 -0.8794  1.0336 -0.1473
   11CHL1   C15  758   2.056   2.527   9.503 -0.1753  0.0216 -0.6254
   11CHL1  H15A  759   2.162   2.561   9.504 -0.7032  1.8869 -2.1574
   11CHL1  H15B  760   2.030   2.439   9.566 -3.0793  1.7544  0.7753
   11CHL1   C16  761   2.032   2.521   9.355 -0.9790 -0.1113 -0.4589
   11CHL1  H16A  762   2.124   2.503   9.295  2.4659  2.5432  3.5292
   11CHL1  H16B  763   1.975   2.429   9.331  1.0267 -1.1888 -1.3493
   11CHL1   C17  764   1.951   2.655   9.316 -0.0436 -0.5993 -0.8053
   11CHL1   H17  765   1.843   2.632   9.311 -0.0720 -0.4550 -0.8581
   11CHL1   C13  766   1.967   2.748   9.431  0.3047 -0.1009  0.4050
   11CHL1   C18  767   2.118   2.804   9.412 -0.3811 -0.1067 -0.1435
   11CHL1  H18A  768   2.119   2.874   9.325 -0.8471  1.7158  1.2611
   11CHL1  H18B  769   2.136   2.882   9.489 -1.6053  0.0563  0.0065
   11CHL1  H18C  770   2.195   2.731   9.380 -0.0289  0.2617 -0.1399
   11CHL1   C12  771   1.859   2.854   9.462 -0.4793  0.4672  0.2357
   11CHL1  H12A  772   1.844   2.919   9.373 -2.2220 -0.0357  0.1236
   11CHL1  H12B  773   1.773   2.784   9.465  0.3826 -0.6097  0.3350
   11CHL1   C11  774   1.875   2.926   9.595  0.3257 -0.2488  0.4041
   11CHL1  H11A  775   1.958   2.996   9.574 -0.4872  0.7354  0.3861
   11CHL1  H11B  776   1.788   2.987   9.628  0.6453  0.4639 -0.0540
   11CHL1    C9  777   1.914   2.828   9.714  0.0666  0.4956 -0.3575
   11CHL1    H9  778   1.818   2.778   9.738 -0.3648  1.4875  0.0680
   11CHL1   C10  779   1.957   2.899   9.847 -0.0707 -0.3678 -0.2257
   11CHL1   C19  780   2.079   2.992   9.816  0.6678  0.4663  0.3127
   11CHL1  H19A  781   2.111   3.052   9.904  1.8850 -1.1604  1.0297
   11CHL1  H19B  782   2.169   2.934   9.788  0.4653 -0.4425  1.4720
   11CHL1  H19C  783   2.050   3.066   9.738 -1.8924  0.2297  0.9480
   11CHL1    C1  784   1.835   2.979   9.905  0.1340  0.2768 -0.4246
   11CHL1   H1A  785   1.818   3.058   9.829 -0.3483  0.6754  0.0896
   11CHL1   H1B  786   1.750   2.908   9.912  0.8737 -0.7707 -1.7047
   11CHL1    C2  787   1.859   3.044  10.042  0.8700  0.8404  0.3177
   11CHL1   H2A  788   1.768   3.096  10.079 -1.2188 -1.2522 -1.5399
   11CHL1   H2B  789   1.942   3.115  10.024  1.0158  0.5093 -0.3550
   11CHL1   C20  790   1.973   2.708   9.171 -0.0164 -0.2141  0.2761
   11CHL1   H20  791   2.079   2.739   9.161  0.7472 -2.4869  0.8538
   11CHL1   C21  792   1.876   2.826   9.134  0.7645  0.0340 -0.2079
   11CHL1  H21A  793   1.775   2.802   9.172  1.3176 -1.0815  0.6134
   11CHL1  H21B  794   1.877   2.859   9.027 -0.0403  0.2889 -0.1398
   11CHL1  H21C  795   1.907   2.922   9.180 -1.3075  0.5313  0.2506
   11CHL1   C22  796   1.952   2.596   9.061  0.1335 -0.5282  0.2090
   11CHL1  H22A  797   2.018   2.512   9.091  1.0134 -0.0359 -0.2905
   11CHL1  H22B  798   1.846   2.566   9.052 -0.4537  1.3310  0.5137
   11CHL1   C23  799   1.996   2.630   8.921 -0.2424 -0.2343  0.3851
   11CHL1  H23A  800   1.981   2.547   8.849  0.3802 -0.6297  0.6952
   11CHL1  H23B  801   1.947   2.723   8.886  0.5242 -0.4164 -1.2758
   11CHL1   C24  802   2.147   2.657   8.910 -0.0345  0.1356  0.1176
   11CHL1  H24A  803   2.173   2.729   8.991 -2.5113  0.5960  0.5604
   11CHL1  H24B  804   2.202   2.563   8.932 -0.0696 -0.0823 -0.6940
   11CHL1   C25  805   2.205   2.727   8.782  0.1078  0.3223 -0.4778
   11CHL1   H25  806   2.148   2.818   8.755  0.6586 -0.2798 -4.1106
   11CHL1   C26  807   2.357   2.762   8.799 -0.0727 -0.7826  0.2160
   11CHL1  H26A  808   2.421   2.673   8.820 -1.4386 -2.1320 -1.0956
   11CHL1  H26B  809   2.392   2.825   8.715 -2.8398  0.8507  0.1708
   11CHL1  H26C  810   2.365   2.831   8.886  0.3620 -0.8268  0.2131
   11CHL1   C27  811   2.184   2.649   8.652 -0.0843  0.1302  0.3706
   11CHL1  H27A  812   2.081   2.607   8.653  0.4604 -1.3357 -1.0945
   11CHL1  H27B  813   2.204   2.712   8.563  0.0743 -0.1449  0.2104
   11CHL1  H27C  814   2.255   2.565   8.656  0.9552  1.0306  1.7067
   12CHL1    C3  815   3.417   0.321  10.476  0.0706 -0.1477 -0.0296
   12CHL1    H3  816   3.359   0.414  10.456  0.6784 -0.1034 -1.7339
   12CHL1    O3  817   3.455   0.328  10.615  0.3050 -0.5802 -0.4674
   12CHL1   H3'  818   3.441   0.239  10.647 -1.1356 -0.2954 -0.2069
   12CHL1    C4  819   3.316   0.201  10.448 -0.3381 -0.2151 -0.0299
   12CHL1   H4A  820   3.383   0.114  10.466  3.3902  1.7252 -3.0011
   12CHL1   H4B  821   3.234   0.212  10.522 -0.5680  1.6441 -0.5040
   12CHL1    C5  822   3.276   0.191  10.297  0.2975 -0.4166 -0.3004
   12CHL1    C6  823   3.146   0.192  10.269 -0.4078  0.5718 -0.4087
   12CHL1    H6  824   3.077   0.179  10.354  0.9371  0.2661  0.6665
   12CHL1    C7  825   3.098   0.177  10.129 -0.1375 -0.4126  0.2635
   12CHL1   H7A  826   3.017   0.100  10.133  0.7899 -1.3591  1.8823
   12CHL1   H7B  827   3.058   0.276  10.098 -1.8534 -0.5624  1.8120
   12CHL1    C8  828   3.207   0.135  10.025  0.5664 -0.6572 -0.7146
   12CHL1    H8  829   3.237   0.033  10.057  1.7662  0.0012  0.3640
   12CHL1   C14  830   3.152   0.148   9.888  0.0905 -0.1414 -0.2923
   12CHL1   H14  831   3.120   0.254   9.875  0.8504 -0.0616 -1.6908
   12CHL1   C15  832   3.028   0.063   9.859  0.0999 -0.5971 -0.1385
   12CHL1  H15A  833   3.048  -0.030   9.916  3.8448 -1.0049 -1.8387
   12CHL1  H15B  834   2.932   0.106   9.894 -0.0340  1.1582 -2.3944
   12CHL1   C16  835   3.029   0.034   9.714  0.3419 -0.2439 -0.4006
   12CHL1  H16A  836   3.029  -0.073   9.687 -1.4475 -0.4088  0.1082
   12CHL1  H16B  837   2.938   0.071   9.661  1.0012 -0.9591 -2.1005
   12CHL1   C17  838   3.147   0.110   9.657 -0.2677  0.0085 -0.1057
   12CHL1   H17  839   3.121   0.217   9.652 -3.8598 -0.1209  5.7870
   12CHL1   C13  840   3.249   0.112   9.781 -0.5425  0.1588 -0.2050
   12CHL1   C18  841   3.314  -0.029   9.789 -0.1884  0.0716 -0.2019
   12CHL1  H18A  842   3.396  -0.041   9.714 -1.2794 -0.3416 -1.3609
   12CHL1  H18B  843   3.355  -0.035   9.892 -0.5886 -1.0488 -0.0896
   12CHL1  H18C  844   3.243  -0.114   9.774  0.4813 -0.4831 -0.3002
   12CHL1   C12  845   3.359   0.219   9.790  0.2687 -0.3025  0.3450
   12CHL1  H12A  846   3.438   0.219   9.712  0.4784  1.4436  0.5120
   12CHL1  H12B  847   3.315   0.319   9.774  1.1369 -0.2699 -2.2322
   12CHL1   C11  848   3.428   0.227   9.923 -0.0739  0.0662 -0.0466
   12CHL1  H11A  849   3.499   0.142   9.926  0.1533  0.2434 -0.2815
   12CHL1  H11B  850   3.486   0.321   9.940 -1.7585  0.8678  1.6331
   12CHL1    C9  851   3.331   0.223  10.045  0.7608  0.1921 -0.0721
   12CHL1    H9  852   3.283   0.323  10.043  2.0007  0.7923 -2.0953
   12CHL1   C10  853   3.394   0.203  10.193 -0.0562 -0.4347 -0.0985
   12CHL1   C19  854   3.486   0.084  10.199 -0.0986 -0.0403  0.6504
   12CHL1  H19A  855   3.539   0.066  10.295 -0.9800 -1.6627  0.8748
   12CHL1  H19B  856   3.425   0.002  10.154  0.0677  0.5035 -0.6059
   12CHL1  H19C  857   3.569   0.095  10.127 -0.7231  0.5560  0.0017
   12CHL1    C1  858   3.479   0.331  10.233 -0.3916  0.6606  0.0476
   12CHL1   H1A  859   3.556   0.338  10.153 -1.0960  0.8053 -0.6302
   12CHL1   H1B  860   3.428   0.430  10.229  1.5027  1.8042  1.7754
   12CHL1    C2  861   3.536   0.327  10.378  0.1627  0.7258  0.5749
   12CHL1   H2A  862   3.582   0.424  10.404 -0.3058  0.4340  2.7060
   12CHL1   H2B  863   3.609   0.243  10.388  0.9456  1.1018 -1.4320
   12CHL1   C20  864   3.193   0.065   9.523 -0.1149  0.3665  0.8431
   12CHL1   H20  865   3.242  -0.034   9.532 -1.2320 -0.4735 -1.4735
   12CHL1   C21  866   3.292   0.162   9.464  0.5410  0.1921 -0.5120
   12CHL1  H21A  867   3.389   0.178   9.515  1.4065 -1.3605 -1.5968
   12CHL1  H21B  868   3.245   0.263   9.464  1.7527  0.7902 -1.7912
   12CHL1  H21C  869   3.313   0.147   9.356 -2.4590  1.9661 -1.4684
   12CHL1   C22  870   3.079   0.035   9.423  0.5970  0.2951 -0.4014
   12CHL1  H22A  871   3.029  -0.054   9.466 -2.1611  1.2817 -1.3295
   12CHL1  H22B  872   3.016   0.126   9.428 -0.0177 -0.0381 -1.5062
   12CHL1   C23  873   3.115   0.001   9.269 -1.0850 -0.2420 -0.9044
   12CHL1  H23A  874   3.020  -0.014   9.214 -2.1155  1.2050  0.3840
   12CHL1  H23B  875   3.173   0.080   9.217 -2.5291  0.3990 -1.6026
   12CHL1   C24  876   3.199  -0.129   9.258  0.1942  0.2504  0.1978
   12CHL1  H24A  877   3.292  -0.113   9.317  0.3691 -3.4949  1.1782
   12CHL1  H24B  878   3.133  -0.211   9.295  0.3417  0.0004 -0.0923
   12CHL1   C25  879   3.244  -0.177   9.119  0.5470  0.3087  0.2965
   12CHL1   H25  880   3.155  -0.183   9.053  0.8774 -0.8226 -0.0647
   12CHL1   C26  881   3.338  -0.074   9.046 -0.7607 -0.6600 -0.1035
   12CHL1  H26A  882   3.406  -0.026   9.119  0.9045 -1.7873 -0.8485
   12CHL1  H26B  883   3.391  -0.137   8.972 -1.3281 -1.0628 -0.1744
   12CHL1  H26C  884   3.280   0.005   8.994  0.0804 -0.3616 -0.6136
   12CHL1   C27  885   3.302  -0.315   9.115  0.6940  0.4673  0.0871
   12CHL1  H27A  886   3.231  -0.394   9.149  1.3595  0.0315  0.4841
   12CHL1  H27B  887   3.346  -0.336   9.015 -0.1461 -1.9274  0.1516
   12CHL1  H27C  888   3.392  -0.328   9.179  0.8252 -0.4113 -0.2542
   13CHL1    C3  889   3.292   1.680   9.810 -0.1880 -0.0963 -0.0796
   13CHL1    H3  890   3.384   1.741   9.797  1.6797 -2.2004  2.1833
   13CHL1    O3  891   3.283   1.640   9.948  0.1808  0.1595  0.5495
   13CHL1   H3'  892   3.375   1.621   9.967  0.3004 -0.6336 -0.7615
   13CHL1    C4  893   3.170   1.769   9.786 -0.0427 -1.0652  0.0259
   13CHL1   H4A  894   3.084   1.712   9.826  0.4124 -1.1536  0.9053
   13CHL1   H4B  895   3.164   1.864   9.843  3.0510  0.7903 -2.4098
   13CHL1    C5  896   3.155   1.807   9.637 -0.6760  0.5237 -0.5261
   13CHL1    C6  897   3.142   1.927   9.587 -0.1650  0.0133 -0.0923
   13CHL1    H6  898   3.121   2.011   9.655 -1.7697 -1.0300  0.7781
   13CHL1    C7  899   3.126   1.955   9.445 -0.2121 -0.5283 -0.0640
   13CHL1   H7A  900   3.045   2.028   9.425 -0.9612 -1.1251  0.7238
   13CHL1   H7B  901   3.213   2.015   9.411 -0.1754 -1.4843 -1.7956
   13CHL1    C8  902   3.111   1.837   9.345  0.3819 -0.3001 -0.4302
   13CHL1    H8  903   3.006   1.801   9.346 -0.3021  1.5530 -0.8044
   13CHL1   C14  904   3.148   1.868   9.199 -0.1766  0.6389  0.1570
   13CHL1   H14  905   3.253   1.903   9.199 -0.3653  1.2188 -0.4121
   13CHL1   C15  906   3.083   1.983   9.133  0.6312 -0.8299  0.4490
   13CHL1  H15A  907   2.973   1.979   9.146  0.5823  1.0042  0.9011
   13CHL1  H15B  908   3.119   2.079   9.177 -1.5155  0.0894  0.3256
   13CHL1   C16  909   3.117   1.969   8.985 -0.2008 -0.0301  0.1815
   13CHL1  H16A  910   3.033   1.984   8.914 -0.1330 -2.6257 -0.5579
   13CHL1  H16B  911   3.188   2.049   8.957  0.4691  0.1380  2.1911
   13CHL1   C17  912   3.178   1.825   8.970 -0.6483  0.1496  0.2423
   13CHL1   H17  913   3.287   1.845   8.970 -0.8655  1.4475 -0.2409
   13CHL1   C13  914   3.137   1.751   9.097 -0.1399 -0.7962  0.2537
   13CHL1   C18  915   2.993   1.698   9.085 -0.1655 -0.0455 -0.6975
   13CHL1  H18A  916   2.987   1.619   9.008 -1.2464 -0.1634 -0.5028
   13CHL1  H18B  917   2.955   1.657   9.180  0.3335 -0.2497 -0.5831
   13CHL1  H18C  918   2.932   1.788   9.063 -0.0175  0.5217  1.0285
   13CHL1   C12  919   3.234   1.640   9.146  0.2242 -0.9526  0.5183
   13CHL1  H12A  920   3.230   1.556   9.073 -2.5525 -1.2372  0.8896
   13CHL1  H12B  921   3.334   1.686   9.156 -0.3100  0.6115 -0.8599
   13CHL1   C11  922   3.201   1.593   9.292 -0.1636 -0.7014  0.2344
   13CHL1  H11A  923   3.112   1.527   9.292 -0.3462 -0.4577 -0.5693
   13CHL1  H11B  924   3.283   1.523   9.320 -0.5253 -0.5965  1.6493
   13CHL1    C9  925   3.197   1.717   9.393 -0.0858 -0.9082 -0.4188
   13CHL1    H9  926   3.297   1.764   9.399 -0.4771 -0.1569  0.4589
   13CHL1   C10  927   3.172   1.681   9.541 -0.1255 -0.6812  0.2093
   13CHL1   C19  928   3.041   1.603   9.562 -0.4316 -0.1274  0.7496
   13CHL1  H19A  929   3.033   1.510   9.503 -2.2244  0.4977 -0.0675
   13CHL1  H19B  930   3.012   1.572   9.665  0.2117 -1.4955  0.5363
   13CHL1  H19C  931   2.960   1.667   9.519  1.1756  0.6750 -1.2562
   13CHL1    C1  932   3.290   1.595   9.577 -0.4409  0.9024  0.0821
   13CHL1   H1A  933   3.288   1.505   9.511  2.6777  1.4403 -0.9159
   13CHL1   H1B  934   3.381   1.655   9.553 -0.1354  0.2384 -0.4886
   13CHL1    C2  935   3.297   1.552   9.728  0.5032  0.1417 -0.6109
   13CHL1   H2A  936   3.392   1.494   9.735 -1.1157 -2.5392  0.5647
   13CHL1   H2B  937   3.203   1.497   9.748  0.5496  0.3353  0.2012
   13CHL1   C20  938   3.153   1.776   8.832  0.1966  0.4912 -0.5819
   13CHL1   H20  939   3.043   1.764   8.817  0.0407 -2.1556  1.9310
   13CHL1   C21  940   3.216   1.642   8.815  0.4522 -0.1001 -0.2442
   13CHL1  H21A  941   3.173   1.570   8.886 -0.6009 -0.2538 -1.0163
   13CHL1  H21B  942   3.324   1.639   8.843  0.0567 -0.7358  1.2881
   13CHL1  H21C  943   3.200   1.600   8.713  0.5287 -1.8590  0.4418
   13CHL1   C22  944   3.207   1.870   8.715  0.0948  0.4990  0.0088
   13CHL1  H22A  945   3.180   1.974   8.744  2.3742  1.4321 -0.9835
   13CHL1  H22B  946   3.318   1.870   8.716  0.1745 -0.4484 -2.3407
   13CHL1   C23  947   3.150   1.836   8.572 -0.2022  0.1529 -0.2608
   13CHL1  H23A  948   3.192   1.915   8.508  3.4363  1.3421  3.1985
   13CHL1  H23B  949   3.184   1.733   8.545 -0.6468 -0.4745  1.4325
   13CHL1   C24  950   2.995   1.831   8.546 -0.6278 -0.4620  0.2302
   13CHL1  H24A  951   2.950   1.745   8.599 -0.2052 -0.5091  0.5201
   13CHL1  H24B  952   2.952   1.920   8.597  0.2875  0.1409 -0.0224
   13CHL1   C25  953   2.950   1.821   8.398 -0.0073  0.2144 -0.8751
   13CHL1   H25  954   2.999   1.728   8.362 -0.2275 -0.2967  0.0944
   13CHL1   C26  955   2.803   1.808   8.400  0.4066  0.1616  0.1399
   13CHL1  H26A  956   2.787   1.700   8.418  3.6075 -0.4588 -0.0918
   13CHL1  H26B  957   2.761   1.856   8.491  3.4702  1.3707  1.0485
   13CHL1  H26C  958   2.758   1.839   8.303  0.7587 -0.8005 -0.3438
   13CHL1   C27  959   2.984   1.949   8.322  0.0155  0.5361 -0.2017
   13CHL1  H27A  960   3.093   1.949   8.304 -0.2147  2.0933 -1.9255
   13CHL1  H27B  961   2.935   1.934   8.224  0.7355 -0.0525 -0.4794
   13CHL1  H27C  962   2.934   2.038   8.367 -1.0455 -1.3792  2.7189
   14CHL1    C3  963   4.077   5.566  10.343 -0.9170  0.2787  0.3149
   14CHL1    H3  964   4.139   5.658  10.341 -1.5159  0.6791 -0.8368
   14CHL1    O3  965   4.009   5.578  10.469  0.1218  0.0469  0.2044
   14CHL1   H3'  966   3.974   5.491  10.494  2.3237 -0.5163  1.5773
   14CHL1    C4  967   3.980   5.569  10.224  0.3717  0.5588 -0.4607
   14CHL1   H4A  968   3.905   5.489  10.246  0.0527  0.7963 -0.6790
   14CHL1   H4B  969   3.932   5.669  10.234 -1.4704 -0.4021  1.2534
   14CHL1    C5  970   4.054   5.547  10.098  0.2968  0.6983  0.1736
   14CHL1    C6  971   4.040   5.629   9.994 -0.3269 -0.7076  0.0692
   14CHL1    H6  972   3.993   5.728  10.005 -0.1215 -0.3793 -1.7876
   14CHL1    C7  973   4.096   5.605   9.858  0.4268 -0.0398  0.2133
   14CHL1   H7A  974   4.019   5.636   9.785  0.2534 -0.8089  0.0562
   14CHL1   H7B  975   4.184   5.667   9.829  0.2824  0.0375 -0.0610
   14CHL1    C8  976   4.139   5.460   9.831 -0.2535 -0.9510 -0.6565
   14CHL1    H8  977   4.042   5.408   9.814 -0.3067 -1.2808  0.5455
   14CHL1   C14  978   4.233   5.447   9.714  0.5095  0.0055  0.0733
   14CHL1   H14  979   4.323   5.506   9.741 -0.5600  1.9663 -0.4941
   14CHL1   C15  980   4.173   5.508   9.579 -0.7058  0.0266 -0.0086
   14CHL1  H15A  981   4.065   5.483   9.579  0.1012 -4.1831  0.2414
   14CHL1  H15B  982   4.205   5.613   9.558  1.5443 -0.8294 -1.1853
   14CHL1   C16  983   4.238   5.416   9.470  0.7116  0.6674 -0.1271
   14CHL1  H16A  984   4.157   5.377   9.405  1.8623 -0.6084 -0.8294
   14CHL1  H16B  985   4.313   5.480   9.419  0.1902  2.8673  1.6559
   14CHL1   C17  986   4.331   5.311   9.541  0.3216  0.5560  0.6510
   14CHL1   H17  987   4.423   5.366   9.569 -0.7682  1.2030  3.3729
   14CHL1   C13  988   4.269   5.296   9.681  0.7093  0.0140 -0.5414
   14CHL1   C18  989   4.135   5.216   9.669 -0.4833 -0.1941 -0.1350
   14CHL1  H18A  990   4.076   5.228   9.763  0.9035  1.5127  0.5778
   14CHL1  H18B  991   4.068   5.257   9.591 -0.3512 -2.0799 -1.2962
   14CHL1  H18C  992   4.157   5.110   9.645  0.5009  0.0965 -0.5505
   14CHL1   C12  993   4.360   5.248   9.798  0.6877  0.5099 -0.4907
   14CHL1  H12A  994   4.401   5.146   9.781 -0.6163  0.3325 -2.9759
   14CHL1  H12B  995   4.451   5.311   9.806  0.1525  1.3053 -0.5935
   14CHL1   C11  996   4.278   5.256   9.925  0.7107  0.1112 -0.0352
   14CHL1  H11A  997   4.202   5.175   9.932 -0.3507  1.1764  1.5129
   14CHL1  H11B  998   4.355   5.247  10.005  1.4434  0.8969 -0.6379
   14CHL1    C9  999   4.208   5.390   9.957 -0.5836 -0.0849 -0.3701
   14CHL1    H9 1000   4.300   5.452   9.967  1.8269 -3.6875  2.0010
   14CHL1   C10 1001   4.129   5.408  10.093  0.1219  0.5673  0.3839
   14CHL1   C19 1002   4.034   5.287  10.111 -0.1984 -0.2474 -0.3397
   14CHL1  H19A 1003   3.945   5.283  10.044 -1.3341  0.8281  1.0444
   14CHL1  H19B 1004   4.083   5.188  10.111  0.6591  0.1215  2.0642
   14CHL1  H19C 1005   3.977   5.284  10.206 -0.5783  1.0034 -0.5121
   14CHL1    C1 1006   4.233   5.413  10.202  0.3197 -0.1253 -0.2045
   14CHL1   H1A 1007   4.274   5.311  10.216 -0.9196 -0.4868  0.9670
   14CHL1   H1B 1008   4.313   5.488  10.181  1.3369 -0.8930  0.8046
   14CHL1    C2 1009   4.167   5.445  10.335 -0.7466 -0.6434 -0.9497
   14CHL1   H2A 1010   4.243   5.453  10.416 -0.1533 -1.1994 -1.4400
   14CHL1   H2B 1011   4.102   5.363  10.375  1.2287 -2.3713 -1.0885
   14CHL1   C20 1012   4.363   5.188   9.460 -0.2009  0.5364 -0.4996
   14CHL1   H20 1013   4.301   5.105   9.500  0.0157  2.0005  3.2325
   14CHL1   C21 1014   4.513   5.148   9.487 -0.7135 -0.3482  0.6846
   14CHL1  H21A 1015   4.537   5.059   9.425  1.3673  1.1544 -0.8059
   14CHL1  H21B 1016   4.530   5.103   9.588 -0.7640 -0.0403  0.8311
   14CHL1  H21C 1017   4.596   5.219   9.465 -0.6340 -0.7016 -0.2119
   14CHL1   C22 1018   4.330   5.197   9.312  0.5018 -0.8343  0.7389
   14CHL1  H22A 1019   4.331   5.093   9.272  0.4820 -0.8439  0.7636
   14CHL1  H22B 1020   4.223   5.225   9.298  1.0910  1.4347  0.2206
   14CHL1   C23 1021   4.434   5.284   9.243  0.0454  1.0181 -1.2814
   14CHL1  H23A 1022   4.438   5.391   9.273  2.4888  0.2134  1.7323
   14CHL1  H23B 1023   4.536   5.242   9.261 -1.4196 -2.4972 -0.3673
   14CHL1   C24 1024   4.418   5.264   9.089  0.0273  0.6753 -0.0979
   14CHL1  H24A 1025   4.444   5.161   9.057  0.4019  1.3738 -2.2097
   14CHL1  H24B 1026   4.310   5.288   9.079  0.3176  2.6122  0.8903
   14CHL1   C25 1027   4.499   5.343   8.994 -0.2507 -0.6456  0.3403
   14CHL1   H25 1028   4.501   5.451   9.021  0.7536 -0.4224 -0.5365
   14CHL1   C26 1029   4.643   5.287   9.006  0.3320 -0.2215 -0.8781
   14CHL1  H26A 1030   4.678   5.303   9.110  1.4596 -0.8987 -1.1282
   14CHL1  H26B 1031   4.637   5.178   8.984 -3.6760 -0.3330  0.1249
   14CHL1  H26C 1032   4.720   5.341   8.946 -0.7888 -0.5579 -2.7091
   14CHL1   C27 1033   4.451   5.331   8.850  0.0500  0.1807  0.3114
   14CHL1  H27A 1034   4.469   5.234   8.799 -0.0593  0.1099  0.4054
   14CHL1  H27B 1035   4.341   5.345   8.839  0.6103  4.3715 -1.5143
   14CHL1  H27C 1036   4.499   5.412   8.791 -1.1390 -0.4786 -1.6843
   15CHL1    C3 1037   3.625   4.401  10.306  0.7984 -0.3972 -0.6866
   15CHL1    H3 1038   3.711   4.331  10.300  0.7263 -0.4000 -2.0413
   15CHL1    O3 1039   3.602   4.434  10.441  0.0114  0.2282 -0.0774
   15CHL1   H3' 1040   3.507   4.437  10.455  0.2794 -1.3073  2.8265
   15CHL1    C4 1041   3.645   4.531  10.231 -0.2109  0.3589  0.0117
   15CHL1   H4A 1042   3.555   4.592  10.251  0.4847  1.6715 -0.7194
   15CHL1   H4B 1043   3.731   4.586  10.276  0.4755 -1.4467  0.9936
   15CHL1    C5 1044   3.666   4.499  10.083 -0.2685 -0.2436 -0.1867
   15CHL1    C6 1045   3.783   4.526  10.031 -0.1319  0.0395  0.5673
   15CHL1    H6 1046   3.856   4.582  10.092 -0.7221  0.6121  0.7603
   15CHL1    C7 1047   3.821   4.484   9.895  0.0306  0.1120 -1.0892
   15CHL1   H7A 1048   3.871   4.572   9.848  0.2002  0.9447  0.5696
   15CHL1   H7B 1049   3.894   4.402   9.910 -0.3407  0.1905  1.7023
   15CHL1    C8 1050   3.705   4.438   9.807  0.4846 -0.2510  0.4459
   15CHL1    H8 1051   3.657   4.528   9.762  1.8507  0.3024  0.0595
   15CHL1   C14 1052   3.758   4.355   9.684 -0.0695  0.3063  0.0136
   15CHL1   H14 1053   3.782   4.256   9.728 -0.1328 -0.1501 -0.9554
   15CHL1   C15 1054   3.888   4.397   9.611 -0.1013 -0.4033  0.1569
   15CHL1  H15A 1055   3.905   4.507   9.605  1.0550 -0.6524 -2.0771
   15CHL1  H15B 1056   3.983   4.360   9.655  0.5595 -0.0824 -0.9636
   15CHL1   C16 1057   3.872   4.329   9.471  0.1346 -0.1491  0.5106
   15CHL1  H16A 1058   3.859   4.408   9.395  1.9022 -0.1889  0.1338
   15CHL1  H16B 1059   3.962   4.269   9.447 -0.3712 -0.8477  0.3015
   15CHL1   C17 1060   3.742   4.240   9.472 -0.8483 -0.2315  1.2059
   15CHL1   H17 1061   3.776   4.146   9.520 -1.2586 -2.4596 -2.4620
   15CHL1   C13 1062   3.654   4.313   9.581 -0.1667 -0.8136  0.3231
   15CHL1   C18 1063   3.601   4.439   9.510 -0.0213 -0.2165  0.1405
   15CHL1  H18A 1064   3.545   4.506   9.579 -1.9989 -3.9669  2.5000
   15CHL1  H18B 1065   3.679   4.498   9.456 -0.7979 -1.1897 -2.1777
   15CHL1  H18C 1066   3.533   4.408   9.428 -1.4105  1.4448  0.6001
   15CHL1   C12 1067   3.539   4.248   9.656  0.0238  0.6904  0.2878
   15CHL1  H12A 1068   3.446   4.221   9.601  0.2487  0.0581  0.2192
   15CHL1  H12B 1069   3.582   4.153   9.694 -0.8803 -0.4778 -1.4617
   15CHL1   C11 1070   3.487   4.314   9.787  0.9864  0.3805 -0.1201
   15CHL1  H11A 1071   3.446   4.414   9.759 -2.3748 -0.6391  0.7927
   15CHL1  H11B 1072   3.407   4.256   9.837  2.2567 -1.8641 -0.5470
   15CHL1    C9 1073   3.608   4.352   9.877 -1.0984  0.0234  0.6796
   15CHL1    H9 1074   3.661   4.257   9.900 -0.2220 -0.0109 -1.2582
   15CHL1   C10 1075   3.556   4.412  10.015 -0.1867 -0.2887  0.1923
   15CHL1   C19 1076   3.421   4.491   9.997  0.0215  0.2912 -0.2325
   15CHL1  H19A 1077   3.345   4.429   9.943 -1.3165  1.1078  0.6533
   15CHL1  H19B 1078   3.376   4.522  10.094  2.8659 -0.8281  1.5616
   15CHL1  H19C 1079   3.435   4.587   9.943 -1.1881  1.0930  0.8040
   15CHL1    C1 1080   3.525   4.291  10.109 -0.2502 -0.2579 -0.3466
   15CHL1   H1A 1081   3.433   4.245  10.067 -1.4768  0.9755  0.8818
   15CHL1   H1B 1082   3.600   4.209  10.112  0.4945  0.4373  0.8322
   15CHL1    C2 1083   3.501   4.328  10.256  0.5709 -0.4608 -0.0536
   15CHL1   H2A 1084   3.491   4.227  10.302 -0.4160 -1.0445 -1.4803
   15CHL1   H2B 1085   3.402   4.378  10.269  1.3863  1.4809 -0.9174
   15CHL1   C20 1086   3.686   4.203   9.336 -0.5290 -0.4104 -0.0265
   15CHL1   H20 1087   3.655   4.300   9.291 -0.2095  0.2232  1.0769
   15CHL1   C21 1088   3.573   4.105   9.347  0.3614 -0.3816 -0.4118
   15CHL1  H21A 1089   3.488   4.158   9.395  1.1665 -0.5245  1.2139
   15CHL1  H21B 1090   3.604   4.020   9.411 -1.0685 -2.7772 -2.6941
   15CHL1  H21C 1091   3.526   4.064   9.255 -2.1023 -1.6545  1.2842
   15CHL1   C22 1092   3.791   4.136   9.238 -0.2883 -0.4479  0.6135
   15CHL1  H22A 1093   3.877   4.207   9.232  0.1458 -1.0755 -3.0825
   15CHL1  H22B 1094   3.817   4.032   9.269 -0.4895 -1.3584 -1.9928
   15CHL1   C23 1095   3.732   4.122   9.096 -0.2804  0.1890  0.1816
   15CHL1  H23A 1096   3.654   4.043   9.092  1.5586 -1.7270  0.5868
   15CHL1  H23B 1097   3.673   4.215   9.080 -1.0975 -0.3123  0.2357
   15CHL1   C24 1098   3.833   4.100   8.981 -0.0073  0.2127 -0.7717
   15CHL1  H24A 1099   3.911   4.176   9.003 -1.1356  0.8479  1.3103
   15CHL1  H24B 1100   3.873   3.996   8.992 -0.9590 -0.2682 -1.6849
   15CHL1   C25 1101   3.774   4.109   8.839 -0.2527  0.0904  0.1195
   15CHL1   H25 1102   3.864   4.121   8.775  1.0853  1.1511  2.0700
   15CHL1   C26 1103   3.700   3.984   8.792  0.9317  0.3295  0.5193
   15CHL1  H26A 1104   3.677   3.987   8.683 -0.9981  2.3504  0.9178
   15CHL1  H26B 1105   3.744   3.887   8.824  0.7594  0.4946  1.2693
   15CHL1  H26C 1106   3.601   3.993   8.842  1.4671  3.2273  1.1909
   15CHL1   C27 1107   3.679   4.237   8.817  0.0154 -0.0777 -0.4937
   15CHL1  H27A 1108   3.635   4.230   8.715 -1.1470  0.2224 -0.0243
   15CHL1  H27B 1109   3.590   4.235   8.883 -1.3512  1.2953 -2.1990
   15CHL1  H27C 1110   3.737   4.332   8.818  1.1614 -0.7606 -0.9275
   16CHL1    C3 1111   4.477   3.784  10.255  0.0570 -0.2597  0.3860
   16CHL1    H3 1112   4.373   3.769  10.218 -0.7093  1.0864  1.8750
   16CHL1    O3 1113   4.478   3.789  10.394  0.3392  0.5289 -0.1264
   16CHL1   H3' 1114   4.429   3.711  10.420  2.3416 -0.2642  1.5683
   16CHL1    C4 1115   4.557   3.654  10.214  0.2624  0.3899  0.3291
   16CHL1   H4A 1116   4.659   3.650  10.258  0.4644  0.7562 -0.1145
   16CHL1   H4B 1117   4.494   3.568  10.247  0.2355  0.6706  1.0298
   16CHL1    C5 1118   4.561   3.663  10.064 -0.5243  0.3367  0.2885
   16CHL1    C6 1119   4.507   3.555   9.993 -0.0505 -0.0880 -0.2037
   16CHL1    H6 1120   4.467   3.469  10.048 -0.0463  1.1726  1.8609
   16CHL1    C7 1121   4.520   3.554   9.844 -0.2355 -0.4643  0.3814
   16CHL1   H7A 1122   4.543   3.454   9.799  0.0991  0.4580 -1.6207
   16CHL1   H7B 1123   4.418   3.580   9.809  0.8899  1.8479 -1.5176
   16CHL1    C8 1124   4.623   3.658   9.781  0.6399  0.7461  0.2940
   16CHL1    H8 1125   4.724   3.613   9.795  0.4512  0.0056 -0.6514
   16CHL1   C14 1126   4.590   3.679   9.633 -0.1981  0.0889  0.5628
   16CHL1   H14 1127   4.488   3.722   9.629 -1.8430 -3.4795 -1.7659
   16CHL1   C15 1128   4.573   3.554   9.538  0.8564 -0.7008 -0.5090
   16CHL1  H15A 1129   4.656   3.484   9.561  1.2287  0.4279  1.8167
   16CHL1  H15B 1130   4.471   3.514   9.556  0.4197 -0.4765 -2.2807
   16CHL1   C16 1131   4.580   3.612   9.393  0.1238  0.1370 -0.0221
   16CHL1  H16A 1132   4.648   3.555   9.326  0.4112 -1.2906  1.4360
   16CHL1  H16B 1133   4.478   3.606   9.350  0.1625  0.2320 -0.1266
   16CHL1   C17 1134   4.613   3.763   9.411 -0.1229  0.1459 -0.1435
   16CHL1   H17 1135   4.514   3.813   9.417  1.0205  2.7410 -1.1025
   16CHL1   C13 1136   4.677   3.774   9.548  0.3274  0.9215  0.1469
   16CHL1   C18 1137   4.819   3.710   9.537 -0.1366  0.0579  0.0840
   16CHL1  H18A 1138   4.858   3.681   9.637  0.1307  0.6453  0.1536
   16CHL1  H18B 1139   4.822   3.611   9.486 -0.9814  0.5719 -0.9995
   16CHL1  H18C 1140   4.890   3.773   9.479  1.0290 -1.0125  0.2927
   16CHL1   C12 1141   4.678   3.909   9.619 -1.0289 -0.6458 -0.2049
   16CHL1  H12A 1142   4.748   3.985   9.577 -1.5943  0.8048  1.3554
   16CHL1  H12B 1143   4.571   3.940   9.615 -1.4121 -1.6186  1.5492
   16CHL1   C11 1144   4.714   3.892   9.765  0.5134 -0.3194 -0.3903
   16CHL1  H11A 1145   4.818   3.858   9.786  0.0449 -2.5123 -1.3712
   16CHL1  H11B 1146   4.702   3.993   9.811 -0.3850 -0.3388 -0.5689
   16CHL1    C9 1147   4.618   3.790   9.841  0.4573 -0.1951  0.2515
   16CHL1    H9 1148   4.517   3.829   9.819 -0.2494 -1.4869  1.1191
   16CHL1   C10 1149   4.631   3.787   9.997  0.5052  0.5566  0.2217
   16CHL1   C19 1150   4.782   3.762  10.033 -0.4764  0.0268 -0.7890
   16CHL1  H19A 1151   4.795   3.749  10.143  0.8370 -1.3766 -1.0744
   16CHL1  H19B 1152   4.818   3.666   9.990  0.1377  0.3637 -1.0418
   16CHL1  H19C 1153   4.833   3.854   9.998 -0.5204  0.5014  0.3594
   16CHL1    C1 1154   4.553   3.914  10.048 -0.0829 -0.8641 -0.9081
   16CHL1   H1A 1155   4.616   4.005  10.033  0.1015 -0.7584  0.3790
   16CHL1   H1B 1156   4.450   3.933  10.013  0.4806  0.5244 -1.9194
   16CHL1    C2 1157   4.542   3.913  10.200  0.3044 -0.0382 -0.6198
   16CHL1   H2A 1158   4.486   4.002  10.236  1.7653  0.9395 -0.6941
   16CHL1   H2B 1159   4.647   3.919  10.235  0.2028 -2.3212  0.2408
   16CHL1   C20 1160   4.680   3.817   9.289  0.0120 -0.1990 -0.1637
   16CHL1   H20 1161   4.780   3.770   9.290 -0.2113 -0.7928 -1.9567
   16CHL1   C21 1162   4.679   3.966   9.301 -0.2773  0.1832 -0.5523
   16CHL1  H21A 1163   4.584   4.013   9.332 -0.5004  0.9696 -2.3148
   16CHL1  H21B 1164   4.709   4.001   9.200 -0.7774 -0.6543 -1.0032
   16CHL1  H21C 1165   4.759   4.001   9.370 -0.5045  0.8549 -0.6294
   16CHL1   C22 1166   4.599   3.771   9.157 -0.1125 -0.9229 -1.0747
   16CHL1  H22A 1167   4.583   3.661   9.151  0.7298 -1.0276 -1.5619
   16CHL1  H22B 1168   4.491   3.792   9.167 -0.0395 -1.0468  0.0609
   16CHL1   C23 1169   4.645   3.826   9.018 -0.4012 -0.3426  0.2047
   16CHL1  H23A 1170   4.570   3.902   8.987  1.7295  1.2372 -1.3462
   16CHL1  H23B 1171   4.751   3.858   9.015 -0.1493 -1.1412  0.2762
   16CHL1   C24 1172   4.630   3.719   8.904 -0.0813  0.7502 -0.0334
   16CHL1  H24A 1173   4.704   3.638   8.916  1.5242  2.0872 -0.4941
   16CHL1  H24B 1174   4.523   3.691   8.909 -0.9017  3.3255 -1.4236
   16CHL1   C25 1175   4.658   3.775   8.758  0.2711 -0.5888 -0.1195
   16CHL1   H25 1176   4.758   3.822   8.762 -0.6739  1.4268  1.0563
   16CHL1   C26 1177   4.648   3.665   8.652 -0.0562  0.7191  0.1365
   16CHL1  H26A 1178   4.544   3.625   8.647  0.7151 -1.3271 -0.2928
   16CHL1  H26B 1179   4.679   3.708   8.554  1.6755  0.8344  0.6957
   16CHL1  H26C 1180   4.711   3.578   8.681 -0.5328  0.3651  0.1242
   16CHL1   C27 1181   4.555   3.878   8.717 -0.0705 -0.6802 -0.0027
   16CHL1  H27A 1182   4.452   3.837   8.726 -0.7494  1.0457  0.6814
   16CHL1  H27B 1183   4.557   3.968   8.782  0.1971 -1.0758  0.5410
   16CHL1  H27C 1184   4.565   3.916   8.613  0.4895  1.8963  0.9249
   17CHL1    C3 1185   6.468   0.645  10.388  0.3233 -0.2575 -0.4784
   17CHL1    H3 1186   6.557   0.578  10.378  0.4219 -0.0520 -1.0079
   17CHL1    O3 1187   6.449   0.673  10.523 -0.4495 -0.2101 -0.0175
   17CHL1   H3' 1188   6.371   0.729  10.521  0.8484  1.6731 -1.1832
   17CHL1    C4 1189   6.499   0.771  10.312  0.1432 -0.8820  0.2234
   17CHL1   H4A 1190   6.425   0.848  10.342 -0.0551 -0.7623 -0.5643
   17CHL1   H4B 1191   6.597   0.812  10.346 -0.1961 -0.4667  0.7046
   17CHL1    C5 1192   6.494   0.746  10.161  0.5472  0.2820  0.4089
   17CHL1    C6 1193   6.600   0.780  10.085 -0.0037 -0.8462  0.5320
   17CHL1    H6 1194   6.693   0.815  10.132  0.3500 -0.5528 -0.3768
   17CHL1    C7 1195   6.592   0.777   9.929  0.5849  0.5806 -0.1568
   17CHL1   H7A 1196   6.651   0.862   9.888  1.5056  1.5056  2.8019
   17CHL1   H7B 1197   6.652   0.691   9.891  1.9000  1.0198  0.8181
   17CHL1    C8 1198   6.451   0.769   9.875 -0.0317 -0.4938  0.2205
   17CHL1    H8 1199   6.403   0.869   9.883 -0.9684 -0.8975 -0.2465
   17CHL1   C14 1200   6.455   0.725   9.731 -0.7169  0.0288 -0.1907
   17CHL1   H14 1201   6.498   0.623   9.731  1.6020  0.9565  0.1176
   17CHL1   C15 1202   6.561   0.802   9.634  0.2096 -0.3031 -0.2213
   17CHL1  H15A 1203   6.559   0.906   9.670  0.4844  0.1223 -1.3811
   17CHL1  H15B 1204   6.665   0.761   9.643  0.1237 -0.6862 -0.8598
   17CHL1   C16 1205   6.505   0.795   9.493  0.1721  0.1715 -0.6425
   17CHL1  H16A 1206   6.475   0.897   9.465  0.7044  0.3726 -0.4970
   17CHL1  H16B 1207   6.578   0.755   9.419  1.8870 -0.7645  1.4255
   17CHL1   C17 1208   6.375   0.703   9.509  0.2511  0.8175  1.0950
   17CHL1   H17 1209   6.394   0.594   9.498 -0.3872  0.8285 -0.2460
   17CHL1   C13 1210   6.325   0.726   9.655 -1.1827  0.1983 -0.2139
   17CHL1   C18 1211   6.253   0.859   9.656 -0.1707  0.1820  0.2560
   17CHL1  H18A 1212   6.303   0.950   9.618 -1.2599  1.0038  0.7329
   17CHL1  H18B 1213   6.160   0.855   9.595 -0.5773 -1.5313  0.9277
   17CHL1  H18C 1214   6.229   0.893   9.759  1.7965  0.2063  0.7364
   17CHL1   C12 1215   6.240   0.616   9.730 -1.1848 -0.4621  0.4964
   17CHL1  H12A 1216   6.136   0.617   9.690 -1.1753 -0.2883  0.4768
   17CHL1  H12B 1217   6.288   0.520   9.705 -0.0262  0.5267 -1.2455
   17CHL1   C11 1218   6.227   0.635   9.884  0.0416  0.0223 -0.1758
   17CHL1  H11A 1219   6.151   0.714   9.904  1.4423  1.1920  0.7177
   17CHL1  H11B 1220   6.196   0.537   9.925  2.9144 -0.2779  1.5577
   17CHL1    C9 1221   6.364   0.670   9.956 -0.4931 -0.5708  0.0352
   17CHL1    H9 1222   6.421   0.576   9.942  1.3239  0.7387 -2.1099
   17CHL1   C10 1223   6.361   0.701  10.105 -0.1174  0.0831  0.4260
   17CHL1   C19 1224   6.255   0.812  10.138 -0.0121  0.6169  0.4441
   17CHL1  H19A 1225   6.158   0.766  10.112  0.2803  0.4953 -0.4537
   17CHL1  H19B 1226   6.251   0.850  10.243 -1.6500  0.9170  0.3033
   17CHL1  H19C 1227   6.273   0.897  10.068 -0.0410 -1.1257 -1.7836
   17CHL1    C1 1228   6.321   0.575  10.189 -0.2817 -0.0183  0.2931
   17CHL1   H1A 1229   6.216   0.542  10.174  0.0844 -0.8459 -0.5622
   17CHL1   H1B 1230   6.378   0.485  10.159 -0.2253 -0.4042  1.5342
   17CHL1    C2 1231   6.336   0.592  10.345  0.5589 -0.0842  0.3032
   17CHL1   H2A 1232   6.319   0.490  10.385  0.2313  0.2134  0.9328
   17CHL1   H2B 1233   6.249   0.656  10.374  0.4239  0.2959 -0.8756
   17CHL1   C20 1234   6.275   0.736   9.394 -0.5217  0.6774  0.2936
   17CHL1   H20 1235   6.249   0.844   9.400 -1.2008  0.4688  1.2457
   17CHL1   C21 1236   6.140   0.662   9.405  0.1585  0.4662 -0.5420
   17CHL1  H21A 1237   6.069   0.697   9.327 -0.0371 -0.1943 -0.6678
   17CHL1  H21B 1238   6.094   0.677   9.505 -0.6777  0.0813 -0.8637
   17CHL1  H21C 1239   6.151   0.554   9.382 -3.7161 -0.0240 -0.6905
   17CHL1   C22 1240   6.345   0.718   9.256  0.1355 -0.2640 -0.0301
   17CHL1  H22A 1241   6.424   0.793   9.232 -0.6627 -0.0274 -2.1386
   17CHL1  H22B 1242   6.385   0.614   9.265 -2.9264 -1.6476 -1.0232
   17CHL1   C23 1243   6.252   0.715   9.138 -0.4139 -0.4809  0.1708
   17CHL1  H23A 1244   6.184   0.627   9.143  0.7732 -1.3815  1.1723
   17CHL1  H23B 1245   6.197   0.812   9.141 -4.1640 -2.3911  4.1788
   17CHL1   C24 1246   6.322   0.711   8.999 -0.1874 -0.7378 -1.1656
   17CHL1  H24A 1247   6.414   0.772   9.000  0.3083 -1.4472  0.7394
   17CHL1  H24B 1248   6.367   0.613   8.972  1.7646 -0.4543  0.8024
   17CHL1   C25 1249   6.225   0.765   8.886 -0.8287  0.3941 -0.4466
   17CHL1   H25 1250   6.181   0.862   8.920  1.1686  1.9054 -1.9645
   17CHL1   C26 1251   6.297   0.783   8.748  0.6800  0.3313 -0.3096
   17CHL1  H26A 1252   6.365   0.868   8.768  0.8175  0.0363  0.5090
   17CHL1  H26B 1253   6.348   0.688   8.721 -0.2841 -0.1294 -0.5493
   17CHL1  H26C 1254   6.240   0.827   8.663  0.9407 -0.6580 -1.0169
   17CHL1   C27 1255   6.104   0.675   8.859 -0.3097 -0.1528  0.4129
   17CHL1  H27A 1256   6.052   0.725   8.775  0.8531  0.8065  0.2321
   17CHL1  H27B 1257   6.130   0.570   8.833  0.5420 -0.1380  1.1414
   17CHL1  H27C 1258   6.037   0.681   8.947 -0.1886  1.4381  0.4313
   18CHL1    C3 1259   4.072   0.102  10.384  0.0324 -0.8944  0.2893
   18CHL1    H3 1260   4.133   0.192  10.362  1.3223 -2.2953 -2.3367
   18CHL1    O3 1261   4.073   0.078  10.531 -0.6360 -0.5366  0.2838
   18CHL1   H3' 1262   4.002   0.014  10.540 -1.8829  1.0350  2.3522
   18CHL1    C4 1263   3.929   0.147  10.346  0.1153  0.5579  0.1053
   18CHL1   H4A 1264   3.856   0.075  10.388 -0.1549  1.6530  1.6132
   18CHL1   H4B 1265   3.922   0.244  10.399  0.8901  0.0615  1.1901
   18CHL1    C5 1266   3.916   0.168  10.199 -0.1311 -0.3692 -0.1219
   18CHL1    C6 1267   3.879   0.282  10.151 -0.0485 -0.4241  0.9835
   18CHL1    H6 1268   3.860   0.372  10.212  1.6771  0.1703  0.6862
   18CHL1    C7 1269   3.860   0.312  10.003  0.1555 -0.3627 -0.5172
   18CHL1   H7A 1270   3.777   0.383   9.988  1.5533  1.0477 -1.9494
   18CHL1   H7B 1271   3.952   0.360   9.962  0.8874 -0.4681  0.9288
   18CHL1    C8 1272   3.843   0.175   9.921  0.2734  0.7333  0.4565
   18CHL1    H8 1273   3.741   0.135   9.938 -0.1054  1.5842  0.2559
   18CHL1   C14 1274   3.862   0.207   9.776 -1.1698 -0.5828  0.1026
   18CHL1   H14 1275   3.966   0.245   9.770 -1.4738  1.2530  3.8729
   18CHL1   C15 1276   3.778   0.315   9.712  0.1524  0.5330  0.4950
   18CHL1  H15A 1277   3.680   0.302   9.762  0.7832 -0.7136  1.4627
   18CHL1  H15B 1278   3.812   0.417   9.742  2.7044 -0.2118  0.3750
   18CHL1   C16 1279   3.784   0.287   9.564 -0.2021  0.3437  0.6703
   18CHL1  H16A 1280   3.688   0.271   9.510  0.3634  0.7938 -0.5199
   18CHL1  H16B 1281   3.842   0.364   9.507 -1.0202 -0.4162 -1.2896
   18CHL1   C17 1282   3.867   0.152   9.552 -0.4999  0.4471  1.0244
   18CHL1   H17 1283   3.974   0.182   9.549 -0.4030  0.0267 -0.3741
   18CHL1   C13 1284   3.858   0.081   9.689  0.0755  0.0638  0.4512
   18CHL1   C18 1285   3.723   0.005   9.706  0.2742  0.9705  0.0297
   18CHL1  H18A 1286   3.719  -0.076   9.631  1.0233 -0.1346  1.1345
   18CHL1  H18B 1287   3.718  -0.045   9.805 -1.7482  0.2296 -0.4055
   18CHL1  H18C 1288   3.638   0.075   9.696  0.8032  1.6040 -0.1265
   18CHL1   C12 1289   3.971  -0.012   9.726  0.7637  0.1951 -0.0748
   18CHL1  H12A 1290   3.965  -0.108   9.669 -0.6306  0.1129  0.1566
   18CHL1  H12B 1291   4.059   0.039   9.682 -0.3215  0.7250 -1.7501
   18CHL1   C11 1292   3.974  -0.048   9.867  0.3763  0.0203  0.1101
   18CHL1  H11A 1293   3.888  -0.118   9.878 -0.4081  0.6202 -1.7727
   18CHL1  H11B 1294   4.061  -0.114   9.887  1.1293  0.3003 -1.9716
   18CHL1    C9 1295   3.950   0.073   9.959 -0.0837  0.5496 -0.0093
   18CHL1    H9 1296   4.047   0.125   9.944 -1.1057  1.7134 -3.5372
   18CHL1   C10 1297   3.949   0.043  10.114 -0.3071 -0.3514  0.1075
   18CHL1   C19 1298   3.837  -0.066  10.137 -0.0617  0.0232  0.0369
   18CHL1  H19A 1299   3.854  -0.156  10.075  0.8475  0.2259 -0.0209
   18CHL1  H19B 1300   3.847  -0.101  10.242 -1.3126 -0.9861 -0.1628
   18CHL1  H19C 1301   3.734  -0.034  10.111 -0.4630 -0.7906  0.5757
   18CHL1    C1 1302   4.100  -0.003  10.149  0.1095 -0.1221 -0.7803
   18CHL1   H1A 1303   4.116  -0.101  10.100 -0.8875 -0.2234 -0.9186
   18CHL1   H1B 1304   4.170   0.079  10.123  0.7897 -0.0900  0.9592
   18CHL1    C2 1305   4.113  -0.019  10.302  0.1993 -0.3605  0.6346
   18CHL1   H2A 1306   4.216  -0.050  10.331  1.4131  2.6683 -0.0936
   18CHL1   H2B 1307   4.050  -0.105  10.333  0.6995 -0.7860  0.4915
   18CHL1   C20 1308   3.827   0.085   9.411 -0.4593  0.4133  0.2980
   18CHL1   H20 1309   3.721   0.056   9.424 -0.0066 -1.3744  0.3098
   18CHL1   C21 1310   3.924  -0.038   9.393  0.0333 -0.5654  0.1783
   18CHL1  H21A 1311   3.899  -0.095   9.301  1.2620  1.5047 -1.5177
   18CHL1  H21B 1312   3.921  -0.111   9.477  0.2579 -2.2839 -1.2401
   18CHL1  H21C 1313   4.027   0.002   9.380 -0.2287  0.7818  1.8379
   18CHL1   C22 1314   3.846   0.173   9.288  0.1513 -0.6255 -0.3815
   18CHL1  H22A 1315   3.784   0.265   9.300 -0.7525 -1.3559  0.7982
   18CHL1  H22B 1316   3.953   0.203   9.284  0.0668  0.5010  2.8048
   18CHL1   C23 1317   3.798   0.115   9.159 -0.2770 -0.0921  0.0705
   18CHL1  H23A 1318   3.861   0.032   9.121  1.9746  1.6329 -0.1717
   18CHL1  H23B 1319   3.696   0.080   9.184 -0.9418  1.7359  0.0765
   18CHL1   C24 1320   3.802   0.213   9.045  0.0804 -0.8504 -0.1452
   18CHL1  H24A 1321   3.762   0.307   9.087  0.3756 -0.5407 -0.5535
   18CHL1  H24B 1322   3.908   0.237   9.023  0.3101 -1.4211  0.2950
   18CHL1   C25 1323   3.728   0.179   8.916 -0.5853  1.1494  0.3234
   18CHL1   H25 1324   3.747   0.074   8.887  1.7404  2.1803 -2.3575
   18CHL1   C26 1325   3.577   0.196   8.932  0.4554  0.6892  0.3073
   18CHL1  H26A 1326   3.533   0.137   9.016  0.7471 -0.8865 -0.6132
   18CHL1  H26B 1327   3.557   0.305   8.945  2.2258  1.2052 -1.0012
   18CHL1  H26C 1328   3.526   0.163   8.839  0.5324 -1.5451  0.9984
   18CHL1   C27 1329   3.786   0.253   8.795  0.6997  0.6486 -0.1441
   18CHL1  H27A 1330   3.754   0.358   8.813 -1.4700  0.3014 -1.6367
   18CHL1  H27B 1331   3.896   0.248   8.789  0.6124 -0.8035 -1.1579
   18CHL1  H27C 1332   3.757   0.212   8.696  1.9561 -0.0026 -0.2570
   19CHL1    C3 1333   2.874   3.519  10.179  0.0109  0.3807 -0.1917
   19CHL1    H3 1334   2.890   3.629  10.176 -0.5413  0.4748  0.2022
   19CHL1    O3 1335   2.889   3.463  10.302  0.4626 -0.3582 -0.5010
   19CHL1   H3' 1336   2.816   3.402  10.316  0.9745 -0.9528 -0.3362
   19CHL1    C4 1337   2.735   3.487  10.125  0.1716 -0.1111 -0.0743
   19CHL1   H4A 1338   2.701   3.384  10.146  0.7636 -0.5530 -1.1722
   19CHL1   H4B 1339   2.659   3.551  10.174  0.5403  0.4053 -0.1659
   19CHL1    C5 1340   2.727   3.501   9.971  0.5416 -0.7144  0.0602
   19CHL1    C6 1341   2.632   3.572   9.908  0.2696 -0.2750 -0.2380
   19CHL1    H6 1342   2.569   3.632   9.975  0.6174 -0.1144 -0.0503
   19CHL1    C7 1343   2.613   3.590   9.763  0.0624  0.4506  0.0014
   19CHL1   H7A 1344   2.509   3.563   9.735 -0.0669  1.4581 -0.5450
   19CHL1   H7B 1345   2.613   3.698   9.736 -0.7291  0.7582  1.1506
   19CHL1    C8 1346   2.698   3.495   9.681 -0.0961  0.0919  0.2370
   19CHL1    H8 1347   2.655   3.392   9.689 -1.4648  0.2541 -3.3666
   19CHL1   C14 1348   2.714   3.560   9.544  0.6771  0.2733  0.1804
   19CHL1   H14 1349   2.778   3.649   9.564  1.0977  0.0337 -0.0882
   19CHL1   C15 1350   2.580   3.609   9.480  0.3846 -0.6280  0.2185
   19CHL1  H15A 1351   2.495   3.540   9.497  0.2715  0.2448  4.0842
   19CHL1  H15B 1352   2.564   3.708   9.526  0.3648 -1.9086  3.2080
   19CHL1   C16 1353   2.625   3.624   9.336  0.7435 -0.8941 -0.3744
   19CHL1  H16A 1354   2.562   3.551   9.281 -1.1702  0.4001  0.0089
   19CHL1  H16B 1355   2.613   3.726   9.294 -0.4164 -0.0555  1.8455
   19CHL1   C17 1356   2.765   3.564   9.316 -0.2781  0.2873 -0.2667
   19CHL1   H17 1357   2.840   3.645   9.324  1.2935 -1.2078  0.7296
   19CHL1   C13 1358   2.790   3.475   9.437  0.1258  0.0388  0.0521
   19CHL1   C18 1359   2.714   3.338   9.425  0.3425 -0.1691 -0.0902
   19CHL1  H18A 1360   2.611   3.350   9.385  0.1158 -0.0515  0.5188
   19CHL1  H18B 1361   2.759   3.272   9.348 -0.4697  0.9969 -1.6103
   19CHL1  H18C 1362   2.731   3.279   9.518  0.7838  2.0968  1.3337
   19CHL1   C12 1363   2.936   3.458   9.492  0.6011 -0.1489  0.2964
   19CHL1  H12A 1364   2.992   3.391   9.423 -1.6856 -1.2907 -0.5648
   19CHL1  H12B 1365   2.995   3.550   9.478 -3.3273  2.4465 -1.0499
   19CHL1   C11 1366   2.939   3.412   9.638 -0.2946 -0.2317 -0.0539
   19CHL1  H11A 1367   2.911   3.306   9.617 -2.7181  0.6957 -2.0421
   19CHL1  H11B 1368   3.045   3.416   9.671  0.0918  3.3552 -1.2836
   19CHL1    C9 1369   2.844   3.483   9.736  0.2965 -0.3943 -0.6995
   19CHL1    H9 1370   2.876   3.590   9.737  0.9206 -0.5790  0.1876
   19CHL1   C10 1371   2.842   3.438   9.886 -0.3414 -0.1709  0.2611
   19CHL1   C19 1372   2.820   3.287   9.900  0.7690  1.4345  0.4144
   19CHL1  H19A 1373   2.902   3.229   9.853 -0.1407 -0.9695  1.6549
   19CHL1  H19B 1374   2.810   3.248  10.003 -0.4757 -4.1466 -1.4807
   19CHL1  H19C 1375   2.734   3.260   9.835  0.8547  1.0931  0.4430
   19CHL1    C1 1376   2.978   3.475   9.949 -0.1915 -0.3871  0.2532
   19CHL1   H1A 1377   3.062   3.419   9.903  1.1290 -0.2484  2.3357
   19CHL1   H1B 1378   2.996   3.581   9.921  2.5014 -1.4281 -2.4305
   19CHL1    C2 1379   2.993   3.452  10.096 -0.1883  0.8790  0.2874
   19CHL1   H2A 1380   3.092   3.492  10.130  0.4929 -1.6450  1.4825
   19CHL1   H2B 1381   2.985   3.343  10.114 -1.1232  0.1725 -3.5629
   19CHL1   C20 1382   2.779   3.502   9.172  0.0305  0.0855 -0.2640
   19CHL1   H20 1383   2.712   3.414   9.167  2.3860 -1.8758  0.5497
   19CHL1   C21 1384   2.917   3.443   9.152 -0.5475 -0.0299 -0.0498
   19CHL1  H21A 1385   2.923   3.385   9.057 -2.5489 -0.9847  0.3452
   19CHL1  H21B 1386   2.935   3.375   9.238 -0.4891  0.8726  0.6560
   19CHL1  H21C 1387   2.994   3.522   9.160 -2.1574  1.5990 -0.0753
   19CHL1   C22 1388   2.742   3.605   9.058 -0.6349  0.0944 -0.1676
   19CHL1  H22A 1389   2.631   3.617   9.055 -0.6652 -0.2399 -2.1850
   19CHL1  H22B 1390   2.794   3.702   9.073  0.3348 -0.4420 -0.0013
   19CHL1   C23 1391   2.766   3.563   8.912  0.5059  0.3503 -0.5821
   19CHL1  H23A 1392   2.871   3.584   8.883  0.3238 -0.6520 -2.0828
   19CHL1  H23B 1393   2.768   3.452   8.905  2.1839  0.2012  1.2596
   19CHL1   C24 1394   2.668   3.629   8.818 -0.4496  0.2018 -0.4974
   19CHL1  H24A 1395   2.571   3.591   8.856 -0.1211  0.8173  1.0338
   19CHL1  H24B 1396   2.661   3.738   8.837  4.1822  0.3846  1.6980
   19CHL1   C25 1397   2.674   3.588   8.678 -0.2485 -0.2714  0.1560
   19CHL1   H25 1398   2.773   3.594   8.627 -0.5302 -2.0946 -0.7251
   19CHL1   C26 1399   2.622   3.443   8.642 -0.5912 -0.1631 -0.4957
   19CHL1  H26A 1400   2.627   3.431   8.531  0.7699 -2.5285 -0.2458
   19CHL1  H26B 1401   2.687   3.371   8.694  1.2283  1.0490 -0.9854
   19CHL1  H26C 1402   2.520   3.423   8.683 -0.5100  0.3676 -0.0243
   19CHL1   C27 1403   2.591   3.694   8.591  0.0070 -0.3367 -0.3463
   19CHL1  H27A 1404   2.613   3.680   8.483  2.4784 -0.8347  0.1696
   19CHL1  H27B 1405   2.483   3.674   8.610  0.0514  0.4246  0.7501
   19CHL1  H27C 1406   2.611   3.800   8.619  1.5862 -0.5253 -0.7058
   20CHL1    C3 1407   5.887   5.063  10.479  0.2858  0.5593  0.3131
   20CHL1    H3 1408   5.788   5.015  10.466  0.2357  0.4188  1.1401
   20CHL1    O3 1409   5.916   5.064  10.617  0.1789 -0.0489 -0.2071
   20CHL1   H3' 1410   6.007   5.094  10.621  0.7778 -1.7933  0.1297
   20CHL1    C4 1411   5.991   4.963  10.409  0.2190  0.0816 -0.4536
   20CHL1   H4A 1412   6.090   5.009  10.432  1.4062 -1.9522 -1.2228
   20CHL1   H4B 1413   5.985   4.867  10.466 -0.9570 -0.4473 -1.4263
   20CHL1    C5 1414   5.963   4.952  10.261 -0.2283  0.4509 -0.5309
   20CHL1    C6 1415   5.924   4.827  10.214  0.6198 -0.7122 -0.5507
   20CHL1    H6 1416   5.923   4.733  10.271 -2.0518 -1.4293 -1.6187
   20CHL1    C7 1417   5.898   4.800  10.073 -0.3814  0.2234  0.0051
   20CHL1   H7A 1418   5.961   4.713  10.046  1.6038  1.8118 -0.7002
   20CHL1   H7B 1419   5.790   4.773  10.069 -0.3820  0.3466 -1.6539
   20CHL1    C8 1420   5.934   4.926   9.986  0.1990 -0.5848 -0.4961
   20CHL1    H8 1421   6.043   4.924   9.963  0.4907  0.9956  0.6168
   20CHL1   C14 1422   5.856   4.918   9.853  0.3865  0.0314  0.6912
   20CHL1   H14 1423   5.747   4.927   9.872  0.1436  2.8228 -1.3424
   20CHL1   C15 1424   5.864   4.783   9.780  0.0729  0.1926  0.2036
   20CHL1  H15A 1425   5.969   4.747   9.777 -0.6205 -2.0046 -2.2988
   20CHL1  H15B 1426   5.801   4.706   9.830 -1.1559  0.8941 -0.2264
   20CHL1   C16 1427   5.820   4.817   9.639 -0.1233  0.2177 -0.5632
   20CHL1  H16A 1428   5.901   4.800   9.564  0.1882  0.9428 -0.3953
   20CHL1  H16B 1429   5.730   4.760   9.606  1.3275 -1.7793 -1.2806
   20CHL1   C17 1430   5.799   4.975   9.636  0.8671 -0.5792  1.0728
   20CHL1   H17 1431   5.690   4.987   9.655  1.0613 -1.1282  2.6598
   20CHL1   C13 1432   5.881   5.027   9.755  0.1389  0.5975  0.5813
   20CHL1   C18 1433   6.033   5.029   9.712  0.1936  0.1423  0.2217
   20CHL1  H18A 1434   6.106   5.041   9.796  0.8088  1.2518 -0.4542
   20CHL1  H18B 1435   6.066   4.939   9.655 -0.3913 -0.0859  0.2330
   20CHL1  H18C 1436   6.033   5.123   9.653 -3.4712 -0.1711 -0.5155
   20CHL1   C12 1437   5.837   5.156   9.825 -0.4354  0.7189 -0.3937
   20CHL1  H12A 1438   5.851   5.243   9.759 -0.8601  1.4325  0.4330
   20CHL1  H12B 1439   5.726   5.152   9.835 -0.3253 -1.0011  0.7770
   20CHL1   C11 1440   5.908   5.178   9.960 -0.2299 -0.2427  0.0645
   20CHL1  H11A 1441   6.014   5.200   9.938  0.0412 -1.8957 -0.4559
   20CHL1  H11B 1442   5.861   5.265  10.010 -0.1177  0.7957 -1.5367
   20CHL1    C9 1443   5.899   5.059  10.055  0.2942 -0.1928  0.7446
   20CHL1    H9 1444   5.788   5.053  10.060  0.1734  0.1044 -0.9459
   20CHL1   C10 1445   5.961   5.086  10.193 -0.8497 -0.0921 -0.1306
   20CHL1   C19 1446   6.116   5.135  10.171 -0.3959  0.4813  0.7107
   20CHL1  H19A 1447   6.158   5.048  10.116 -1.3903 -0.2608  1.0903
   20CHL1  H19B 1448   6.114   5.234  10.120 -2.5666 -1.0445 -2.5371
   20CHL1  H19C 1449   6.166   5.155  10.268  0.2369 -0.2133  0.5342
   20CHL1    C1 1450   5.877   5.198  10.270  0.6988 -0.1701  0.2380
   20CHL1   H1A 1451   5.891   5.298  10.223 -0.5400  1.5200  3.1808
   20CHL1   H1B 1452   5.773   5.170  10.245 -0.2777  1.2476  2.3895
   20CHL1    C2 1453   5.895   5.208  10.424 -0.4700 -0.5943 -0.3885
   20CHL1   H2A 1454   5.816   5.269  10.473  0.1498  0.1452 -0.2913
   20CHL1   H2B 1455   5.991   5.263  10.439 -1.3881  1.5155 -1.7249
   20CHL1   C20 1456   5.830   5.037   9.497  0.0887  0.6704  0.3644
   20CHL1   H20 1457   5.934   5.017   9.465 -0.5348 -1.8270 -0.2955
   20CHL1   C21 1458   5.814   5.192   9.495  0.4489  0.6299  0.5189
   20CHL1  H21A 1459   5.714   5.218   9.536  0.6160  2.4129 -0.0829
   20CHL1  H21B 1460   5.825   5.231   9.391 -0.3382  1.0147  0.5748
   20CHL1  H21C 1461   5.886   5.247   9.559  0.6267 -0.0461  0.9031
   20CHL1   C22 1462   5.738   4.974   9.392  0.3545  0.3653 -0.1840
   20CHL1  H22A 1463   5.732   4.863   9.394 -0.5118  0.3127 -2.3099
   20CHL1  H22B 1464   5.633   4.998   9.418 -0.0041  0.8428 -1.8953
   20CHL1   C23 1465   5.772   5.014   9.244 -0.3666 -0.4000 -0.3348
   20CHL1  H23A 1466   5.756   5.121   9.221 -0.4366 -0.9070 -2.9819
   20CHL1  H23B 1467   5.875   4.985   9.215 -0.7968 -0.5359 -1.7987
   20CHL1   C24 1468   5.663   4.965   9.146 -0.5614  0.9482 -0.1547
   20CHL1  H24A 1469   5.669   4.855   9.153  0.0726  0.9795 -0.0893
   20CHL1  H24B 1470   5.562   4.995   9.181 -0.9354 -0.5925  0.1287
   20CHL1   C25 1471   5.676   5.000   8.995  0.1030 -0.9102  0.1862
   20CHL1   H25 1472   5.648   5.108   8.989  1.2824 -0.4393  2.3559
   20CHL1   C26 1473   5.817   4.987   8.948  0.3154 -0.2382 -0.2346
   20CHL1  H26A 1474   5.825   4.990   8.837  1.7146  0.3381 -0.1360
   20CHL1  H26B 1475   5.881   5.069   8.986 -1.2579  1.1345 -0.4563
   20CHL1  H26C 1476   5.860   4.892   8.986  1.2098  1.0135  2.0452
   20CHL1   C27 1477   5.597   4.905   8.907  0.3962 -0.1832 -0.7556
   20CHL1  H27A 1478   5.604   4.926   8.798 -2.9402 -1.3113 -1.3054
   20CHL1  H27B 1479   5.638   4.802   8.920  1.8424  0.3885 -0.6393
   20CHL1  H27C 1480   5.489   4.911   8.931  0.6640  0.4915  0.3552
   21CHL1    C3 1481   4.447   0.263  10.383 -1.2006 -0.4350  0.9786
   21CHL1    H3 1482   4.347   0.223  10.409 -1.4347  0.6898  1.9265
   21CHL1    O3 1483   4.515   0.264  10.504 -0.1911  0.4758 -0.1378
   21CHL1   H3' 1484   4.482   0.340  10.553  0.1503  0.5275  0.0150
   21CHL1    C4 1485   4.520   0.180  10.275 -0.0863  0.1587  0.2287
   21CHL1   H4A 1486   4.630   0.197  10.278 -0.0342 -0.3638  1.7175
   21CHL1   H4B 1487   4.521   0.070  10.292  0.4593  0.0758 -0.2761
   21CHL1    C5 1488   4.467   0.209  10.137  0.1204 -0.3982 -0.6414
   21CHL1    C6 1489   4.437   0.106  10.058 -0.1358  0.8044 -0.4551
   21CHL1    H6 1490   4.451   0.005  10.099  0.7634  1.0040 -0.2454
   21CHL1    C7 1491   4.374   0.116   9.920 -0.3735  0.4360  0.1064
   21CHL1   H7A 1492   4.445   0.056   9.859  4.0207  3.9311  1.1688
   21CHL1   H7B 1493   4.269   0.083   9.915 -0.1706 -0.3368  0.7694
   21CHL1    C8 1494   4.385   0.259   9.861 -0.0477  0.4324  0.4642
   21CHL1    H8 1495   4.492   0.267   9.832 -0.0905  1.1372  0.4697
   21CHL1   C14 1496   4.309   0.273   9.734  0.1592  0.0927  0.1430
   21CHL1   H14 1497   4.206   0.239   9.757  0.2996 -0.2581  0.2707
   21CHL1   C15 1498   4.336   0.192   9.608  0.4551  0.1466  0.0766
   21CHL1  H15A 1499   4.445   0.184   9.594  1.1407 -1.0729  4.4699
   21CHL1  H15B 1500   4.296   0.090   9.628  1.0538 -0.2576 -0.7476
   21CHL1   C16 1501   4.260   0.259   9.484 -0.2799 -0.3794 -0.6576
   21CHL1  H16A 1502   4.345   0.287   9.419 -1.1683 -0.3834 -1.8637
   21CHL1  H16B 1503   4.176   0.215   9.426 -1.6608  1.1681  0.0607
   21CHL1   C17 1504   4.221   0.399   9.546  0.2253  0.5010 -0.3595
   21CHL1   H17 1505   4.115   0.394   9.577 -0.1534  1.4666 -1.4133
   21CHL1   C13 1506   4.301   0.411   9.679 -0.0537  0.8567 -0.2470
   21CHL1   C18 1507   4.451   0.460   9.648  0.6194 -0.1637 -0.4399
   21CHL1  H18A 1508   4.498   0.408   9.562 -0.3727 -2.1700  0.1784
   21CHL1  H18B 1509   4.448   0.567   9.619  0.7651 -0.4025 -1.3565
   21CHL1  H18C 1510   4.519   0.437   9.732  1.4320 -1.0601 -1.3193
   21CHL1   C12 1511   4.238   0.500   9.785  0.4501 -0.2124  0.4124
   21CHL1  H12A 1512   4.221   0.603   9.747  0.2559 -0.0352  0.9692
   21CHL1  H12B 1513   4.135   0.461   9.803 -0.3004  1.9289  1.0583
   21CHL1   C11 1514   4.314   0.507   9.915 -0.3611  0.2846  0.2825
   21CHL1  H11A 1515   4.402   0.567   9.884 -1.3620  1.2831 -0.7464
   21CHL1  H11B 1516   4.258   0.561   9.995 -1.1369 -0.0749 -0.0096
   21CHL1    C9 1517   4.349   0.362   9.963 -0.3746 -0.1785 -0.1430
   21CHL1    H9 1518   4.249   0.332  10.001 -0.1275  0.2262  0.8588
   21CHL1   C10 1519   4.440   0.358  10.092 -0.5202 -0.5566 -0.4825
   21CHL1   C19 1520   4.571   0.425  10.050  0.9954 -0.1971 -0.4281
   21CHL1  H19A 1521   4.599   0.392   9.948  0.2393  1.0556 -1.0584
   21CHL1  H19B 1522   4.551   0.534  10.052 -1.0392 -0.5253  0.8853
   21CHL1  H19C 1523   4.654   0.385  10.113  0.1378  0.7821  1.3835
   21CHL1    C1 1524   4.374   0.436  10.212  0.2112  0.2757  0.9087
   21CHL1   H1A 1525   4.374   0.544  10.188  0.6626 -0.1808 -1.4183
   21CHL1   H1B 1526   4.266   0.409  10.224 -0.0533  1.3361  1.0076
   21CHL1    C2 1527   4.441   0.413  10.342  0.3700  0.0555  0.1403
   21CHL1   H2A 1528   4.388   0.470  10.421 -0.4015 -0.6817  0.1675
   21CHL1   H2B 1529   4.540   0.462  10.339  0.3928 -0.0411 -1.9079
   21CHL1   C20 1530   4.225   0.511   9.440 -0.2401 -0.4990 -0.7812
   21CHL1   H20 1531   4.326   0.531   9.399  0.4010 -0.4432  0.7795
   21CHL1   C21 1532   4.189   0.649   9.499 -0.3709 -0.4864 -0.3056
   21CHL1  H21A 1533   4.263   0.681   9.575 -0.1491 -0.6380 -0.4536
   21CHL1  H21B 1534   4.092   0.634   9.550  0.9587 -1.6607  2.0599
   21CHL1  H21C 1535   4.185   0.727   9.419 -2.2193 -0.2870 -0.0676
   21CHL1   C22 1536   4.142   0.468   9.313  0.2368  0.5281 -0.3508
   21CHL1  H22A 1537   4.175   0.374   9.265 -1.9166 -0.5884  0.2450
   21CHL1  H22B 1538   4.034   0.460   9.335  0.0516 -1.7586 -1.7591
   21CHL1   C23 1539   4.162   0.576   9.204 -0.2014 -0.1192 -0.1413
   21CHL1  H23A 1540   4.127   0.668   9.255  0.1862 -0.0821  0.0574
   21CHL1  H23B 1541   4.269   0.575   9.175 -0.5476 -3.3210 -1.7688
   21CHL1   C24 1542   4.075   0.551   9.078 -0.3634 -0.1176 -0.4416
   21CHL1  H24A 1543   4.095   0.451   9.033  1.0792 -0.2718  0.4849
   21CHL1  H24B 1544   3.970   0.559   9.113 -0.4113 -3.8884  0.7488
   21CHL1   C25 1545   4.086   0.661   8.969  0.2803 -0.3631  0.4279
   21CHL1   H25 1546   4.196   0.677   8.972  0.4107 -1.2178  3.1364
   21CHL1   C26 1547   4.053   0.616   8.830  0.2584 -0.6506  0.7165
   21CHL1  H26A 1548   4.103   0.685   8.760 -1.4790  0.4469  0.5042
   21CHL1  H26B 1549   4.101   0.517   8.817  1.0212 -0.0770 -1.1622
   21CHL1  H26C 1550   3.944   0.606   8.812 -0.5178 -0.0939  4.2747
   21CHL1   C27 1551   4.004   0.790   9.011 -0.1729  0.5723  0.3890
   21CHL1  H27A 1552   4.005   0.880   8.946 -0.9964 -0.9915 -1.9601
   21CHL1  H27B 1553   3.900   0.753   9.004  0.2776 -0.6479 -0.1977
   21CHL1  H27C 1554   4.029   0.813   9.116  0.9439  1.6558 -0.0855
   22CHL1    C3 1555   3.765   0.695  10.152 -0.5067 -0.5497  0.5949
   22CHL1    H3 1556   3.808   0.598  10.120  0.2160 -0.0375 -0.0555
   22CHL1    O3 1557   3.802   0.727  10.281  0.3487 -0.5755 -0.0081
   22CHL1   H3' 1558   3.765   0.815  10.286  2.1053  0.3791 -1.8833
   22CHL1    C4 1559   3.821   0.806  10.064 -0.1233 -0.1874  0.3016
   22CHL1   H4A 1560   3.793   0.909  10.093 -0.2117 -0.3432  0.7762
   22CHL1   H4B 1561   3.930   0.805  10.084  0.0002  0.9151 -0.2237
   22CHL1    C5 1562   3.786   0.773   9.921 -0.5786  0.7664  0.2312
   22CHL1    C6 1563   3.881   0.754   9.829 -0.6043 -0.1205  0.3112
   22CHL1    H6 1564   3.989   0.759   9.850 -0.5313  0.1135 -0.1166
   22CHL1    C7 1565   3.854   0.719   9.686  0.5491  0.6685 -0.3174
   22CHL1   H7A 1566   3.911   0.792   9.626  0.8221  0.8009  0.0943
   22CHL1   H7B 1567   3.881   0.617   9.652  0.9751  0.8268 -0.4547
   22CHL1    C8 1568   3.702   0.738   9.648 -0.4034  0.5139 -0.1244
   22CHL1    H8 1569   3.680   0.847   9.641 -0.6458  0.4256 -0.7795
   22CHL1   C14 1570   3.680   0.671   9.515 -1.1593  0.2592 -0.2048
   22CHL1   H14 1571   3.704   0.563   9.527 -1.4121  0.2820  0.5391
   22CHL1   C15 1572   3.772   0.720   9.398 -0.1056  0.8621 -0.0969
   22CHL1  H15A 1573   3.783   0.830   9.394 -1.3808  1.0281  0.3074
   22CHL1  H15B 1574   3.875   0.680   9.395 -0.8741 -1.2100 -0.6237
   22CHL1   C16 1575   3.703   0.666   9.272 -0.2678 -0.3867 -0.5239
   22CHL1  H16A 1576   3.695   0.747   9.196  1.2595  0.4125  0.1313
   22CHL1  H16B 1577   3.757   0.587   9.216  0.4907 -0.0525 -0.2836
   22CHL1   C17 1578   3.568   0.604   9.326 -0.8529 -0.4153  0.4468
   22CHL1   H17 1579   3.601   0.502   9.355  2.3799 -0.0549 -1.5067
   22CHL1   C13 1580   3.541   0.681   9.461 -0.4315 -0.8132  0.3844
   22CHL1   C18 1581   3.506   0.831   9.432 -0.1292 -0.2731 -0.1826
   22CHL1  H18A 1582   3.521   0.893   9.523 -1.7382 -0.7001  0.4104
   22CHL1  H18B 1583   3.568   0.867   9.347 -0.1426 -2.0090 -0.9759
   22CHL1  H18C 1584   3.399   0.840   9.401 -0.0377  0.2280 -0.3584
   22CHL1   C12 1585   3.448   0.620   9.563 -0.2380 -0.0113 -1.0833
   22CHL1  H12A 1586   3.341   0.633   9.536 -0.6573  1.9631  1.2454
   22CHL1  H12B 1587   3.473   0.512   9.572  2.7390  0.7204  0.4985
   22CHL1   C11 1588   3.465   0.677   9.703 -0.4033 -0.2960 -0.2478
   22CHL1  H11A 1589   3.416   0.777   9.699 -0.4000 -0.3051 -0.5188
   22CHL1  H11B 1590   3.404   0.624   9.780 -0.4149  0.3053  0.1635
   22CHL1    C9 1591   3.610   0.681   9.752 -0.1897  0.2067 -0.4313
   22CHL1    H9 1592   3.633   0.574   9.772 -0.6534  0.3972  1.3041
   22CHL1   C10 1593   3.642   0.745   9.893  0.3248 -0.2276  0.0899
   22CHL1   C19 1594   3.582   0.883   9.904 -0.1822  0.2497 -0.4093
   22CHL1  H19A 1595   3.472   0.867   9.893 -0.3750  0.8555  0.5042
   22CHL1  H19B 1596   3.597   0.933  10.002 -0.1721  1.2408 -0.9092
   22CHL1  H19C 1597   3.618   0.950   9.824  2.1561 -1.3686 -0.8006
   22CHL1    C1 1598   3.574   0.660  10.003  0.1468 -0.3656  0.2982
   22CHL1   H1A 1599   3.465   0.675   9.990  0.1631  0.3502  0.8760
   22CHL1   H1B 1600   3.590   0.552   9.984 -0.8375 -0.1270 -2.3377
   22CHL1    C2 1601   3.613   0.689  10.142  0.1306  0.7833 -0.1945
   22CHL1   H2A 1602   3.572   0.615  10.214 -1.6807  1.4049 -0.5425
   22CHL1   H2B 1603   3.576   0.793  10.159  0.5287  0.7390  1.0700
   22CHL1   C20 1604   3.459   0.608   9.225  0.8935 -0.4227  0.4592
   22CHL1   H20 1605   3.417   0.710   9.209 -0.0385 -0.9747 -0.8584
   22CHL1   C21 1606   3.337   0.520   9.269 -0.4466 -0.5990  0.2079
   22CHL1  H21A 1607   3.269   0.496   9.185 -0.9657 -0.5564  0.6085
   22CHL1  H21B 1608   3.276   0.564   9.351 -0.4242 -0.4322  0.1357
   22CHL1  H21C 1609   3.370   0.421   9.306  0.1296 -0.0117  1.3119
   22CHL1   C22 1610   3.496   0.565   9.078 -0.2346 -0.1217  0.0031
   22CHL1  H22A 1611   3.594   0.607   9.047 -0.6983  0.7240 -0.3322
   22CHL1  H22B 1612   3.495   0.454   9.088  1.4386 -0.0818  1.1303
   22CHL1   C23 1613   3.400   0.607   8.972  0.4783  0.3366 -0.1985
   22CHL1  H23A 1614   3.297   0.588   9.010  1.6386 -1.1409  2.4994
   22CHL1  H23B 1615   3.411   0.715   8.950  1.4684  0.2905  0.0111
   22CHL1   C24 1616   3.422   0.523   8.849  0.4012 -0.3608 -0.0537
   22CHL1  H24A 1617   3.520   0.543   8.802  0.1255  1.3596  0.0616
   22CHL1  H24B 1618   3.402   0.415   8.870  0.1808 -1.0640 -3.3101
   22CHL1   C25 1619   3.313   0.546   8.742 -0.1917  0.1896  1.2854
   22CHL1   H25 1620   3.209   0.534   8.779 -1.1467  0.5718 -1.0778
   22CHL1   C26 1621   3.331   0.685   8.688  0.0605 -0.4116  0.0840
   22CHL1  H26A 1622   3.432   0.697   8.642  0.7695 -0.0428  1.6596
   22CHL1  H26B 1623   3.253   0.706   8.612 -0.2849 -0.5572  0.3957
   22CHL1  H26C 1624   3.317   0.760   8.769 -0.8775 -0.4930  0.0013
   22CHL1   C27 1625   3.331   0.440   8.629 -0.8796  0.4382  0.2321
   22CHL1  H27A 1626   3.241   0.440   8.565 -1.6685  2.4514  1.2352
   22CHL1  H27B 1627   3.416   0.466   8.562  1.8296 -3.5264  1.7686
   22CHL1  H27C 1628   3.340   0.339   8.675 -2.5883  0.5481  0.8839
   23CHL1    C3 1629   5.745   2.039  10.207 -0.2989 -0.6355 -0.2842
   23CHL1    H3 1630   5.850   2.014  10.178 -0.0450 -0.1959  0.2469
   23CHL1    O3 1631   5.745   2.043  10.350  0.6071  0.2870  0.3678
   23CHL1   H3' 1632   5.826   2.086  10.378  0.2164  0.4469  1.2817
   23CHL1    C4 1633   5.694   2.170  10.139 -0.9172 -0.2296 -0.8328
   23CHL1   H4A 1634   5.589   2.192  10.167 -1.7208 -1.4905 -2.6247
   23CHL1   H4B 1635   5.757   2.260  10.154 -1.4436  0.5064 -2.7525
   23CHL1    C5 1636   5.668   2.167   9.990 -0.1462 -0.0963  0.7831
   23CHL1    C6 1637   5.730   2.254   9.905  0.2864  0.1115  0.5449
   23CHL1    H6 1638   5.797   2.331   9.947  1.7313 -1.0168  0.4180
   23CHL1    C7 1639   5.727   2.249   9.755 -0.0349  0.9895  0.3180
   23CHL1   H7A 1640   5.701   2.352   9.722  0.1981  1.1973  0.7737
   23CHL1   H7B 1641   5.829   2.232   9.716  0.4951  2.0857  1.1650
   23CHL1    C8 1642   5.610   2.156   9.708  0.2042  0.5986  0.3538
   23CHL1    H8 1643   5.516   2.205   9.739  0.0600  0.5728 -0.0398
   23CHL1   C14 1644   5.614   2.132   9.558  0.3093  0.0030 -0.3029
   23CHL1   H14 1645   5.709   2.075   9.547  1.1236  1.2448  0.0303
   23CHL1   C15 1646   5.627   2.249   9.468  0.7594  0.2286  0.6753
   23CHL1  H15A 1647   5.553   2.330   9.488  0.1666  1.4976 -4.9576
   23CHL1  H15B 1648   5.730   2.289   9.459  0.8689 -0.2368 -0.3268
   23CHL1   C16 1649   5.596   2.197   9.329  0.6440  0.8668 -0.0821
   23CHL1  H16A 1650   5.518   2.255   9.275  0.2816 -1.2338 -1.9712
   23CHL1  H16B 1651   5.690   2.196   9.270  0.9197  1.1035  0.3386
   23CHL1   C17 1652   5.549   2.043   9.345 -0.1453 -0.7643  0.1603
   23CHL1   H17 1653   5.648   1.992   9.341 -0.1155 -0.7282  0.4532
   23CHL1   C13 1654   5.510   2.043   9.497  1.0245  0.0811  0.8405
   23CHL1   C18 1655   5.365   2.092   9.526 -0.1892  0.1603 -0.1159
   23CHL1  H18A 1656   5.298   2.011   9.489  1.6314 -1.8776  0.8298
   23CHL1  H18B 1657   5.346   2.113   9.633  1.1034 -0.8457  0.3343
   23CHL1  H18C 1658   5.350   2.186   9.469  2.5049  0.6304 -0.1977
   23CHL1   C12 1659   5.524   1.905   9.567  0.0360 -0.0958 -0.2224
   23CHL1  H12A 1660   5.446   1.838   9.527 -1.8508  2.4879 -1.1967
   23CHL1  H12B 1661   5.621   1.857   9.543  0.6879  1.6455 -1.3030
   23CHL1   C11 1662   5.507   1.915   9.720 -0.0462 -0.1306 -0.3870
   23CHL1  H11A 1663   5.405   1.944   9.752  0.5753  0.5266  1.1281
   23CHL1  H11B 1664   5.542   1.819   9.763  2.3205  0.6151 -0.5093
   23CHL1    C9 1665   5.610   2.021   9.785  0.0927 -0.1174  0.6052
   23CHL1    H9 1666   5.710   1.983   9.755  0.1720  2.1653 -2.7056
   23CHL1   C10 1667   5.597   2.039   9.939 -0.4951  0.2776  0.1480
   23CHL1   C19 1668   5.446   2.056   9.978  0.1386 -0.3585  0.0533
   23CHL1  H19A 1669   5.388   1.961   9.972 -1.0796  0.3039  0.8825
   23CHL1  H19B 1670   5.442   2.083  10.085 -2.0907 -0.8958  0.1510
   23CHL1  H19C 1671   5.394   2.128   9.912 -4.7580 -3.4807 -0.0021
   23CHL1    C1 1672   5.653   1.907  10.013 -0.5288  0.6398  0.5979
   23CHL1   H1A 1673   5.595   1.821   9.974  4.2784 -1.0619 -4.0758
   23CHL1   H1B 1674   5.759   1.900   9.978 -0.4711 -0.5365  0.9698
   23CHL1    C2 1675   5.666   1.917  10.157 -0.3030  0.1298 -0.7795
   23CHL1   H2A 1676   5.691   1.828  10.218 -1.9979  1.3179  1.8514
   23CHL1   H2B 1677   5.567   1.933  10.206 -0.4821 -0.9474 -0.7622
   23CHL1   C20 1678   5.458   1.989   9.237  0.2509  1.0364  0.4873
   23CHL1   H20 1679   5.356   2.031   9.255  0.3824  0.7697  1.9790
   23CHL1   C21 1680   5.465   1.833   9.257 -0.6318 -0.6418  0.1099
   23CHL1  H21A 1681   5.442   1.777   9.163 -1.5345 -0.7602  0.3956
   23CHL1  H21B 1682   5.391   1.807   9.336  0.8586 -1.5377  1.2562
   23CHL1  H21C 1683   5.567   1.795   9.277  0.9248  1.2662 -3.2710
   23CHL1   C22 1684   5.497   2.018   9.094 -0.3903 -1.3349 -0.2742
   23CHL1  H22A 1685   5.542   2.119   9.086  0.2795 -1.5008  1.1228
   23CHL1  H22B 1686   5.580   1.948   9.072 -0.4386 -2.5327  2.9023
   23CHL1   C23 1687   5.388   2.014   8.989 -0.0442  0.7373  0.1521
   23CHL1  H23A 1688   5.344   1.912   8.990 -0.1372  0.7529 -1.2982
   23CHL1  H23B 1689   5.310   2.088   9.017 -2.1638 -2.2165  2.7749
   23CHL1   C24 1690   5.443   2.046   8.850  0.0756 -0.4474 -0.5646
   23CHL1  H24A 1691   5.508   2.134   8.866 -0.3945 -0.0797 -0.6769
   23CHL1  H24B 1692   5.513   1.965   8.821 -0.7328 -1.6783  0.7662
   23CHL1   C25 1693   5.352   2.074   8.734 -0.0663  0.1992  0.5676
   23CHL1   H25 1694   5.275   2.146   8.770  0.1948  0.5820  0.3703
   23CHL1   C26 1695   5.424   2.139   8.619 -0.7694  0.0784  0.4999
   23CHL1  H26A 1696   5.504   2.074   8.577  0.3108  1.4661  0.3591
   23CHL1  H26B 1697   5.370   2.167   8.526  2.5127 -0.5739 -1.7556
   23CHL1  H26C 1698   5.491   2.221   8.653  0.3815 -1.2211  1.4860
   23CHL1   C27 1699   5.286   1.947   8.684  0.8132 -0.1694 -0.5297
   23CHL1  H27A 1700   5.288   1.875   8.769  2.4198 -0.6325 -0.9284
   23CHL1  H27B 1701   5.188   1.972   8.639  1.2967 -0.5877 -1.8604
   23CHL1  H27C 1702   5.343   1.899   8.601  1.9041 -1.0653  0.6993
   24CHL1    C3 1703   1.194   3.500   9.949  0.4003  0.4753  0.0480
   24CHL1    H3 1704   1.300   3.479   9.921  0.3884 -0.1334  0.4361
   24CHL1    O3 1705   1.162   3.521  10.087  0.4647 -0.0569  0.0316
   24CHL1   H3' 1706   1.238   3.571  10.116  0.3527 -0.1845  0.5547
   24CHL1    C4 1707   1.154   3.629   9.877  0.1257 -0.3856  0.4053
   24CHL1   H4A 1708   1.049   3.655   9.903 -0.7756 -3.5318  0.3043
   24CHL1   H4B 1709   1.212   3.713   9.922 -1.6706  1.1718 -0.0705
   24CHL1    C5 1710   1.168   3.628   9.730  0.0807 -0.5344  0.1625
   24CHL1    C6 1711   1.250   3.712   9.658 -0.7162 -0.9961  0.5082
   24CHL1    H6 1712   1.301   3.796   9.707  0.2459 -1.3891  0.2063
   24CHL1    C7 1713   1.250   3.720   9.505 -0.2933 -0.1416  0.2034
   24CHL1   H7A 1714   1.247   3.824   9.465  2.0595 -0.2006 -0.2396
   24CHL1   H7B 1715   1.349   3.679   9.476  0.1011  0.9175  0.0087
   24CHL1    C8 1716   1.146   3.630   9.437 -0.0181  0.5314 -0.3222
   24CHL1    H8 1717   1.046   3.678   9.440 -0.9058 -1.2733  0.1986
   24CHL1   C14 1718   1.188   3.592   9.293 -0.4707  0.6074 -0.5695
   24CHL1   H14 1719   1.287   3.544   9.306  0.2384  2.1745  0.0728
   24CHL1   C15 1720   1.222   3.707   9.202 -0.2134 -0.6034  1.0918
   24CHL1  H15A 1721   1.130   3.770   9.196 -0.0139 -0.4527 -0.6349
   24CHL1  H15B 1722   1.301   3.776   9.236 -1.0683  0.6519  0.6034
   24CHL1   C16 1723   1.243   3.647   9.065  0.6157  0.0245 -0.2109
   24CHL1  H16A 1724   1.183   3.702   8.989 -1.0865 -1.6335 -0.1282
   24CHL1  H16B 1725   1.350   3.639   9.034  0.7878 -0.8337  0.5736
   24CHL1   C17 1726   1.185   3.502   9.075  0.3112 -0.0968 -0.6668
   24CHL1   H17 1727   1.272   3.436   9.089  0.7818  0.9717  2.1077
   24CHL1   C13 1728   1.108   3.495   9.210  0.0798 -0.3234 -0.2069
   24CHL1   C18 1729   0.967   3.558   9.189 -0.3067  0.5008  0.8409
   24CHL1  H18A 1730   0.967   3.643   9.118  1.6261  1.3190  1.7381
   24CHL1  H18B 1731   0.895   3.483   9.152 -1.6806  0.9267  2.4901
   24CHL1  H18C 1732   0.920   3.598   9.282 -1.4898  0.5295  0.2371
   24CHL1   C12 1733   1.100   3.364   9.287 -0.3615  0.5207 -0.1399
   24CHL1  H12A 1734   1.043   3.279   9.242  0.9303  0.3805 -1.5980
   24CHL1  H12B 1735   1.204   3.324   9.288 -0.6613 -0.2994  1.3953
   24CHL1   C11 1736   1.049   3.391   9.431 -0.4008 -0.0891 -0.2441
   24CHL1  H11A 1737   0.944   3.424   9.422 -0.5558 -0.2088  0.9277
   24CHL1  H11B 1738   1.050   3.301   9.497  1.9991  0.4430  0.5643
   24CHL1    C9 1739   1.130   3.497   9.515  0.4486 -0.5505  0.1721
   24CHL1    H9 1740   1.234   3.458   9.514  1.2637  1.0761 -4.3209
   24CHL1   C10 1741   1.095   3.511   9.665 -0.2324  0.2930 -0.4640
   24CHL1   C19 1742   0.937   3.543   9.673  0.4283  0.0019 -0.1398
   24CHL1  H19A 1743   0.887   3.453   9.633  1.6261 -0.6736 -0.1341
   24CHL1  H19B 1744   0.905   3.555   9.779 -0.5910  0.4245 -0.4740
   24CHL1  H19C 1745   0.912   3.633   9.612  2.7711 -0.4017 -1.8177
   24CHL1    C1 1746   1.128   3.384   9.735 -0.0405  0.4609  0.3324
   24CHL1   H1A 1747   1.075   3.293   9.699 -0.7045  0.4814  1.2232
   24CHL1   H1B 1748   1.238   3.377   9.723 -0.1328  1.1333 -1.0068
   24CHL1    C2 1749   1.108   3.383   9.892 -0.4335 -0.0042  0.2678
   24CHL1   H2A 1750   1.128   3.281   9.933 -0.8571 -0.6517 -1.0666
   24CHL1   H2B 1751   1.001   3.408   9.904 -0.8284  0.2288 -2.8525
   24CHL1   C20 1752   1.103   3.461   8.951  0.1161 -0.2821  0.3550
   24CHL1   H20 1753   1.024   3.539   8.944  0.7952  0.4271  0.4399
   24CHL1   C21 1754   1.053   3.318   8.965  0.0130  0.4067  0.1395
   24CHL1  H21A 1755   0.965   3.310   9.032  1.7294 -1.7687  2.3144
   24CHL1  H21B 1756   1.124   3.238   8.993  0.2696  0.3295 -0.7143
   24CHL1  H21C 1757   1.020   3.283   8.865 -0.6258  0.7224  0.2313
   24CHL1   C22 1758   1.189   3.472   8.822 -0.5167 -0.4507 -0.2028
   24CHL1  H22A 1759   1.226   3.577   8.812  1.2235 -1.1074 -1.0410
   24CHL1  H22B 1760   1.270   3.396   8.825  1.8685  1.9415 -0.1645
   24CHL1   C23 1761   1.100   3.444   8.694 -0.2136  0.6343  0.8951
   24CHL1  H23A 1762   1.165   3.480   8.611  0.4817  0.1751  1.2304
   24CHL1  H23B 1763   1.091   3.334   8.682 -0.7889  0.5257  2.1292
   24CHL1   C24 1764   0.972   3.521   8.683  0.0760 -0.2810  0.1893
   24CHL1  H24A 1765   0.887   3.479   8.741  1.8961 -2.1695  1.6615
   24CHL1  H24B 1766   0.988   3.621   8.728 -0.6593 -0.0442 -0.0662
   24CHL1   C25 1767   0.921   3.546   8.535 -0.7415  0.9191  0.3867
   24CHL1   H25 1768   0.996   3.614   8.491  0.8487  0.0769  1.6770
   24CHL1   C26 1769   0.912   3.410   8.455 -0.3381 -0.5249 -0.2026
   24CHL1  H26A 1770   0.883   3.437   8.351 -0.6325  1.4704  0.3537
   24CHL1  H26B 1771   1.004   3.348   8.455 -0.0249 -0.0777  0.4299
   24CHL1  H26C 1772   0.833   3.347   8.501  0.2742 -2.8760 -2.1597
   24CHL1   C27 1773   0.790   3.633   8.525  0.1848  0.6370  0.8472
   24CHL1  H27A 1774   0.712   3.569   8.570 -1.4086  2.2366  0.4865
   24CHL1  H27B 1775   0.801   3.728   8.582 -0.8956  0.4573  1.3702
   24CHL1  H27C 1776   0.744   3.659   8.427 -0.9462  2.0373  1.7119
   25CHL1    C3 1777   4.038   4.374  10.316  0.0580  0.4017 -0.1203
   25CHL1    H3 1778   3.956   4.439  10.281 -0.1325  1.1436  1.5766
   25CHL1    O3 1779   4.054   4.411  10.456  0.0947  0.4508  0.7102
   25CHL1   H3' 1780   4.029   4.502  10.474 -0.7325  0.0698  1.5299
   25CHL1    C4 1781   3.995   4.219  10.308  0.8461 -0.0441 -0.0125
   25CHL1   H4A 1782   4.065   4.157  10.367  0.0618 -0.5775  0.3687
   25CHL1   H4B 1783   3.896   4.211  10.358  0.9213  3.6288  1.0455
   25CHL1    C5 1784   3.980   4.172  10.162 -0.0375 -0.1320 -0.4891
   25CHL1    C6 1785   3.869   4.118  10.105 -0.7380  0.6029 -0.3354
   25CHL1    H6 1786   3.780   4.094  10.164  0.8916 -4.1821  0.5675
   25CHL1    C7 1787   3.877   4.063   9.963  0.3729 -0.7168 -0.5099
   25CHL1   H7A 1788   3.830   3.962   9.969 -1.1192 -0.0070  0.2826
   25CHL1   H7B 1789   3.810   4.129   9.903 -0.8536 -1.9356 -0.5372
   25CHL1    C8 1790   4.015   4.055   9.893 -0.9878  0.2558 -0.0661
   25CHL1    H8 1791   4.056   3.963   9.939 -0.9558  0.5905  0.5855
   25CHL1   C14 1792   4.008   4.040   9.748  0.1484  0.7987 -0.5640
   25CHL1   H14 1793   3.971   4.138   9.710 -1.7916  0.7813  1.1314
   25CHL1   C15 1794   3.915   3.927   9.695  0.6147  0.0738  0.2519
   25CHL1  H15A 1795   3.925   3.844   9.768  1.8912 -0.2373 -0.2465
   25CHL1  H15B 1796   3.811   3.966   9.702  0.5879 -0.3107  4.1357
   25CHL1   C16 1797   3.960   3.909   9.550 -0.4608 -0.2261  0.6608
   25CHL1  H16A 1798   3.978   3.805   9.516 -1.8857  0.7124 -3.5423
   25CHL1  H16B 1799   3.873   3.939   9.488 -0.2768  0.1263  0.5655
   25CHL1   C17 1800   4.090   3.993   9.533  0.1071  0.4407  1.0575
   25CHL1   H17 1801   4.053   4.090   9.495 -2.6047 -2.3733 -4.6297
   25CHL1   C13 1802   4.144   4.016   9.672  0.2979  0.2787 -0.0099
   25CHL1   C18 1803   4.221   3.884   9.719 -0.2833  0.4203 -0.0332
   25CHL1  H18A 1804   4.164   3.795   9.685 -0.5448  0.5218  0.1380
   25CHL1  H18B 1805   4.317   3.888   9.663 -0.6565 -1.3492 -0.8834
   25CHL1  H18C 1806   4.240   3.878   9.829  1.2758  1.4753 -0.2172
   25CHL1   C12 1807   4.234   4.139   9.704 -0.2796  0.0893 -0.1477
   25CHL1  H12A 1808   4.336   4.115   9.667  0.0464  1.1460  0.0389
   25CHL1  H12B 1809   4.193   4.233   9.659  0.7703  0.4771 -0.3150
   25CHL1   C11 1810   4.238   4.162   9.856 -0.1048 -0.0241  0.4546
   25CHL1  H11A 1811   4.297   4.072   9.886 -2.2021 -2.0313 -1.0995
   25CHL1  H11B 1812   4.297   4.254   9.876 -0.8334  1.1708 -2.4554
   25CHL1    C9 1813   4.101   4.171   9.924 -0.9494  0.3295 -0.1128
   25CHL1    H9 1814   4.049   4.256   9.876 -1.0016 -0.1583 -0.9354
   25CHL1   C10 1815   4.112   4.200  10.079  0.5652  0.1728  0.1873
   25CHL1   C19 1816   4.216   4.103  10.141 -0.5579  0.1429  0.7545
   25CHL1  H19A 1817   4.311   4.116  10.085 -1.6258  0.0453 -1.1918
   25CHL1  H19B 1818   4.235   4.115  10.249  0.6618  0.3882  0.5263
   25CHL1  H19C 1819   4.183   3.998  10.124 -1.7754  0.5725  0.3490
   25CHL1    C1 1820   4.142   4.354  10.097  0.1447  0.3624  1.0517
   25CHL1   H1A 1821   4.232   4.376  10.035 -1.1319 -0.3164 -1.1700
   25CHL1   H1B 1822   4.064   4.414  10.044  1.9035  0.3709 -1.7648
   25CHL1    C2 1823   4.163   4.408  10.237  0.1146 -0.1456  0.0891
   25CHL1   H2A 1824   4.176   4.519  10.236  2.3035 -0.3407 -1.5157
   25CHL1   H2B 1825   4.247   4.352  10.283  0.6204 -1.3643 -2.1470
   25CHL1   C20 1826   4.183   3.938   9.425  0.3838 -0.7541 -0.3928
   25CHL1   H20 1827   4.241   3.848   9.453  2.2156  0.7452  0.8747
   25CHL1   C21 1828   4.296   4.042   9.389 -0.0774 -0.2621  0.6738
   25CHL1  H21A 1829   4.267   4.142   9.352 -0.6107 -0.7156 -0.1875
   25CHL1  H21B 1830   4.360   4.007   9.305 -1.3543  1.2817 -1.0246
   25CHL1  H21C 1831   4.363   4.056   9.475  1.0528 -1.0472 -0.0538
   25CHL1   C22 1832   4.097   3.903   9.304  0.5411  0.7793 -0.3322
   25CHL1  H22A 1833   4.027   3.821   9.331  1.1044  0.3368 -0.1815
   25CHL1  H22B 1834   4.052   3.997   9.267 -0.8659  0.1378 -0.3308
   25CHL1   C23 1835   4.174   3.840   9.191 -0.2711  0.6970  0.9805
   25CHL1  H23A 1836   4.210   3.919   9.122  3.0381 -3.0903 -2.1307
   25CHL1  H23B 1837   4.256   3.780   9.234 -2.4189 -0.3196  3.9844
   25CHL1   C24 1838   4.085   3.748   9.112  0.7917 -0.1853  0.3863
   25CHL1  H24A 1839   4.046   3.657   9.162 -1.9714 -0.7078 -2.3947
   25CHL1  H24B 1840   3.989   3.796   9.081  0.0100 -2.1674 -0.4073
   25CHL1   C25 1841   4.143   3.678   8.989 -0.4663 -0.4974 -0.3282
   25CHL1   H25 1842   4.068   3.607   8.950  0.5846 -1.2079 -1.1313
   25CHL1   C26 1843   4.161   3.790   8.883 -0.0611  0.5444 -0.5137
   25CHL1  H26A 1844   4.072   3.856   8.874  0.0862  0.9402  0.7215
   25CHL1  H26B 1845   4.248   3.856   8.903  0.8871 -0.9142  0.3340
   25CHL1  H26C 1846   4.171   3.743   8.783 -2.8110  1.8288 -1.4938
   25CHL1   C27 1847   4.269   3.588   9.009 -0.1204 -0.0055 -0.0357
   25CHL1  H27A 1848   4.357   3.648   9.039 -0.2777  1.0789 -1.6129
   25CHL1  H27B 1849   4.222   3.533   9.094 -2.1797  1.8232  0.0933
   25CHL1  H27C 1850   4.309   3.519   8.931  0.4970  1.2189 -0.8317
   26CHL1    C3 1851   5.114   1.639  10.262 -0.2253 -0.0396  0.1097
   26CHL1    H3 1852   5.217   1.677  10.246  0.4224 -0.8237  2.0704
   26CHL1    O3 1853   5.089   1.613  10.401 -0.8594  0.3885 -0.0477
   26CHL1   H3' 1854   4.995   1.617  10.419 -1.4006 -3.2068 -1.2972
   26CHL1    C4 1855   5.020   1.757  10.220  0.4055  0.4704 -0.0307
   26CHL1   H4A 1856   4.912   1.739  10.238  0.8296  0.4654  3.0543
   26CHL1   H4B 1857   5.040   1.849  10.278 -1.3297  0.1756  1.1192
   26CHL1    C5 1858   5.042   1.779  10.072 -0.0992  0.3021 -0.1249
   26CHL1    C6 1859   5.082   1.898  10.034  0.1196  0.3592  0.3586
   26CHL1    H6 1860   5.092   1.981  10.106  1.4299  0.4217  0.1227
   26CHL1    C7 1861   5.099   1.934   9.889 -0.7479  0.5873  0.2452
   26CHL1   H7A 1862   5.064   2.037   9.869  0.4282  0.7892 -0.9559
   26CHL1   H7B 1863   5.205   1.930   9.856 -0.2604  1.7073  1.5969
   26CHL1    C8 1864   5.021   1.835   9.796  0.3789 -0.0549  0.3638
   26CHL1    H8 1865   4.912   1.846   9.817  0.2557 -1.4115  0.5506
   26CHL1   C14 1866   5.054   1.859   9.646  0.7293  0.1931 -0.5971
   26CHL1   H14 1867   5.163   1.848   9.633  0.3394 -2.7993 -2.4994
   26CHL1   C15 1868   5.018   1.997   9.585  0.0502  0.7448  0.5177
   26CHL1  H15A 1869   4.914   2.016   9.620 -0.4214  0.2116 -0.5447
   26CHL1  H15B 1870   5.092   2.072   9.621 -0.1305  0.4766  1.4617
   26CHL1   C16 1871   5.010   1.978   9.434 -0.8198 -0.4948 -0.0796
   26CHL1  H16A 1872   4.905   1.988   9.399 -1.2289  1.2942  1.4701
   26CHL1  H16B 1873   5.074   2.052   9.382 -0.3894 -1.1369 -0.4803
   26CHL1   C17 1874   5.042   1.833   9.414  0.2999  0.2649 -0.1687
   26CHL1   H17 1875   5.153   1.841   9.422  0.3290  1.3150 -1.2255
   26CHL1   C13 1876   4.998   1.758   9.546  0.6045 -0.6732 -0.0779
   26CHL1   C18 1877   4.842   1.765   9.551  0.3733 -0.0167  0.3919
   26CHL1  H18A 1878   4.802   1.703   9.468  0.4893 -1.0317  1.0780
   26CHL1  H18B 1879   4.808   1.720   9.647 -0.2064  0.6749  0.5188
   26CHL1  H18C 1880   4.799   1.867   9.543 -2.1720 -1.0628 -0.2721
   26CHL1   C12 1881   5.037   1.616   9.576  0.2685  0.6095 -0.5762
   26CHL1  H12A 1882   4.974   1.553   9.511 -1.9725  0.8322  1.2599
   26CHL1  H12B 1883   5.141   1.601   9.540 -0.4895 -1.9138 -1.9275
   26CHL1   C11 1884   5.009   1.586   9.725  0.1206  0.6081  0.3739
   26CHL1  H11A 1885   4.901   1.563   9.738  0.4130 -0.8910  0.3408
   26CHL1  H11B 1886   5.052   1.486   9.747 -0.3253  0.6602  1.5291
   26CHL1    C9 1887   5.056   1.690   9.829  1.1413 -0.2289  0.0301
   26CHL1    H9 1888   5.167   1.686   9.822  1.2020  1.5466 -0.4715
   26CHL1   C10 1889   5.015   1.660   9.973  0.2728  0.5219  0.1063
   26CHL1   C19 1890   4.866   1.628   9.995  0.4358  0.4034 -0.2708
   26CHL1  H19A 1891   4.841   1.542   9.930 -1.4885  0.1779  0.6908
   26CHL1  H19B 1892   4.831   1.608  10.099 -0.2271  0.4289 -0.4835
   26CHL1  H19C 1893   4.803   1.711   9.956  2.1991  3.0731  2.1605
   26CHL1    C1 1894   5.095   1.538  10.027 -0.3470  0.4057 -0.0087
   26CHL1   H1A 1895   5.049   1.445   9.988  2.0965 -1.6385  1.6784
   26CHL1   H1B 1896   5.196   1.557   9.985  0.3568  0.5673  1.6688
   26CHL1    C2 1897   5.083   1.513  10.175 -0.1912  0.5873 -0.2748
   26CHL1   H2A 1898   5.153   1.431  10.201 -1.2269 -0.3173 -0.2719
   26CHL1   H2B 1899   4.983   1.468  10.193  0.7561 -1.1050  1.0339
   26CHL1   C20 1900   5.017   1.758   9.280  0.4245  0.1836  0.5356
   26CHL1   H20 1901   4.918   1.709   9.280  0.4080  0.0752 -2.1990
   26CHL1   C21 1902   5.122   1.645   9.255  0.2055  1.0431 -0.0130
   26CHL1  H21A 1903   5.219   1.700   9.261  0.1366  0.9990  2.3225
   26CHL1  H21B 1904   5.100   1.597   9.157 -0.3173 -1.2704  1.1832
   26CHL1  H21C 1905   5.127   1.566   9.332 -0.6062 -0.9357 -1.8855
   26CHL1   C22 1906   5.020   1.856   9.159  0.1814  0.0643  0.4535
   26CHL1  H22A 1907   4.955   1.941   9.190 -3.7462 -1.8271 -1.9491
   26CHL1  H22B 1908   5.123   1.882   9.126 -0.0303 -1.6359 -1.7913
   26CHL1   C23 1909   4.963   1.786   9.028 -0.0844 -1.0497 -0.4802
   26CHL1  H23A 1910   5.037   1.704   9.014 -1.1077 -2.0005 -0.4347
   26CHL1  H23B 1911   4.867   1.733   9.047  1.4957 -3.6012  0.8861
   26CHL1   C24 1912   4.949   1.876   8.907 -0.2449 -0.0344  0.2388
   26CHL1  H24A 1913   4.906   1.973   8.940 -0.1948  0.8518 -2.0887
   26CHL1  H24B 1914   5.051   1.897   8.867  0.0453 -0.4990  0.7203
   26CHL1   C25 1915   4.876   1.822   8.787  0.9655 -0.0788 -0.1645
   26CHL1   H25 1916   4.772   1.789   8.808  0.8114  0.5625  0.1038
   26CHL1   C26 1917   4.855   1.928   8.675 -0.2645  0.4066 -0.2058
   26CHL1  H26A 1918   4.949   1.984   8.661 -0.1012  0.4281  0.8394
   26CHL1  H26B 1919   4.817   1.888   8.579 -0.4742  0.1587 -0.0219
   26CHL1  H26C 1920   4.780   2.004   8.707 -0.2138  0.7897 -0.9766
   26CHL1   C27 1921   4.944   1.699   8.734 -0.0286  0.3038 -0.0352
   26CHL1  H27A 1922   4.955   1.623   8.814  1.1738 -0.2484 -0.7000
   26CHL1  H27B 1923   4.895   1.661   8.642  0.2323  0.2836 -0.1643
   26CHL1  H27C 1924   5.050   1.721   8.709  0.0463 -0.4830 -0.4257
   27CHL1    C3 1925   4.921   4.009  10.320  0.2173 -0.0030 -0.3263
   27CHL1    H3 1926   4.839   3.947  10.279  1.3400 -2.0075  0.3548
   27CHL1    O3 1927   4.901   4.015  10.463 -0.8829 -0.4534  0.4320
   27CHL1   H3' 1928   4.936   4.101  10.486 -0.9461 -0.1537 -0.5534
   27CHL1    C4 1929   5.060   3.953  10.287 -0.7405 -0.4186  0.6281
   27CHL1   H4A 1930   5.129   4.023  10.340 -1.2385  1.0333 -0.5598
   27CHL1   H4B 1931   5.073   3.852  10.330  0.0280  0.1424  1.7770
   27CHL1    C5 1932   5.091   3.959  10.137 -0.0947  0.9731  0.1483
   27CHL1    C6 1933   5.145   3.850  10.077  0.4081  0.2697  0.2346
   27CHL1    H6 1934   5.169   3.760  10.135 -1.3584 -1.3323 -1.3762
   27CHL1    C7 1935   5.185   3.853   9.937 -0.5997  0.3559  0.1913
   27CHL1   H7A 1936   5.285   3.806   9.926 -0.1183  1.3647  0.2537
   27CHL1   H7B 1937   5.109   3.791   9.882  0.9155 -1.3100 -0.1253
   27CHL1    C8 1938   5.176   3.985   9.856 -0.1614  0.8139  0.3210
   27CHL1    H8 1939   5.271   4.034   9.884  0.0854 -0.1328  1.1815
   27CHL1   C14 1940   5.166   3.965   9.705 -0.0240 -0.0360 -0.4659
   27CHL1   H14 1941   5.064   3.923   9.694  0.2480 -0.5087 -1.2658
   27CHL1   C15 1942   5.260   3.864   9.644 -0.2366  0.0419 -0.2081
   27CHL1  H15A 1943   5.359   3.848   9.693 -0.6377  0.9139  0.9464
   27CHL1  H15B 1944   5.204   3.770   9.660 -0.3955  0.0571 -0.6619
   27CHL1   C16 1945   5.266   3.916   9.491  0.1666  0.4771 -0.3114
   27CHL1  H16A 1946   5.373   3.946   9.481  0.0584  0.6843 -0.9034
   27CHL1  H16B 1947   5.232   3.841   9.417 -1.8011 -1.1430  2.0959
   27CHL1   C17 1948   5.170   4.044   9.473 -0.3136 -0.0151 -0.1381
   27CHL1   H17 1949   5.070   3.998   9.469  0.6383 -2.4910  1.7711
   27CHL1   C13 1950   5.166   4.099   9.622  0.2728 -0.2894 -0.4136
   27CHL1   C18 1951   5.284   4.196   9.652  0.1214  0.4441  0.1606
   27CHL1  H18A 1952   5.381   4.162   9.612  0.6982  0.5504  1.4233
   27CHL1  H18B 1953   5.259   4.294   9.606  0.1278  1.1054  1.5087
   27CHL1  H18C 1954   5.292   4.216   9.761  1.2470  0.3676  0.1022
   27CHL1   C12 1955   5.037   4.174   9.668  0.1363 -0.3034 -0.6685
   27CHL1  H12A 1956   5.036   4.272   9.615 -1.7734  0.0960  0.0590
   27CHL1  H12B 1957   4.947   4.119   9.634 -0.4641  0.7243 -0.7833
   27CHL1   C11 1958   5.037   4.201   9.825  0.2801 -0.2626  0.0323
   27CHL1  H11A 1959   5.109   4.283   9.843 -0.7724  0.6557  0.1058
   27CHL1  H11B 1960   4.941   4.251   9.846  1.3351  0.7288  2.9760
   27CHL1    C9 1961   5.059   4.070   9.901  0.3692  0.6479 -0.4317
   27CHL1    H9 1962   4.969   4.009   9.879 -0.7529  1.1712  2.3115
   27CHL1   C10 1963   5.061   4.085  10.053  0.7909  0.4288 -0.4059
   27CHL1   C19 1964   5.176   4.181  10.086  0.5984 -0.0407  0.2738
   27CHL1  H19A 1965   5.274   4.131  10.067  1.3266  1.6935 -0.7620
   27CHL1  H19B 1966   5.177   4.270  10.020  2.9080 -0.8763 -0.9339
   27CHL1  H19C 1967   5.175   4.219  10.190 -0.2275 -1.0518  0.6527
   27CHL1    C1 1968   4.918   4.122  10.103  0.2727 -0.1078  0.3079
   27CHL1   H1A 1969   4.902   4.225  10.065  1.6697  0.6889  1.7417
   27CHL1   H1B 1970   4.845   4.051  10.060  1.0958 -0.9122  0.1965
   27CHL1    C2 1971   4.883   4.134  10.252 -0.2734 -0.1936 -0.0816
   27CHL1   H2A 1972   4.774   4.141  10.272 -0.4876  0.7000 -1.4483
   27CHL1   H2B 1973   4.934   4.224  10.293 -0.4421  0.3817 -1.1054
   27CHL1   C20 1974   5.203   4.136   9.357  0.1570 -0.2244 -0.3964
   27CHL1   H20 1975   5.295   4.194   9.382  0.0953 -1.1599  2.3497
   27CHL1   C21 1976   5.091   4.249   9.345 -0.6078 -0.2585 -0.3012
   27CHL1  H21A 1977   4.993   4.197   9.345 -0.5746 -0.3445  0.6402
   27CHL1  H21B 1978   5.097   4.296   9.245  1.0928 -0.0515 -0.1344
   27CHL1  H21C 1979   5.109   4.325   9.423  0.0368  1.0591 -1.6849
   27CHL1   C22 1980   5.226   4.059   9.221 -0.7959  0.4401 -0.1682
   27CHL1  H22A 1981   5.269   4.133   9.151  0.3016 -1.0951 -1.1871
   27CHL1  H22B 1982   5.299   3.977   9.241 -1.6721 -0.8122 -1.8889
   27CHL1   C23 1983   5.096   4.004   9.164 -0.0223  0.5610  0.1938
   27CHL1  H23A 1984   5.031   3.954   9.240 -1.5859 -0.4749 -1.7247
   27CHL1  H23B 1985   5.030   4.074   9.108  1.9981  2.3608 -0.0380
   27CHL1   C24 1986   5.138   3.895   9.068  0.3341  0.5230 -0.5569
   27CHL1  H24A 1987   5.190   3.941   8.981  0.4130  1.9853  0.2437
   27CHL1  H24B 1988   5.196   3.821   9.126 -0.4349 -1.6660 -2.4118
   27CHL1   C25 1989   5.023   3.806   9.018 -0.2337 -0.2668  0.0212
   27CHL1   H25 1990   4.937   3.876   9.010  0.4301  0.5003 -0.6291
   27CHL1   C26 1991   5.050   3.765   8.875  0.3477  0.7126 -0.0645
   27CHL1  H26A 1992   5.140   3.700   8.878  1.2959  1.9842 -0.3084
   27CHL1  H26B 1993   4.959   3.711   8.841 -0.0064  2.1251 -1.4616
   27CHL1  H26C 1994   5.072   3.857   8.818  1.2886  0.2023 -0.5539
   27CHL1   C27 1995   4.986   3.691   9.110  0.7375 -0.3386  0.3576
   27CHL1  H27A 1996   4.974   3.717   9.217 -3.2087 -0.1388  0.0131
   27CHL1  H27B 1997   4.892   3.642   9.077  1.3137 -1.0366 -0.2921
   27CHL1  H27C 1998   5.072   3.621   9.109  1.3279  0.3819  0.0705
   28CHL1    C3 1999   3.303   3.863   9.952 -0.6376 -0.2352  0.1454
   28CHL1    H3 2000   3.218   3.898   9.890 -0.9342 -1.4368 -0.1599
   28CHL1    O3 2001   3.276   3.903  10.087  0.6429 -0.3325  0.9586
   28CHL1   H3' 2002   3.365   3.892  10.122  1.1095 -0.2272 -0.1656
   28CHL1    C4 2003   3.324   3.702   9.940 -0.0003  0.2978 -0.3378
   28CHL1   H4A 2004   3.410   3.679  10.006  0.0007  0.2083 -0.3709
   28CHL1   H4B 2005   3.239   3.648   9.989 -0.4711  1.3987  0.1113
   28CHL1    C5 2006   3.350   3.670   9.793  0.2387 -0.2380 -0.4901
   28CHL1    C6 2007   3.263   3.596   9.732 -0.3942 -0.1872  0.0363
   28CHL1    H6 2008   3.175   3.556   9.785 -1.2362  0.5448 -0.7690
   28CHL1    C7 2009   3.272   3.561   9.590 -0.2724  0.0219 -0.4875
   28CHL1   H7A 2010   3.240   3.457   9.570  0.0865 -0.3443  0.7087
   28CHL1   H7B 2011   3.200   3.625   9.535  0.1303  1.1996  0.3090
   28CHL1    C8 2012   3.415   3.594   9.528 -0.0645  0.2891 -0.4143
   28CHL1    H8 2013   3.486   3.525   9.579 -0.8590  0.1665  0.5395
   28CHL1   C14 2014   3.413   3.581   9.379  0.3365  0.0080 -0.2263
   28CHL1   H14 2015   3.348   3.664   9.345 -1.5784 -1.1670  0.4232
   28CHL1   C15 2016   3.345   3.461   9.312 -0.1059  0.3630 -0.1977
   28CHL1  H15A 2017   3.381   3.370   9.365 -0.6604  0.7922  0.9449
   28CHL1  H15B 2018   3.234   3.467   9.309 -0.3212 -2.6470 -2.2251
   28CHL1   C16 2019   3.391   3.469   9.166 -0.1626  0.8839 -0.1620
   28CHL1  H16A 2020   3.438   3.376   9.127  1.0444  1.0873  0.7330
   28CHL1  H16B 2021   3.310   3.487   9.093  1.7445  0.6079 -2.4567
   28CHL1   C17 2022   3.495   3.585   9.163 -0.8069 -0.3630  0.0417
   28CHL1   H17 2023   3.433   3.675   9.143 -0.0393  0.2670  0.4254
   28CHL1   C13 2024   3.547   3.601   9.305 -0.1798 -0.5868  0.8427
   28CHL1   C18 2025   3.652   3.487   9.329  0.0205  0.1123  0.7734
   28CHL1  H18A 2026   3.636   3.391   9.277  0.4113  0.2005  0.4902
   28CHL1  H18B 2027   3.747   3.525   9.287 -1.1962  0.7675 -1.5588
   28CHL1  H18C 2028   3.659   3.471   9.439 -0.9051  1.4754  1.0665
   28CHL1   C12 2029   3.612   3.732   9.352 -1.0786  0.5648 -0.1213
   28CHL1  H12A 2030   3.719   3.734   9.323 -0.8778  0.0648  0.5664
   28CHL1  H12B 2031   3.549   3.812   9.307 -0.6512  0.4413 -0.9549
   28CHL1   C11 2032   3.614   3.747   9.503  0.0575 -0.2753 -0.4847
   28CHL1  H11A 2033   3.689   3.686   9.557  0.2559  0.9671  0.7001
   28CHL1  H11B 2034   3.644   3.850   9.530  0.0114  0.1489 -1.9714
   28CHL1    C9 2035   3.473   3.722   9.573  0.4192  0.0036  0.8214
   28CHL1    H9 2036   3.407   3.803   9.535  0.2575 -0.5986 -0.2090
   28CHL1   C10 2037   3.474   3.743   9.734  0.1661 -0.2708  0.4600
   28CHL1   C19 2038   3.601   3.694   9.805 -0.2914  0.4343  0.0961
   28CHL1  H19A 2039   3.594   3.691   9.916 -0.9227 -1.7356  0.0333
   28CHL1  H19B 2040   3.634   3.596   9.764 -1.7497  0.4287 -1.1211
   28CHL1  H19C 2041   3.688   3.757   9.775 -1.8324  1.3550 -2.8139
   28CHL1    C1 2042   3.454   3.901   9.750 -0.4952 -0.0887  0.3586
   28CHL1   H1A 2043   3.534   3.949   9.689 -0.0849  0.4873  1.3241
   28CHL1   H1B 2044   3.363   3.932   9.694  0.2294  1.2575 -0.1240
   28CHL1    C2 2045   3.426   3.945   9.894 -0.5259  0.1126 -0.7786
   28CHL1   H2A 2046   3.386   4.049   9.901  0.6253  0.6662 -1.9179
   28CHL1   H2B 2047   3.509   3.932   9.966 -1.8369  1.7534  1.1283
   28CHL1   C20 2048   3.595   3.587   9.046 -0.2680 -0.2550  0.0771
   28CHL1   H20 2049   3.679   3.518   9.070 -0.1806 -0.3329 -0.4481
   28CHL1   C21 2050   3.657   3.722   9.026 -0.2712  0.2039 -0.0076
   28CHL1  H21A 2051   3.586   3.789   8.973  0.4334 -0.2909 -1.6141
   28CHL1  H21B 2052   3.745   3.720   8.959 -1.0543 -3.3389 -1.1650
   28CHL1  H21C 2053   3.695   3.770   9.119 -1.5307 -0.8003  1.0914
   28CHL1   C22 2054   3.539   3.532   8.917  0.0607  0.0563  0.3487
   28CHL1  H22A 2055   3.497   3.429   8.921 -0.0692 -0.0673 -2.3587
   28CHL1  H22B 2056   3.453   3.593   8.881  0.3325 -0.2632 -0.9034
   28CHL1   C23 2057   3.643   3.529   8.804 -0.6661 -0.3778  0.0198
   28CHL1  H23A 2058   3.692   3.626   8.779 -2.6764  1.0650  1.3609
   28CHL1  H23B 2059   3.722   3.465   8.848 -1.0210 -1.4586 -0.8483
   28CHL1   C24 2060   3.591   3.470   8.670 -0.1619  0.0743 -0.2392
   28CHL1  H24A 2061   3.536   3.377   8.698  0.0795  0.5684  2.0832
   28CHL1  H24B 2062   3.511   3.543   8.644 -0.4974 -0.1404  0.1764
   28CHL1   C25 2063   3.685   3.458   8.547 -0.1231  0.2876 -1.0452
   28CHL1   H25 2064   3.758   3.379   8.574  0.9913  1.6596  0.0754
   28CHL1   C26 2065   3.606   3.406   8.433  0.1971 -0.1258 -0.3530
   28CHL1  H26A 2066   3.669   3.387   8.344  0.6247 -1.9274  0.2815
   28CHL1  H26B 2067   3.556   3.308   8.447  2.7401 -1.5285 -0.5051
   28CHL1  H26C 2068   3.525   3.473   8.398 -0.7311 -0.5666  0.8588
   28CHL1   C27 2069   3.768   3.590   8.506 -0.5904 -0.1438 -0.2571
   28CHL1  H27A 2070   3.693   3.671   8.498  0.0567  0.3943 -0.9200
   28CHL1  H27B 2071   3.838   3.610   8.590 -1.8349  1.0177  0.5429
   28CHL1  H27C 2072   3.823   3.570   8.412 -1.4493 -0.7637 -0.6396
   29CHL1    C3 2073   4.427   0.285   6.585 -0.2169  0.0710 -0.0689
   29CHL1    H3 2074   4.531   0.325   6.589 -0.0388 -0.3651 -0.2783
   29CHL1    O3 2075   4.385   0.280   6.448  0.4550 -0.0838 -0.4494
   29CHL1   H3' 2076   4.307   0.335   6.437 -0.0277 -0.2580  1.6023
   29CHL1    C4 2077   4.428   0.142   6.635  0.2225  0.3116 -0.6650
   29CHL1   H4A 2078   4.325   0.101   6.629  0.3368  0.1117 -1.3446
   29CHL1   H4B 2079   4.497   0.085   6.569 -0.7853 -1.5293 -0.1850
   29CHL1    C5 2080   4.467   0.134   6.783 -1.0457 -0.3287 -0.0924
   29CHL1    C6 2081   4.582   0.071   6.819  0.8317 -0.0583  0.2416
   29CHL1    H6 2082   4.633   0.010   6.742  0.9357  0.1265  0.1622
   29CHL1    C7 2083   4.623   0.058   6.963 -0.5317 -0.6996 -0.2358
   29CHL1   H7A 2084   4.638  -0.047   6.994 -2.7922 -1.3034 -0.9665
   29CHL1   H7B 2085   4.713   0.123   6.969  0.1914 -1.6921 -0.1394
   29CHL1    C8 2086   4.527   0.122   7.069 -0.1660 -0.5531  0.0480
   29CHL1    H8 2087   4.450   0.046   7.091  0.9564 -1.7804 -0.1738
   29CHL1   C14 2088   4.600   0.158   7.202 -0.4775 -0.3882 -0.2586
   29CHL1   H14 2089   4.679   0.233   7.183  0.9206 -1.1914  1.9506
   29CHL1   C15 2090   4.678   0.043   7.263  0.3844  0.0106 -0.2271
   29CHL1  H15A 2091   4.615  -0.049   7.266  0.6451 -0.1875 -0.8063
   29CHL1  H15B 2092   4.766  -0.001   7.213 -0.0044 -1.5653  0.4072
   29CHL1   C16 2093   4.701   0.089   7.412  0.2440  0.5251 -0.3138
   29CHL1  H16A 2094   4.659   0.012   7.480 -0.6068  1.3448  0.1015
   29CHL1  H16B 2095   4.809   0.112   7.423  0.2599  0.2675  0.0651
   29CHL1   C17 2096   4.618   0.220   7.426 -0.0215 -0.4512  0.2874
   29CHL1   H17 2097   4.692   0.300   7.403 -0.1847  0.4154  2.5489
   29CHL1   C13 2098   4.513   0.213   7.312  0.2653  0.2532 -0.2715
   29CHL1   C18 2099   4.408   0.104   7.355  0.7518 -0.2137 -0.0972
   29CHL1  H18A 2100   4.453   0.014   7.404 -0.0090 -0.9871 -0.7847
   29CHL1  H18B 2101   4.348   0.154   7.434  2.2512  1.4349  0.0530
   29CHL1  H18C 2102   4.338   0.070   7.276 -1.3631  0.8742  1.2111
   29CHL1   C12 2103   4.445   0.336   7.255  0.4458 -0.7606 -0.3394
   29CHL1  H12A 2104   4.381   0.388   7.329  2.6058  1.4394  0.1101
   29CHL1  H12B 2105   4.521   0.414   7.231  1.8330 -2.3507 -1.3162
   29CHL1   C11 2106   4.372   0.301   7.124  0.6615  0.5795 -0.2945
   29CHL1  H11A 2107   4.291   0.230   7.150  1.6522 -0.5246 -0.1638
   29CHL1  H11B 2108   4.314   0.391   7.092 -0.8625 -0.0474  0.5802
   29CHL1    C9 2109   4.464   0.247   7.011  0.4027 -0.3186 -0.1538
   29CHL1    H9 2110   4.536   0.329   6.995 -0.7413  0.6701 -0.3944
   29CHL1   C10 2111   4.387   0.222   6.879 -0.6783 -0.1813  0.0872
   29CHL1   C19 2112   4.259   0.149   6.905  0.1481 -0.3679 -0.1094
   29CHL1  H19A 2113   4.215   0.103   6.814 -0.6980 -0.8702  0.5445
   29CHL1  H19B 2114   4.263   0.061   6.974  1.4692 -0.4066 -0.2034
   29CHL1  H19C 2115   4.198   0.228   6.953  0.7758  0.9181 -1.3514
   29CHL1    C1 2116   4.356   0.365   6.817  0.6480 -0.8551  0.0167
   29CHL1   H1A 2117   4.268   0.407   6.870  0.2202 -0.0547 -1.2974
   29CHL1   H1B 2118   4.445   0.430   6.834 -0.1108  1.0617 -2.6211
   29CHL1    C2 2119   4.330   0.369   6.668  0.7041 -0.9153  0.4914
   29CHL1   H2A 2120   4.328   0.473   6.628  0.4759 -1.2705 -0.4458
   29CHL1   H2B 2121   4.224   0.336   6.661  0.1255  0.9303 -0.1562
   29CHL1   C20 2122   4.574   0.241   7.573 -0.3297 -0.6368  0.0228
   29CHL1   H20 2123   4.491   0.172   7.601  0.0473 -1.2136 -0.2667
   29CHL1   C21 2124   4.513   0.386   7.592  0.2056  0.5050  0.1034
   29CHL1  H21A 2125   4.422   0.398   7.529  1.1421 -2.4655 -2.0434
   29CHL1  H21B 2126   4.579   0.469   7.559  1.5474 -0.5255  0.1534
   29CHL1  H21C 2127   4.487   0.408   7.697 -1.8800  1.6258 -0.5837
   29CHL1   C22 2128   4.686   0.234   7.671 -0.2605  0.4729 -0.4402
   29CHL1  H22A 2129   4.761   0.164   7.630 -0.5004  0.6887 -1.2736
   29CHL1  H22B 2130   4.741   0.331   7.680  0.8690 -0.1073 -0.8443
   29CHL1   C23 2131   4.648   0.190   7.813  0.0365  0.1082 -1.1021
   29CHL1  H23A 2132   4.570   0.258   7.854  2.3127  0.8048  2.6007
   29CHL1  H23B 2133   4.605   0.089   7.801  0.5217 -0.0022 -2.0418
   29CHL1   C24 2134   4.763   0.197   7.921 -0.3956  0.0056  0.1854
   29CHL1  H24A 2135   4.780   0.297   7.967 -0.6174 -0.2417  0.8137
   29CHL1  H24B 2136   4.735   0.134   8.008  0.8827 -0.1779  0.4756
   29CHL1   C25 2137   4.903   0.155   7.878  0.1933  0.7250  0.5751
   29CHL1   H25 2138   4.931   0.225   7.796  1.5618  2.0838  2.1292
   29CHL1   C26 2139   5.010   0.170   7.981 -0.8855  0.1654  1.2156
   29CHL1  H26A 2140   5.103   0.123   7.944 -2.3255 -1.8124 -0.0445
   29CHL1  H26B 2141   5.045   0.275   7.994  1.1867  0.0559 -2.2831
   29CHL1  H26C 2142   4.987   0.122   8.079 -0.6828  0.5265  1.4434
   29CHL1   C27 2143   4.897   0.012   7.822  0.1363  0.3834 -0.2254
   29CHL1  H27A 2144   4.993  -0.032   7.788 -1.7400 -3.6241 -0.9935
   29CHL1  H27B 2145   4.856  -0.060   7.896  3.2766  1.5000  2.8420
   29CHL1  H27C 2146   4.833   0.002   7.732 -1.7498  0.3261  1.0596
   30CHL1    C3 2147   2.743   6.622   7.194  0.0563  0.0987  0.0019
   30CHL1    H3 2148   2.651   6.603   7.252 -0.6777  0.0787 -1.1385
   30CHL1    O3 2149   2.711   6.625   7.058  0.5856 -0.8812  0.4428
   30CHL1   H3' 2150   2.800   6.619   7.023  0.4767 -0.8738  0.1602
   30CHL1    C4 2151   2.798   6.761   7.232 -0.2399 -0.6546 -0.4072
   30CHL1   H4A 2152   2.884   6.781   7.164  0.0246  2.2664  0.6841
   30CHL1   H4B 2153   2.724   6.843   7.218 -0.0265 -0.3685  0.1442
   30CHL1    C5 2154   2.837   6.755   7.380  0.2783  0.1247  0.2795
   30CHL1    C6 2155   2.791   6.842   7.468 -0.7051  0.3970 -0.6748
   30CHL1    H6 2156   2.719   6.919   7.435 -0.0586  0.6345 -1.5686
   30CHL1    C7 2157   2.818   6.860   7.614 -0.0549  0.0184  0.9742
   30CHL1   H7A 2158   2.837   6.968   7.636  1.1041 -0.0780  0.5130
   30CHL1   H7B 2159   2.730   6.830   7.674  0.6004 -1.1347  1.3921
   30CHL1    C8 2160   2.931   6.752   7.650 -0.1276 -0.8811 -0.3966
   30CHL1    H8 2161   3.024   6.805   7.621  0.3028 -1.4137 -0.0191
   30CHL1   C14 2162   2.924   6.725   7.800  0.1070 -0.0669  0.0203
   30CHL1   H14 2163   2.831   6.669   7.821 -0.5990  0.0614 -2.4444
   30CHL1   C15 2164   2.910   6.852   7.888  0.2502  0.8076 -0.7026
   30CHL1  H15A 2165   2.963   6.938   7.842  0.4776 -0.1777 -2.3496
   30CHL1  H15B 2166   2.805   6.888   7.900 -0.9666 -2.6980  0.5426
   30CHL1   C16 2167   2.974   6.807   8.023  0.0320  0.2990  0.3303
   30CHL1  H16A 2168   3.056   6.874   8.054 -0.5364  1.2880 -0.2752
   30CHL1  H16B 2169   2.892   6.826   8.096 -0.5174  3.4379 -0.9640
   30CHL1   C17 2170   3.023   6.664   8.000  0.2541 -1.0696 -0.3982
   30CHL1   H17 2171   2.943   6.588   8.014  0.8663 -1.5260  0.7868
   30CHL1   C13 2172   3.049   6.655   7.849 -0.3306  0.9373  0.0655
   30CHL1   C18 2173   3.182   6.735   7.812  0.4025  0.2956  0.3552
   30CHL1  H18A 2174   3.161   6.844   7.819  0.4084  0.2420  1.2835
   30CHL1  H18B 2175   3.272   6.705   7.870  0.0411 -0.2347  0.6462
   30CHL1  H18C 2176   3.202   6.716   7.704 -0.1346  0.3125  0.2516
   30CHL1   C12 2177   3.030   6.507   7.779  0.5956 -0.5826 -0.0014
   30CHL1  H12A 2178   3.104   6.438   7.824 -1.1201 -1.0355  2.3374
   30CHL1  H12B 2179   2.931   6.475   7.817 -0.0757  0.3370 -0.9144
   30CHL1   C11 2180   3.035   6.514   7.631 -0.1681  0.2161  0.3599
   30CHL1  H11A 2181   3.133   6.551   7.594 -1.8356  2.5685 -2.0069
   30CHL1  H11B 2182   3.009   6.410   7.601  2.6103 -0.3834 -0.2730
   30CHL1    C9 2183   2.930   6.620   7.578  0.0028  0.2027 -0.0317
   30CHL1    H9 2184   2.833   6.576   7.612  0.1698  0.5464  0.9263
   30CHL1   C10 2185   2.925   6.630   7.419  0.7116 -0.1079 -0.7093
   30CHL1   C19 2186   3.059   6.659   7.359  0.2842  0.3189  0.0084
   30CHL1  H19A 2187   3.120   6.742   7.399 -1.2076  1.7834 -0.6327
   30CHL1  H19B 2188   3.119   6.565   7.363  2.1793  1.5291  2.1574
   30CHL1  H19C 2189   3.066   6.683   7.250 -0.2360  2.6717  0.4487
   30CHL1    C1 2190   2.865   6.495   7.369 -0.5522  1.1393 -0.2798
   30CHL1   H1A 2191   2.930   6.415   7.409  1.0669  2.6977  0.3762
   30CHL1   H1B 2192   2.765   6.480   7.416  0.9028 -1.9684  2.2008
   30CHL1    C2 2193   2.841   6.505   7.218  0.0714  0.4494 -0.2904
   30CHL1   H2A 2194   2.799   6.408   7.185  2.3136 -0.2400 -1.3226
   30CHL1   H2B 2195   2.936   6.519   7.161  1.6328  1.5838  2.4253
   30CHL1   C20 2196   3.123   6.622   8.106 -0.7509  0.4966 -0.2065
   30CHL1   H20 2197   3.199   6.702   8.117  1.4883 -1.6806  1.5246
   30CHL1   C21 2198   3.206   6.503   8.064  0.0063  0.0421 -0.0155
   30CHL1  H21A 2199   3.239   6.446   8.154 -0.7187 -0.6119 -0.1467
   30CHL1  H21B 2200   3.300   6.532   8.013  0.2421  1.2360  1.0698
   30CHL1  H21C 2201   3.147   6.431   8.003 -0.3748 -1.6148  2.1648
   30CHL1   C22 2202   3.060   6.600   8.246  0.1965 -0.2369  0.6551
   30CHL1  H22A 2203   2.982   6.675   8.273 -0.6293 -0.9532  0.2871
   30CHL1  H22B 2204   3.000   6.507   8.252 -0.6888  0.3529  1.2538
   30CHL1   C23 2205   3.175   6.613   8.351  0.6130  0.6282 -0.3472
   30CHL1  H23A 2206   3.274   6.578   8.316 -0.0428 -1.4187 -0.2880
   30CHL1  H23B 2207   3.180   6.723   8.362  1.1904  0.5308  0.4858
   30CHL1   C24 2208   3.140   6.557   8.494 -0.3982 -0.2891 -0.7134
   30CHL1  H24A 2209   3.051   6.608   8.536  0.1413 -1.1094  1.5692
   30CHL1  H24B 2210   3.125   6.447   8.489 -0.4119 -0.2930 -0.5906
   30CHL1   C25 2211   3.234   6.580   8.611 -0.6334  0.0256 -0.3659
   30CHL1   H25 2212   3.332   6.540   8.577  0.2733  0.8793  1.1160
   30CHL1   C26 2213   3.245   6.724   8.649 -0.9403  0.2621 -0.0197
   30CHL1  H26A 2214   3.287   6.767   8.556 -0.6244 -1.1700 -0.5539
   30CHL1  H26B 2215   3.152   6.776   8.679 -1.0358 -0.5771  1.2195
   30CHL1  H26C 2216   3.329   6.734   8.722 -1.2052 -1.1299  0.5039
   30CHL1   C27 2217   3.210   6.502   8.741  0.7272  0.0911  0.0857
   30CHL1  H27A 2218   3.189   6.397   8.710 -0.7729  0.0929  1.0142
   30CHL1  H27B 2219   3.287   6.536   8.813 -0.2485  0.3896  1.0038
   30CHL1  H27C 2220   3.109   6.532   8.776  0.5744  1.5795 -1.4856
   31CHL1    C3 2221   2.860   2.936   6.721 -0.6805  0.2864  0.6734
   31CHL1    H3 2222   2.771   3.001   6.733 -0.5264  1.0941 -1.9544
   31CHL1    O3 2223   2.893   2.925   6.585 -0.4882  0.1145  0.1763
   31CHL1   H3' 2224   2.988   2.933   6.573 -0.4816 -1.9822 -1.7936
   31CHL1    C4 2225   2.981   2.994   6.795 -0.4138  0.3107  0.0151
   31CHL1   H4A 2226   3.073   2.933   6.779 -1.7616 -1.3667 -1.7914
   31CHL1   H4B 2227   3.003   3.093   6.751 -0.1907 -0.4701 -1.7070
   31CHL1    C5 2228   2.967   2.995   6.944  0.5794 -0.6435  0.2306
   31CHL1    C6 2229   2.976   3.114   7.007  0.0310  0.0183 -0.3139
   31CHL1    H6 2230   2.989   3.206   6.947 -4.4330  0.2992 -1.1499
   31CHL1    C7 2231   2.970   3.116   7.157  0.0833  0.4763 -0.1408
   31CHL1   H7A 2232   3.045   3.188   7.197 -0.6806  1.1101  0.1708
   31CHL1   H7B 2233   2.876   3.165   7.189  1.1749  3.1786 -0.7679
   31CHL1    C8 2234   2.993   2.970   7.231  0.5860  0.0872  0.1345
   31CHL1    H8 2235   3.102   2.953   7.219  0.8975  0.7726  1.6569
   31CHL1   C14 2236   2.956   2.983   7.380  0.5539 -0.1546 -0.1437
   31CHL1   H14 2237   2.849   3.010   7.386  0.5701  0.1473 -1.0832
   31CHL1   C15 2238   3.032   3.085   7.466  0.1882 -0.0971  0.0059
   31CHL1  H15A 2239   3.138   3.052   7.468  0.8095  1.7785  0.5477
   31CHL1  H15B 2240   3.009   3.189   7.434 -2.8553 -0.8809 -0.6802
   31CHL1   C16 2241   2.984   3.056   7.609 -0.0273 -0.2500 -0.0333
   31CHL1  H16A 2242   3.068   3.071   7.679  1.0590 -0.4797 -1.2512
   31CHL1  H16B 2243   2.907   3.130   7.641 -0.2643 -1.4477  2.3161
   31CHL1   C17 2244   2.932   2.908   7.603 -0.6447  0.4155  0.1521
   31CHL1   H17 2245   2.821   2.909   7.602 -0.7075 -1.7402  1.0711
   31CHL1   C13 2246   2.968   2.853   7.460 -0.1921  0.1084  0.0243
   31CHL1   C18 2247   3.110   2.804   7.453 -0.4164 -0.1500  0.3253
   31CHL1  H18A 2248   3.148   2.806   7.349  0.3183  0.9886  0.6003
   31CHL1  H18B 2249   3.186   2.866   7.503 -0.6218 -0.2198  0.7260
   31CHL1  H18C 2250   3.121   2.701   7.491  0.2837  0.2569  1.2465
   31CHL1   C12 2251   2.863   2.751   7.398  0.1849 -0.5667 -0.5725
   31CHL1  H12A 2252   2.848   2.656   7.453  0.9596  0.3888  1.4234
   31CHL1  H12B 2253   2.766   2.806   7.400  1.7369  2.4583  1.7440
   31CHL1   C11 2254   2.897   2.731   7.246  0.7504 -0.2824 -0.1014
   31CHL1  H11A 2255   2.991   2.674   7.232  0.3707 -0.3247 -3.0535
   31CHL1  H11B 2256   2.816   2.668   7.203  0.6280 -1.1111  1.2482
   31CHL1    C9 2257   2.901   2.865   7.166 -0.6387  0.1643  0.8764
   31CHL1    H9 2258   2.802   2.916   7.160  1.3588  4.3682 -0.4777
   31CHL1   C10 2259   2.937   2.852   7.013 -0.3079 -1.1680  0.2599
   31CHL1   C19 2260   3.058   2.756   7.002  0.1070  1.1258 -0.6878
   31CHL1  H19A 2261   3.113   2.747   6.905 -0.8938 -1.1853 -1.1112
   31CHL1  H19B 2262   3.139   2.784   7.073 -0.6639 -0.2562  0.7894
   31CHL1  H19C 2263   3.017   2.654   7.012 -0.5116  1.4570  0.2944
   31CHL1    C1 2264   2.813   2.796   6.935 -0.0363 -0.4140  0.1968
   31CHL1   H1A 2265   2.799   2.690   6.965  0.4684 -0.9075 -1.1972
   31CHL1   H1B 2266   2.718   2.846   6.962 -0.8642 -2.3254  1.0087
   31CHL1    C2 2267   2.823   2.803   6.780  0.3958  1.2930 -0.2712
   31CHL1   H2A 2268   2.727   2.765   6.738  0.2610 -0.5317  1.5563
   31CHL1   H2B 2269   2.901   2.731   6.749 -0.7294 -0.3377  0.5319
   31CHL1   C20 2270   2.982   2.826   7.725  0.5645 -0.8174  0.1823
   31CHL1   H20 2271   3.093   2.826   7.730  0.5798 -0.9515 -0.1488
   31CHL1   C21 2272   2.930   2.684   7.727 -0.0121 -0.2942 -0.0166
   31CHL1  H21A 2273   2.959   2.636   7.823 -0.0229 -0.2957 -0.0138
   31CHL1  H21B 2274   2.977   2.619   7.650 -2.5494  0.6541 -2.5679
   31CHL1  H21C 2275   2.822   2.664   7.708  0.1471 -0.9443 -0.2545
   31CHL1   C22 2276   2.929   2.888   7.858  0.0131  0.2886  0.4523
   31CHL1  H22A 2277   2.924   2.999   7.854 -0.3209  0.4542  3.4646
   31CHL1  H22B 2278   2.824   2.855   7.855 -0.2458  1.1168 -1.9152
   31CHL1   C23 2279   2.994   2.836   7.986  0.2490  0.1178  0.7118
   31CHL1  H23A 2280   2.943   2.744   8.020  0.8142 -1.1197 -1.6532
   31CHL1  H23B 2281   3.098   2.802   7.970  0.3427  0.5758  0.3459
   31CHL1   C24 2282   2.978   2.932   8.099  0.3068 -0.1525 -0.2830
   31CHL1  H24A 2283   3.016   3.027   8.056  1.9914 -1.3127 -1.4951
   31CHL1  H24B 2284   2.871   2.943   8.127  0.5898 -0.8816  1.2108
   31CHL1   C25 2285   3.059   2.895   8.228 -0.0316 -0.5914  0.6668
   31CHL1   H25 2286   3.160   2.859   8.199 -0.2691 -0.8639  0.1732
   31CHL1   C26 2287   3.082   3.019   8.326  0.4242  0.2679  0.8853
   31CHL1  H26A 2288   2.988   3.043   8.379  1.1749  1.7109  1.6254
   31CHL1  H26B 2289   3.163   2.984   8.394  0.7817 -2.5572 -0.8257
   31CHL1  H26C 2290   3.120   3.108   8.270  0.7580  0.3583  1.2533
   31CHL1   C27 2291   2.995   2.766   8.303  0.0073 -0.2905  0.1926
   31CHL1  H27A 2292   3.075   2.720   8.365 -0.6112  0.8925  1.9332
   31CHL1  H27B 2293   2.973   2.690   8.226  0.9144 -0.7852  0.4080
   31CHL1  H27C 2294   2.906   2.798   8.362 -1.0707  0.6183 -1.8109
   32CHL1    C3 2295   2.933   5.965   7.090  0.3881 -0.1927 -0.1765
   32CHL1    H3 2296   3.043   5.960   7.095  0.2900 -3.4093  1.4355
   32CHL1    O3 2297   2.892   5.948   6.947  0.2239  0.2274  0.4329
   32CHL1   H3' 2298   2.805   5.984   6.929  0.3317  0.4246  0.3022
   32CHL1    C4 2299   2.874   5.846   7.166  0.0499 -0.9830  0.1111
   32CHL1   H4A 2300   2.766   5.845   7.139  0.3020  0.7832 -1.1256
   32CHL1   H4B 2301   2.911   5.754   7.117  2.9591  0.4436 -0.6083
   32CHL1    C5 2302   2.891   5.864   7.319  0.0018 -0.0544  0.3267
   32CHL1    C6 2303   2.942   5.765   7.393 -0.3207 -0.2328 -0.1092
   32CHL1    H6 2304   2.963   5.668   7.344 -1.3795  0.3203 -1.7410
   32CHL1    C7 2305   2.964   5.771   7.539 -0.2401  0.2043 -0.2338
   32CHL1   H7A 2306   2.928   5.679   7.590  2.9719  0.3156  2.6174
   32CHL1   H7B 2307   3.070   5.776   7.572 -0.1698 -0.8841 -0.2532
   32CHL1    C8 2308   2.880   5.888   7.604 -0.1323  0.0159 -0.6515
   32CHL1    H8 2309   2.774   5.866   7.628  0.5212 -0.6863  2.0756
   32CHL1   C14 2310   2.945   5.911   7.736 -0.0338 -0.5177  0.1040
   32CHL1   H14 2311   3.046   5.954   7.721 -0.3226  0.1343 -0.0076
   32CHL1   C15 2312   2.969   5.789   7.815 -0.6787 -0.0705 -1.1136
   32CHL1  H15A 2313   2.886   5.715   7.813  0.3299 -1.3033  0.0849
   32CHL1  H15B 2314   3.062   5.735   7.787 -0.5856  1.0410 -3.0892
   32CHL1   C16 2315   2.970   5.842   7.956 -0.2509 -0.0587  0.3734
   32CHL1  H16A 2316   2.896   5.797   8.026 -0.3474 -2.0283 -0.9282
   32CHL1  H16B 2317   3.069   5.821   8.001 -0.1839 -2.4938 -0.7665
   32CHL1   C17 2318   2.962   5.998   7.944 -0.0498 -0.6148  0.3979
   32CHL1   H17 2319   3.065   6.031   7.918 -0.5270  0.8836  0.3115
   32CHL1   C13 2320   2.875   6.020   7.820 -0.2802  0.0652 -0.1832
   32CHL1   C18 2321   2.728   5.981   7.854  0.3236 -0.5184  0.6820
   32CHL1  H18A 2322   2.669   5.965   7.761  1.2232 -0.3139  0.0667
   32CHL1  H18B 2323   2.721   5.890   7.916  0.6863  0.8804  2.8720
   32CHL1  H18C 2324   2.675   6.068   7.900  1.6901  0.7815 -0.1152
   32CHL1   C12 2325   2.885   6.154   7.746 -0.1680 -0.4760 -0.1318
   32CHL1  H12A 2326   2.829   6.224   7.811 -0.6077  0.5459 -1.5621
   32CHL1  H12B 2327   2.993   6.179   7.733 -0.6015  0.4321 -2.4073
   32CHL1   C11 2328   2.825   6.140   7.602 -0.4464  0.1189  0.0474
   32CHL1  H11A 2329   2.716   6.120   7.603  0.0196 -3.1051 -0.4256
   32CHL1  H11B 2330   2.854   6.234   7.550 -0.4295  1.0867  1.7323
   32CHL1    C9 2331   2.901   6.019   7.527  0.7118 -0.0259  0.7693
   32CHL1    H9 2332   3.010   6.042   7.518 -0.0208  4.1013  0.6723
   32CHL1   C10 2333   2.854   6.000   7.379  0.2443 -0.7862  0.3700
   32CHL1   C19 2334   2.702   6.013   7.373 -0.3787  0.2859 -0.5020
   32CHL1  H19A 2335   2.654   5.949   7.450  1.2218 -0.4261 -0.0663
   32CHL1  H19B 2336   2.661   6.114   7.399 -1.5111 -0.8315  2.5352
   32CHL1  H19C 2337   2.673   5.976   7.273  0.0988 -2.3190  0.2621
   32CHL1    C1 2338   2.916   6.113   7.295  0.3258  0.1447 -0.1350
   32CHL1   H1A 2339   2.907   6.215   7.340  1.0499 -0.6610  1.9444
   32CHL1   H1B 2340   3.025   6.097   7.308  0.3042  0.9583  1.2762
   32CHL1    C2 2341   2.880   6.101   7.144  0.5568  0.2370  0.2995
   32CHL1   H2A 2342   2.923   6.194   7.100 -1.9139  0.4824 -1.8448
   32CHL1   H2B 2343   2.770   6.116   7.136  0.6355  0.5007 -0.3603
   32CHL1   C20 2344   2.935   6.076   8.071 -0.3515 -0.8054 -0.2289
   32CHL1   H20 2345   2.825   6.081   8.078 -0.5202 -1.9784 -1.6614
   32CHL1   C21 2346   2.993   6.212   8.054 -0.1460 -0.4756 -0.1705
   32CHL1  H21A 2347   2.979   6.279   8.142  0.1243 -1.0136  0.2856
   32CHL1  H21B 2348   2.974   6.271   7.962  1.0530 -0.0280 -0.1420
   32CHL1  H21C 2349   3.103   6.199   8.056  0.1172  1.4588  0.9303
   32CHL1   C22 2350   2.990   6.016   8.197  0.4312 -0.2850 -0.0111
   32CHL1  H22A 2351   2.957   5.910   8.193  0.2502 -0.1948 -2.0671
   32CHL1  H22B 2352   3.098   6.023   8.222  0.0519 -0.9158  2.0539
   32CHL1   C23 2353   2.911   6.074   8.322 -0.5452  0.7281  0.4909
   32CHL1  H23A 2354   2.928   6.184   8.323 -2.0534  0.9778  0.6050
   32CHL1  H23B 2355   2.804   6.068   8.293  0.1366  0.0575 -2.1464
   32CHL1   C24 2356   2.945   6.014   8.463 -0.9857 -0.2448  0.0201
   32CHL1  H24A 2357   2.867   6.056   8.532 -2.0002 -1.0143 -0.6256
   32CHL1  H24B 2358   2.931   5.904   8.474  1.5275 -0.5476  0.6338
   32CHL1   C25 2359   3.096   6.023   8.517  0.6749 -0.0113  0.5070
   32CHL1   H25 2360   3.148   5.952   8.450 -0.9768 -1.5067  0.7125
   32CHL1   C26 2361   3.151   6.160   8.508 -0.2697  0.1593 -0.4003
   32CHL1  H26A 2362   3.261   6.162   8.527 -0.3566 -2.4992  0.7454
   32CHL1  H26B 2363   3.138   6.189   8.401 -0.6803  0.3768 -0.2924
   32CHL1  H26C 2364   3.103   6.229   8.580 -0.0031 -1.2569  1.1801
   32CHL1   C27 2365   3.111   5.966   8.658  0.1843  0.1191 -0.5050
   32CHL1  H27A 2366   3.217   5.940   8.674  0.1066 -1.4394 -2.2111
   32CHL1  H27B 2367   3.079   6.034   8.739 -0.8243  0.3893 -1.1031
   32CHL1  H27C 2368   3.054   5.872   8.677  2.1438 -0.6734  1.8476
   33CHL1    C3 2369   3.247   6.381   6.948  0.4773  0.5779  0.2208
   33CHL1    H3 2370   3.259   6.488   6.976 -2.1571  0.7499  0.9283
   33CHL1    O3 2371   3.219   6.381   6.808 -0.1895  0.4033 -0.2700
   33CHL1   H3' 2372   3.298   6.416   6.768  0.7354 -1.5916 -0.3297
   33CHL1    C4 2373   3.378   6.307   6.963 -0.5960  0.4337 -0.2941
   33CHL1   H4A 2374   3.360   6.202   6.932  0.5559  0.2883 -0.5167
   33CHL1   H4B 2375   3.461   6.350   6.902 -0.9955  3.0230  0.8594
   33CHL1    C5 2376   3.420   6.313   7.107 -0.1848 -0.4239 -0.2688
   33CHL1    C6 2377   3.533   6.373   7.148 -0.0548  0.2462  0.0146
   33CHL1    H6 2378   3.599   6.427   7.079  2.3057  1.4712  2.9948
   33CHL1    C7 2379   3.583   6.370   7.286 -0.6089 -0.0387  0.0550
   33CHL1   H7A 2380   3.690   6.346   7.265 -0.2824  1.0503  0.4133
   33CHL1   H7B 2381   3.575   6.473   7.326 -3.2746  0.5886 -1.8453
   33CHL1    C8 2382   3.512   6.271   7.376  0.3937  0.0893  0.5116
   33CHL1    H8 2383   3.547   6.166   7.366 -0.7481 -0.5065  2.2659
   33CHL1   C14 2384   3.539   6.297   7.522  0.4183  0.6436 -0.5964
   33CHL1   H14 2385   3.511   6.402   7.546  3.1858  0.9844  1.5948
   33CHL1   C15 2386   3.684   6.296   7.570  0.7730 -0.0162  0.3540
   33CHL1  H15A 2387   3.742   6.212   7.528  1.9797  0.8955  0.1238
   33CHL1  H15B 2388   3.741   6.387   7.541 -0.3819  0.3719 -0.8526
   33CHL1   C16 2389   3.671   6.290   7.719 -0.7439 -0.0842 -0.7119
   33CHL1  H16A 2390   3.751   6.214   7.738  0.9397  1.6992 -0.3451
   33CHL1  H16B 2391   3.703   6.390   7.754  1.6817 -1.2878  0.7777
   33CHL1   C17 2392   3.528   6.265   7.751 -0.2213  0.1093  0.5328
   33CHL1   H17 2393   3.475   6.362   7.765 -0.5555 -0.4234  3.9861
   33CHL1   C13 2394   3.462   6.205   7.624 -0.4312  0.1413 -0.5151
   33CHL1   C18 2395   3.506   6.056   7.601  0.5211 -0.1523 -0.7665
   33CHL1  H18A 2396   3.455   5.992   7.676  1.9777 -0.0467  0.3546
   33CHL1  H18B 2397   3.487   6.014   7.499 -2.5689 -0.5302 -0.1467
   33CHL1  H18C 2398   3.612   6.030   7.621 -0.0730 -0.5200  2.3986
   33CHL1   C12 2399   3.311   6.252   7.608 -0.4609 -0.4285  0.9407
   33CHL1  H12A 2400   3.249   6.190   7.676 -1.6616 -1.8481 -1.3160
   33CHL1  H12B 2401   3.298   6.360   7.630  1.7812  0.1325 -0.1584
   33CHL1   C11 2402   3.267   6.221   7.471  0.3776  0.3550  0.2973
   33CHL1  H11A 2403   3.274   6.110   7.465  0.5850  0.3181  1.0614
   33CHL1  H11B 2404   3.161   6.247   7.451  0.5218 -0.7722 -2.3714
   33CHL1    C9 2405   3.355   6.283   7.354  1.1655 -0.1823 -0.5696
   33CHL1    H9 2406   3.339   6.392   7.371 -1.4967 -0.1851 -2.4793
   33CHL1   C10 2407   3.320   6.249   7.205  0.6392 -0.0150  0.4584
   33CHL1   C19 2408   3.316   6.099   7.179 -1.1561  0.3563  0.3171
   33CHL1  H19A 2409   3.337   6.065   7.075 -0.4122 -0.7056  0.7983
   33CHL1  H19B 2410   3.397   6.055   7.241  0.1543  0.5629 -1.2098
   33CHL1  H19C 2411   3.221   6.057   7.219 -1.0443  0.2428  0.4662
   33CHL1    C1 2412   3.183   6.314   7.178  0.1564 -0.3061  0.3084
   33CHL1   H1A 2413   3.114   6.258   7.245  0.2821 -1.4356 -0.4839
   33CHL1   H1B 2414   3.189   6.419   7.215  1.1620 -0.5681  0.9326
   33CHL1    C2 2415   3.139   6.315   7.036  0.6535 -0.5918  0.0425
   33CHL1   H2A 2416   3.040   6.363   7.017 -0.3129 -1.6946  2.0384
   33CHL1   H2B 2417   3.128   6.212   6.997 -1.9022  0.7227 -3.2486
   33CHL1   C20 2418   3.517   6.182   7.877 -0.4596 -1.1964 -0.1678
   33CHL1   H20 2419   3.574   6.088   7.860 -1.2120 -1.9090  1.1402
   33CHL1   C21 2420   3.372   6.153   7.913  0.1322  0.3034 -0.0606
   33CHL1  H21A 2421   3.308   6.243   7.907 -1.2393 -0.5692  0.9629
   33CHL1  H21B 2422   3.352   6.103   8.010 -2.5623 -0.1913 -0.8048
   33CHL1  H21C 2423   3.345   6.087   7.828  2.0493 -0.7584  0.0941
   33CHL1   C22 2424   3.598   6.257   7.991  0.3222  0.9404 -0.4081
   33CHL1  H22A 2425   3.703   6.280   7.963  0.9650 -0.7313  0.4840
   33CHL1  H22B 2426   3.541   6.352   8.000 -1.1012  0.1972 -1.1564
   33CHL1   C23 2427   3.592   6.192   8.133  0.2165 -0.6033  0.8749
   33CHL1  H23A 2428   3.491   6.149   8.150 -0.3621 -0.6048 -1.9825
   33CHL1  H23B 2429   3.666   6.110   8.128 -0.3064 -1.1677  2.1547
   33CHL1   C24 2430   3.612   6.290   8.246 -0.1448  0.0054 -0.9043
   33CHL1  H24A 2431   3.713   6.334   8.233 -0.3226  0.1918 -1.7143
   33CHL1  H24B 2432   3.533   6.366   8.225 -0.0566  0.3928  0.1204
   33CHL1   C25 2433   3.582   6.230   8.387 -0.1309 -0.6749  0.2495
   33CHL1   H25 2434   3.480   6.187   8.398  1.6002 -4.7113  3.2139
   33CHL1   C26 2435   3.677   6.116   8.423  0.3548 -0.0057  0.2163
   33CHL1  H26A 2436   3.781   6.146   8.399  0.4017 -0.1838  0.1968
   33CHL1  H26B 2437   3.674   6.077   8.527  1.9952 -2.1948 -0.4813
   33CHL1  H26C 2438   3.657   6.027   8.358  2.2218 -1.5492  1.6490
   33CHL1   C27 2439   3.614   6.338   8.490 -0.1478  0.2788 -0.3014
   33CHL1  H27A 2440   3.617   6.296   8.593 -2.7074 -1.2598 -0.7586
   33CHL1  H27B 2441   3.712   6.380   8.461 -0.6343 -0.0256 -2.6129
   33CHL1  H27C 2442   3.547   6.427   8.483 -0.9412 -0.3556 -0.9409
   34CHL1    C3 2443   5.528   5.434   7.163 -0.2487 -0.4496 -0.2601
   34CHL1    H3 2444   5.636   5.443   7.188  0.0002  2.1796 -1.8229
   34CHL1    O3 2445   5.514   5.437   7.023 -0.2606 -0.4011  0.0636
   34CHL1   H3' 2446   5.420   5.449   7.008 -0.1211 -0.0623 -0.5919
   34CHL1    C4 2447   5.473   5.304   7.213  0.4465  0.0882  0.1863
   34CHL1   H4A 2448   5.363   5.304   7.194  0.6436  2.2004 -1.2208
   34CHL1   H4B 2449   5.513   5.210   7.169 -2.0286 -0.5694 -0.8869
   34CHL1    C5 2450   5.473   5.287   7.366 -0.1813  0.0494  0.0886
   34CHL1    C6 2451   5.536   5.194   7.436 -0.4297  0.2939 -0.4482
   34CHL1    H6 2452   5.579   5.111   7.379 -2.4216 -1.8074  0.8892
   34CHL1    C7 2453   5.532   5.186   7.580  0.1563  0.0478 -0.2991
   34CHL1   H7A 2454   5.504   5.082   7.608 -1.0205  1.2253  3.4689
   34CHL1   H7B 2455   5.629   5.210   7.628  0.3702 -1.5118  0.1075
   34CHL1    C8 2456   5.420   5.279   7.651 -0.3013 -0.2035 -0.3283
   34CHL1    H8 2457   5.319   5.235   7.638 -0.7110  0.9166 -1.1108
   34CHL1   C14 2458   5.449   5.291   7.796 -0.3085 -0.6323 -0.3554
   34CHL1   H14 2459   5.550   5.337   7.797  0.5787 -2.3750 -2.2014
   34CHL1   C15 2460   5.466   5.164   7.882  0.1076  0.3742  0.0195
   34CHL1  H15A 2461   5.370   5.116   7.853 -0.6127  0.8630  1.4637
   34CHL1  H15B 2462   5.551   5.095   7.867 -1.7424 -2.2610  0.9590
   34CHL1   C16 2463   5.442   5.218   8.023  0.0880  0.3878  0.7356
   34CHL1  H16A 2464   5.357   5.161   8.067  1.5178 -0.4054  2.6492
   34CHL1  H16B 2465   5.535   5.201   8.082 -0.1927  1.0382  1.3783
   34CHL1   C17 2466   5.410   5.371   8.012  0.9336  0.3166 -0.8070
   34CHL1   H17 2467   5.502   5.433   8.005  0.6073  0.7587 -1.2260
   34CHL1   C13 2468   5.351   5.381   7.865 -0.0723  0.6129  0.3421
   34CHL1   C18 2469   5.199   5.338   7.855  0.5010  0.2008 -0.1223
   34CHL1  H18A 2470   5.141   5.418   7.907  1.2575 -0.2572  1.4838
   34CHL1  H18B 2471   5.178   5.327   7.747  0.3227  1.6323 -0.2592
   34CHL1  H18C 2472   5.167   5.240   7.897 -1.4882  1.3564  1.2111
   34CHL1   C12 2473   5.360   5.519   7.817 -0.0122 -0.6680 -0.4401
   34CHL1  H12A 2474   5.283   5.579   7.869  1.6080  1.9966 -0.9158
   34CHL1  H12B 2475   5.462   5.556   7.843 -0.1642 -0.9117  0.5314
   34CHL1   C11 2476   5.346   5.522   7.667  0.9289 -0.1759  0.9724
   34CHL1  H11A 2477   5.239   5.495   7.656  1.1930 -0.8632 -0.1488
   34CHL1  H11B 2478   5.367   5.625   7.631 -2.7487  0.1411 -0.7478
   34CHL1    C9 2479   5.427   5.414   7.585 -0.3953 -0.6062  0.3840
   34CHL1    H9 2480   5.529   5.455   7.599 -1.0164  0.6147  1.5724
   34CHL1   C10 2481   5.395   5.414   7.435 -0.3572 -0.3356 -0.3179
   34CHL1   C19 2482   5.243   5.400   7.412  0.1580 -0.2325  0.1025
   34CHL1  H19A 2483   5.192   5.489   7.455 -0.6273 -1.0596  0.9185
   34CHL1  H19B 2484   5.225   5.407   7.302 -1.4671  1.8882  0.4274
   34CHL1  H19C 2485   5.197   5.304   7.442 -2.3449  1.2674  1.4357
   34CHL1    C1 2486   5.458   5.548   7.385  0.1589 -0.6501  0.4445
   34CHL1   H1A 2487   5.406   5.635   7.430  0.2736 -0.6504  0.5770
   34CHL1   H1B 2488   5.565   5.543   7.415  0.3172 -1.4633 -0.2261
   34CHL1    C2 2489   5.456   5.554   7.230 -0.0245 -0.0744 -0.9639
   34CHL1   H2A 2490   5.508   5.647   7.197  3.3405 -1.5521 -0.3240
   34CHL1   H2B 2491   5.350   5.563   7.200 -0.2923 -1.6700 -0.5961
   34CHL1   C20 2492   5.325   5.433   8.126  0.3601 -0.0103 -0.6239
   34CHL1   H20 2493   5.246   5.493   8.077  0.4941  0.8885  0.2314
   34CHL1   C21 2494   5.416   5.539   8.204  0.3418 -0.3151  0.6099
   34CHL1  H21A 2495   5.463   5.619   8.143  0.9895 -1.2151 -0.1199
   34CHL1  H21B 2496   5.502   5.492   8.257  1.2182 -0.0680 -0.5484
   34CHL1  H21C 2497   5.358   5.590   8.283  1.2598  0.3358  0.8765
   34CHL1   C22 2498   5.251   5.337   8.221 -0.4464  0.0985 -0.2527
   34CHL1  H22A 2499   5.168   5.293   8.161 -0.4617  1.0498 -0.9571
   34CHL1  H22B 2500   5.323   5.258   8.250 -1.2590  0.1002  1.9454
   34CHL1   C23 2501   5.198   5.403   8.345 -0.1384 -0.1788  0.7751
   34CHL1  H23A 2502   5.280   5.436   8.412  0.0908  2.4383 -0.6450
   34CHL1  H23B 2503   5.154   5.500   8.312 -1.2806 -0.7989  0.4104
   34CHL1   C24 2504   5.093   5.310   8.409  0.1177 -0.0861  0.2777
   34CHL1  H24A 2505   5.003   5.295   8.346  0.6428 -1.9259 -0.0930
   34CHL1  H24B 2506   5.131   5.208   8.432  1.1030  0.7932  2.9901
   34CHL1   C25 2507   5.032   5.360   8.535  0.0917 -0.9101 -0.1025
   34CHL1   H25 2508   4.962   5.281   8.570 -1.5373  0.7591  0.5795
   34CHL1   C26 2509   5.136   5.380   8.652 -0.0591  0.4016  0.5625
   34CHL1  H26A 2510   5.189   5.472   8.620  1.3880 -0.2067  1.1791
   34CHL1  H26B 2511   5.076   5.396   8.744 -0.6282  0.6082  0.1651
   34CHL1  H26C 2512   5.200   5.291   8.668 -1.7320 -0.5570  2.3073
   34CHL1   C27 2513   4.955   5.489   8.526  0.1491 -0.0439  0.2670
   34CHL1  H27A 2514   5.029   5.571   8.515  1.1095 -1.0420 -1.1090
   34CHL1  H27B 2515   4.878   5.478   8.446 -1.5238  0.7532  1.7066
   34CHL1  H27C 2516   4.901   5.512   8.620 -1.7361  0.7494 -0.9390
   35CHL1    C3 2517   1.301   6.662   7.299 -0.4592  1.0156  0.1563
   35CHL1    H3 2518   1.194   6.689   7.308 -0.4217  0.5834  2.3735
   35CHL1    O3 2519   1.341   6.643   7.160 -0.3517 -0.2770 -0.8880
   35CHL1   H3' 2520   1.422   6.593   7.170 -0.0873  0.5789  3.2042
   35CHL1    C4 2521   1.392   6.763   7.352 -0.5931 -0.4997 -0.6158
   35CHL1   H4A 2522   1.498   6.733   7.339  0.0062 -0.1806  2.7646
   35CHL1   H4B 2523   1.376   6.859   7.298 -0.6513 -0.8403 -1.2177
   35CHL1    C5 2524   1.381   6.784   7.501 -0.0748  0.2516  0.3206
   35CHL1    C6 2525   1.355   6.901   7.554  0.1976  0.7994 -0.2182
   35CHL1    H6 2526   1.336   6.987   7.489 -1.6212  0.4941 -0.1443
   35CHL1    C7 2527   1.352   6.918   7.705  0.5728 -0.4718 -0.0329
   35CHL1   H7A 2528   1.400   7.011   7.741 -0.1635 -0.6715  1.5523
   35CHL1   H7B 2529   1.248   6.928   7.742  0.8189 -0.9500  0.7951
   35CHL1    C8 2530   1.406   6.804   7.789 -0.0347 -0.9153 -0.8279
   35CHL1    H8 2531   1.517   6.815   7.789  0.1187 -2.2593 -1.6262
   35CHL1   C14 2532   1.350   6.824   7.931 -0.4364 -0.4185 -1.1427
   35CHL1   H14 2533   1.239   6.824   7.929 -0.4698  0.0271  0.2314
   35CHL1   C15 2534   1.380   6.960   8.006  0.6441  0.0062 -0.5995
   35CHL1  H15A 2535   1.483   6.994   7.981  0.9740  0.0934  0.8126
   35CHL1  H15B 2536   1.299   7.035   7.992 -1.2502 -1.6801  0.6934
   35CHL1   C16 2537   1.380   6.925   8.153 -0.6132  0.2595 -1.0713
   35CHL1  H16A 2538   1.484   6.928   8.192 -0.9598  0.2057 -0.1269
   35CHL1  H16B 2539   1.326   6.988   8.227  2.2132  1.8382 -0.2152
   35CHL1   C17 2540   1.344   6.771   8.163 -0.5449  0.1162 -0.1512
   35CHL1   H17 2541   1.234   6.768   8.171 -0.5049  0.5082  0.6906
   35CHL1   C13 2542   1.390   6.715   8.023 -0.7776  0.1025 -0.5330
   35CHL1   C18 2543   1.548   6.703   8.026 -0.2428  0.4579 -0.0091
   35CHL1  H18A 2544   1.595   6.790   8.078  1.4115 -0.7949  0.7046
   35CHL1  H18B 2545   1.571   6.613   8.087  0.5327  1.0446  0.6025
   35CHL1  H18C 2546   1.605   6.679   7.934  2.1652  1.4785  1.1244
   35CHL1   C12 2547   1.321   6.587   7.971 -0.2751 -0.4464  0.3905
   35CHL1  H12A 2548   1.347   6.502   8.038  1.2303  0.5576  1.1371
   35CHL1  H12B 2549   1.211   6.604   7.973 -0.4329 -1.4081  0.3288
   35CHL1   C11 2550   1.374   6.552   7.827  0.3696 -0.4095  0.2407
   35CHL1  H11A 2551   1.483   6.531   7.836  0.4082  0.4392  2.7168
   35CHL1  H11B 2552   1.311   6.467   7.793 -1.0804  1.0494 -0.8736
   35CHL1    C9 2553   1.356   6.675   7.733  0.2852  0.6296 -0.3215
   35CHL1    H9 2554   1.246   6.689   7.732  0.3285  0.9975  0.1112
   35CHL1   C10 2555   1.401   6.653   7.578  0.4469 -0.0096 -1.0129
   35CHL1   C19 2556   1.558   6.619   7.588  0.3132  0.0025  0.4217
   35CHL1  H19A 2557   1.570   6.523   7.644 -2.1989  0.1782  1.3965
   35CHL1  H19B 2558   1.597   6.608   7.484  3.5741  1.1024  1.4041
   35CHL1  H19C 2559   1.605   6.702   7.645 -1.1672  0.0843  1.5731
   35CHL1    C1 2560   1.312   6.545   7.515  0.4543 -0.1931  0.5121
   35CHL1   H1A 2561   1.345   6.444   7.548 -2.4098 -1.5397 -0.4324
   35CHL1   H1B 2562   1.206   6.555   7.546 -0.2297 -0.4188 -1.5832
   35CHL1    C2 2563   1.318   6.532   7.362 -0.5122 -0.1148  0.0792
   35CHL1   H2A 2564   1.237   6.464   7.326 -1.5181  1.7581 -1.3269
   35CHL1   H2B 2565   1.418   6.489   7.339  0.1382  0.6388  1.4254
   35CHL1   C20 2566   1.400   6.701   8.288  0.1503  0.0724 -0.1584
   35CHL1   H20 2567   1.510   6.719   8.289 -0.0920  1.8654 -1.3412
   35CHL1   C21 2568   1.383   6.549   8.288  0.2417 -0.0757 -0.6662
   35CHL1  H21A 2569   1.377   6.514   8.393 -3.3114  1.2820 -0.2988
   35CHL1  H21B 2570   1.462   6.483   8.246  1.5856  0.9455  0.1857
   35CHL1  H21C 2571   1.286   6.526   8.239  1.2535 -1.5796 -2.0936
   35CHL1   C22 2572   1.328   6.753   8.412  0.5484  0.0786 -0.1304
   35CHL1  H22A 2573   1.332   6.864   8.420  1.5776 -0.0262  1.1544
   35CHL1  H22B 2574   1.224   6.716   8.404  0.6876 -0.5989  0.9588
   35CHL1   C23 2575   1.401   6.724   8.543 -0.5945 -0.1644 -0.0747
   35CHL1  H23A 2576   1.376   6.617   8.560  0.2767 -0.9167 -2.8759
   35CHL1  H23B 2577   1.510   6.739   8.527 -0.0693 -1.4470  1.9472
   35CHL1   C24 2578   1.337   6.794   8.662 -0.3708 -0.7476  0.4294
   35CHL1  H24A 2579   1.363   6.898   8.632  0.9572 -0.7550  1.4777
   35CHL1  H24B 2580   1.226   6.781   8.661 -0.4489 -0.5017  2.3795
   35CHL1   C25 2581   1.391   6.772   8.801  0.1087  0.4260  0.5305
   35CHL1   H25 2582   1.364   6.670   8.835  0.3701 -0.0192 -0.5438
   35CHL1   C26 2583   1.546   6.769   8.797 -0.3480  0.3669  0.1396
   35CHL1  H26A 2584   1.578   6.862   8.746 -0.3044 -0.1813 -0.8500
   35CHL1  H26B 2585   1.599   6.783   8.894  3.1614  0.6468 -1.6545
   35CHL1  H26C 2586   1.592   6.680   8.748 -2.7131 -0.3834 -0.8534
   35CHL1   C27 2587   1.333   6.869   8.903  0.4981 -0.0808  0.0341
   35CHL1  H27A 2588   1.367   6.842   9.005 -1.0586 -1.8030  0.1574
   35CHL1  H27B 2589   1.222   6.869   8.896  0.5699 -0.0181 -1.3953
   35CHL1  H27C 2590   1.364   6.974   8.887 -0.5930 -0.0398 -2.2088
   36CHL1    C3 2591   2.064   5.262   7.163 -0.1762  0.2157  0.2261
   36CHL1    H3 2592   2.114   5.165   7.182 -0.8963 -0.1200  0.4575
   36CHL1    O3 2593   2.067   5.299   7.026  0.3434 -0.1728  0.1043
   36CHL1   H3' 2594   2.010   5.376   7.022 -1.0718 -1.0483  1.9267
   36CHL1    C4 2595   1.914   5.241   7.204 -0.0659  0.3554 -0.0744
   36CHL1   H4A 2596   1.859   5.333   7.174  0.7853  0.5435 -1.1117
   36CHL1   H4B 2597   1.869   5.165   7.138 -0.2972 -2.0547  2.6389
   36CHL1    C5 2598   1.912   5.199   7.351 -0.5948 -0.6762  0.5715
   36CHL1    C6 2599   1.885   5.075   7.390  0.6165  0.2331  0.5669
   36CHL1    H6 2600   1.852   5.001   7.315  1.2701  0.8495 -0.3496
   36CHL1    C7 2601   1.873   5.030   7.531 -0.7422 -0.3825 -0.9148
   36CHL1   H7A 2602   1.790   4.964   7.563 -1.0338  1.1792  1.9291
   36CHL1   H7B 2603   1.956   4.964   7.564 -0.8576 -0.7424 -1.3298
   36CHL1    C8 2604   1.875   5.158   7.625  0.3354  0.3624 -0.3087
   36CHL1    H8 2605   1.774   5.205   7.619  0.0407 -0.2802 -0.4718
   36CHL1   C14 2606   1.900   5.108   7.763 -0.2731 -1.1173  0.3666
   36CHL1   H14 2607   2.000   5.059   7.760 -0.9923 -2.5823 -0.8855
   36CHL1   C15 2608   1.816   4.998   7.829 -0.2087  0.1362  0.7761
   36CHL1  H15A 2609   1.708   5.021   7.820 -0.1830 -0.5440 -2.5868
   36CHL1  H15B 2610   1.833   4.894   7.791  1.2297  0.4520  0.4751
   36CHL1   C16 2611   1.861   4.994   7.977 -0.3034 -0.1223 -0.2049
   36CHL1  H16A 2612   1.769   4.980   8.037 -0.9366 -2.3064 -1.5820
   36CHL1  H16B 2613   1.931   4.912   8.002  0.8210  0.6989 -0.5619
   36CHL1   C17 2614   1.924   5.133   8.006 -0.9402  1.0732 -0.1639
   36CHL1   H17 2615   2.033   5.114   8.017 -0.8694  0.2559 -1.7763
   36CHL1   C13 2616   1.910   5.215   7.876  0.1109  0.5004 -0.4552
   36CHL1   C18 2617   1.769   5.285   7.872  0.3782 -0.2430 -0.0962
   36CHL1  H18A 2618   1.743   5.325   7.772  0.9855  1.2732  0.3176
   36CHL1  H18B 2619   1.695   5.218   7.921  0.6755 -1.8901 -1.8298
   36CHL1  H18C 2620   1.767   5.371   7.943 -0.7651 -1.0225  0.8665
   36CHL1   C12 2621   2.019   5.315   7.842  0.2673  0.4963  0.6903
   36CHL1  H12A 2622   2.010   5.402   7.910  2.9048  0.0925  1.6884
   36CHL1  H12B 2623   2.119   5.268   7.858 -0.4087 -0.8602  1.0782
   36CHL1   C11 2624   2.002   5.376   7.698  0.0214  0.3123  0.7818
   36CHL1  H11A 2625   1.913   5.442   7.693  0.9432  1.5085 -0.3800
   36CHL1  H11B 2626   2.084   5.447   7.676  0.2808  0.1703  1.2725
   36CHL1    C9 2627   1.983   5.266   7.594 -0.5636  0.8659  0.2565
   36CHL1    H9 2628   2.079   5.209   7.598 -0.9483 -0.0417 -2.0120
   36CHL1   C10 2629   1.964   5.308   7.449  0.3256 -0.2936 -0.3402
   36CHL1   C19 2630   1.862   5.426   7.451 -0.1028 -0.4496 -0.2096
   36CHL1  H19A 2631   1.788   5.419   7.534  0.4577 -0.1987  0.3200
   36CHL1  H19B 2632   1.913   5.525   7.453  0.4363 -0.7079 -0.8964
   36CHL1  H19C 2633   1.804   5.448   7.359 -1.1325 -1.5796  0.1423
   36CHL1    C1 2634   2.100   5.358   7.395 -0.3365 -0.5427 -0.7617
   36CHL1   H1A 2635   2.138   5.443   7.455  0.7829 -0.4911 -1.5066
   36CHL1   H1B 2636   2.174   5.276   7.409 -0.8832 -0.9189 -0.0165
   36CHL1    C2 2637   2.121   5.381   7.245  0.2264  0.0912 -0.5784
   36CHL1   H2A 2638   2.227   5.407   7.225  0.4816  0.5821  1.2050
   36CHL1   H2B 2639   2.061   5.472   7.221  2.6299  1.2586 -2.5743
   36CHL1   C20 2640   1.865   5.190   8.143 -0.5028 -0.8415 -0.4857
   36CHL1   H20 2641   1.754   5.195   8.134 -0.6498 -3.3941 -0.9294
   36CHL1   C21 2642   1.932   5.321   8.185  0.1349  0.4343  0.3885
   36CHL1  H21A 2643   1.910   5.354   8.288 -0.6555  1.9485 -0.2451
   36CHL1  H21B 2644   1.901   5.412   8.130  3.1171  1.2931 -0.0534
   36CHL1  H21C 2645   2.041   5.300   8.177 -0.1059 -0.7907  0.0948
   36CHL1   C22 2646   1.885   5.094   8.264 -0.3872  0.1774  0.0768
   36CHL1  H22A 2647   1.848   5.150   8.352  0.6926 -0.1030  0.7210
   36CHL1  H22B 2648   1.820   5.007   8.244  0.1208 -0.9036  2.7919
   36CHL1   C23 2649   2.028   5.048   8.301  0.4827  0.2409 -0.3761
   36CHL1  H23A 2650   2.069   4.967   8.235  0.3785  1.1276 -1.5594
   36CHL1  H23B 2651   2.104   5.125   8.277  1.4425 -0.0560  1.5643
   36CHL1   C24 2652   2.043   5.000   8.454 -0.1175 -0.2800  1.1556
   36CHL1  H24A 2653   1.964   4.926   8.479 -1.5993  1.0071  0.4397
   36CHL1  H24B 2654   2.141   4.949   8.470  0.5572  0.7773  0.5493
   36CHL1   C25 2655   2.026   5.110   8.557  0.9025  0.1580  0.7163
   36CHL1   H25 2656   1.929   5.160   8.536  0.9938 -0.5274 -1.5195
   36CHL1   C26 2657   2.038   5.041   8.697  0.4732 -0.0526 -0.0521
   36CHL1  H26A 2658   2.142   5.008   8.717  0.4898  0.9858  1.8116
   36CHL1  H26B 2659   2.002   5.106   8.780  0.8934 -1.8632  1.6508
   36CHL1  H26C 2660   1.966   4.956   8.701 -0.1274  0.4618  0.2156
   36CHL1   C27 2661   2.137   5.219   8.536 -0.7252  0.0260 -0.1309
   36CHL1  H27A 2662   2.135   5.276   8.441  0.2216 -1.6567 -1.2022
   36CHL1  H27B 2663   2.134   5.293   8.618  0.2103  2.1018 -1.8761
   36CHL1  H27C 2664   2.234   5.165   8.537 -0.8567 -0.2567 -1.2550
   37CHL1    C3 2665   5.849   1.667   6.893  0.9859 -0.8368 -0.4449
   37CHL1    H3 2666   5.934   1.607   6.932  0.1674 -1.3820  0.5325
   37CHL1    O3 2667   5.835   1.637   6.757  0.0694  0.4039 -0.0977
   37CHL1   H3' 2668   5.751   1.677   6.735  0.9788  2.1344 -0.5375
   37CHL1    C4 2669   5.719   1.642   6.967 -0.3115  0.4898 -0.0322
   37CHL1   H4A 2670   5.637   1.699   6.919 -0.3668  0.0410 -0.4884
   37CHL1   H4B 2671   5.700   1.533   6.953 -1.2210  0.4906  1.0973
   37CHL1    C5 2672   5.746   1.667   7.115  0.3363  0.0621  0.1240
   37CHL1    C6 2673   5.729   1.569   7.203 -0.3274  0.5211  0.1631
   37CHL1    H6 2674   5.694   1.471   7.168  3.0762 -1.3490  1.5428
   37CHL1    C7 2675   5.753   1.588   7.348  0.2956 -0.0293 -0.2025
   37CHL1   H7A 2676   5.667   1.551   7.409 -0.0805 -0.3722 -0.9367
   37CHL1   H7B 2677   5.845   1.531   7.373 -1.4628 -2.3390  1.5125
   37CHL1    C8 2678   5.771   1.735   7.388  0.6334  0.6159 -0.8405
   37CHL1    H8 2679   5.669   1.772   7.408  0.9826  1.0941  0.1102
   37CHL1   C14 2680   5.830   1.739   7.529  0.1251  1.0581  0.3786
   37CHL1   H14 2681   5.929   1.691   7.538 -0.7498 -0.8251  0.4769
   37CHL1   C15 2682   5.759   1.653   7.644 -0.2788  0.2804  0.3661
   37CHL1  H15A 2683   5.649   1.659   7.629 -0.4036  3.3357  1.7237
   37CHL1  H15B 2684   5.789   1.546   7.642  0.1464  0.4003 -1.6921
   37CHL1   C16 2685   5.795   1.728   7.769 -0.5217  0.3069 -0.4958
   37CHL1  H16A 2686   5.706   1.757   7.829  0.8468  1.8045  0.9355
   37CHL1  H16B 2687   5.854   1.661   7.835 -2.5007  0.2061  1.2632
   37CHL1   C17 2688   5.872   1.854   7.732 -0.1261 -0.8220 -0.3550
   37CHL1   H17 2689   5.980   1.832   7.719 -0.2203  0.1773 -3.9642
   37CHL1   C13 2690   5.830   1.880   7.586  0.1372 -0.3016  0.0281
   37CHL1   C18 2691   5.699   1.948   7.596  0.2356  0.2805 -0.6966
   37CHL1  H18A 2692   5.631   1.915   7.677 -1.5350  0.2196 -2.1346
   37CHL1  H18B 2693   5.711   2.056   7.618  1.7123 -0.3405  1.8833
   37CHL1  H18C 2694   5.645   1.946   7.499  0.2145  1.2442 -0.7213
   37CHL1   C12 2695   5.925   1.960   7.499 -0.6054  0.1665  0.5215
   37CHL1  H12A 2696   5.938   2.065   7.531  0.7310  0.4535 -0.8477
   37CHL1  H12B 2697   6.025   1.912   7.505 -0.7588 -0.4602 -1.2237
   37CHL1   C11 2698   5.883   1.951   7.347 -0.5058  0.1578 -0.7416
   37CHL1  H11A 2699   5.794   2.017   7.339  0.1039  1.0250 -0.6007
   37CHL1  H11B 2700   5.969   1.986   7.284  0.2493  1.0379  0.7247
   37CHL1    C9 2701   5.852   1.812   7.297 -0.9299 -0.1821 -0.2298
   37CHL1    H9 2702   5.950   1.760   7.297  0.5740  2.4910  0.3662
   37CHL1   C10 2703   5.800   1.806   7.148  0.1475 -0.1188  0.2446
   37CHL1   C19 2704   5.682   1.900   7.110  0.0581 -0.2418 -0.0111
   37CHL1  H19A 2705   5.607   1.882   7.191  0.3216 -0.0739  0.2730
   37CHL1  H19B 2706   5.719   2.004   7.108 -0.2970 -0.1224 -0.8962
   37CHL1  H19C 2707   5.641   1.885   7.008  0.4911  5.0606 -1.2520
   37CHL1    C1 2708   5.919   1.839   7.053 -0.0835 -0.3575 -0.7208
   37CHL1   H1A 2709   5.932   1.950   7.057  0.9973 -0.5095  1.3321
   37CHL1   H1B 2710   6.008   1.788   7.094  0.0332  1.4766  1.4674
   37CHL1    C2 2711   5.897   1.812   6.908 -0.0282 -0.6113  1.3260
   37CHL1   H2A 2712   5.995   1.837   6.863 -1.4259  1.6530 -0.6838
   37CHL1   H2B 2713   5.826   1.884   6.862 -0.1499 -0.3618  1.8949
   37CHL1   C20 2714   5.862   1.965   7.840 -0.2451  1.1015  0.2770
   37CHL1   H20 2715   5.754   1.986   7.859 -1.6074 -1.1609 -3.7094
   37CHL1   C21 2716   5.934   2.090   7.798 -0.2173 -0.2530  0.0058
   37CHL1  H21A 2717   5.885   2.131   7.707 -0.7309 -0.1887  0.3119
   37CHL1  H21B 2718   6.042   2.068   7.785 -0.2755  0.3591 -1.7493
   37CHL1  H21C 2719   5.925   2.172   7.872  1.6827  0.3043 -0.3222
   37CHL1   C22 2720   5.924   1.903   7.973  0.2572 -0.2714 -0.5136
   37CHL1  H22A 2721   6.003   1.830   7.946 -0.4382 -1.2413  0.0312
   37CHL1  H22B 2722   5.986   1.986   8.012 -0.0153 -0.5479  0.5289
   37CHL1   C23 2723   5.838   1.863   8.090 -0.0673  0.2026 -0.6432
   37CHL1  H23A 2724   5.771   1.779   8.059 -2.4120  2.1490 -1.1288
   37CHL1  H23B 2725   5.898   1.832   8.179  1.8685  1.8992 -1.2785
   37CHL1   C24 2726   5.753   1.973   8.147  0.3061 -1.4251 -0.9043
   37CHL1  H24A 2727   5.818   2.058   8.178  1.5211 -2.3706 -0.7597
   37CHL1  H24B 2728   5.674   2.010   8.079 -0.9477 -0.7021  0.8813
   37CHL1   C25 2729   5.681   1.935   8.279 -0.6787 -0.5871  0.6573
   37CHL1   H25 2730   5.656   1.827   8.270  2.5407 -1.2645 -1.8541
   37CHL1   C26 2731   5.779   1.950   8.399  0.2094 -0.3229 -0.2231
   37CHL1  H26A 2732   5.877   1.899   8.386  1.8703  2.7988 -0.8686
   37CHL1  H26B 2733   5.803   2.056   8.424 -0.7618  0.7315 -3.2467
   37CHL1  H26C 2734   5.725   1.923   8.492 -0.8481  0.6810 -0.5183
   37CHL1   C27 2735   5.556   2.009   8.312 -0.6127  1.2283  1.2335
   37CHL1  H27A 2736   5.576   2.116   8.335  1.9826  0.9719  0.5654
   37CHL1  H27B 2737   5.490   1.995   8.224  2.0919 -0.9046 -0.6531
   37CHL1  H27C 2738   5.503   1.964   8.399 -0.3606 -1.1591  0.2516
   38CHL1    C3 2739   1.353   3.106   6.796  0.3289  0.9200 -0.3694
   38CHL1    H3 2740   1.402   3.203   6.821 -0.0739  1.3628 -1.2862
   38CHL1    O3 2741   1.319   3.090   6.665 -0.0406  0.0477  0.5025
   38CHL1   H3' 2742   1.256   3.018   6.663  1.0123 -0.9095 -0.0384
   38CHL1    C4 2743   1.434   2.992   6.848  0.0074 -0.1198 -0.0507
   38CHL1   H4A 2744   1.394   2.892   6.821 -0.4706  0.4189 -1.4557
   38CHL1   H4B 2745   1.524   3.005   6.785  0.9214 -1.5492  0.9028
   38CHL1    C5 2746   1.472   2.998   6.991 -0.4978 -0.5808 -0.3587
   38CHL1    C6 2747   1.597   3.007   7.027  0.3102 -0.2146 -0.6046
   38CHL1    H6 2748   1.665   2.995   6.941 -0.7822 -0.9971 -1.3890
   38CHL1    C7 2749   1.641   3.021   7.167  0.4447 -0.0328 -0.6473
   38CHL1   H7A 2750   1.741   2.973   7.175 -0.1895 -1.4620 -0.9978
   38CHL1   H7B 2751   1.654   3.131   7.170 -1.9866  0.3015  0.2668
   38CHL1    C8 2752   1.540   2.981   7.267  0.1718 -0.0789 -0.0849
   38CHL1    H8 2753   1.535   2.870   7.274 -1.6928  0.0584  1.8367
   38CHL1   C14 2754   1.588   3.021   7.404 -0.3442 -0.1582 -0.3651
   38CHL1   H14 2755   1.597   3.131   7.394 -0.9178  0.2926  2.9305
   38CHL1   C15 2756   1.718   2.953   7.454 -0.0202  0.0207  0.0606
   38CHL1  H15A 2757   1.717   2.846   7.423  1.4902  0.6898 -2.6599
   38CHL1  H15B 2758   1.800   2.990   7.389  0.0798 -0.0246  0.1589
   38CHL1   C16 2759   1.726   2.980   7.607 -0.4010  0.0186  0.2793
   38CHL1  H16A 2760   1.743   2.881   7.653 -0.8074  0.1623  0.7460
   38CHL1  H16B 2761   1.802   3.058   7.628  0.6863 -0.7449 -0.6750
   38CHL1   C17 2762   1.577   3.034   7.646 -0.0318 -0.3828  0.8809
   38CHL1   H17 2763   1.587   3.144   7.631 -0.5364 -0.5950 -1.4219
   38CHL1   C13 2764   1.491   2.994   7.520  0.2580  0.5120  0.5452
   38CHL1   C18 2765   1.463   2.842   7.531 -0.7112  0.4383  0.0389
   38CHL1  H18A 2766   1.373   2.815   7.590 -1.0841 -0.9982 -1.1495
   38CHL1  H18B 2767   1.428   2.804   7.433 -0.2031  0.0789 -0.0064
   38CHL1  H18C 2768   1.546   2.779   7.569 -0.8990  0.8784  1.2321
   38CHL1   C12 2769   1.359   3.077   7.489 -0.1934  0.8042  0.4059
   38CHL1  H12A 2770   1.281   3.058   7.565  1.1534 -2.2205  1.1843
   38CHL1  H12B 2771   1.397   3.182   7.492  0.3312  0.7377 -1.9202
   38CHL1   C11 2772   1.301   3.044   7.349 -0.4777  0.1881 -0.3290
   38CHL1  H11A 2773   1.250   2.946   7.360  3.9746 -2.1646  1.7310
   38CHL1  H11B 2774   1.217   3.115   7.334 -0.2263  0.7605  0.8550
   38CHL1    C9 2775   1.407   3.053   7.230 -0.9102 -0.0513 -1.1749
   38CHL1    H9 2776   1.438   3.159   7.217  0.2821 -0.5153 -2.4205
   38CHL1   C10 2777   1.357   3.014   7.090  0.1798  0.0081 -0.2010
   38CHL1   C19 2778   1.292   2.879   7.106 -0.1884  0.1894  0.4173
   38CHL1  H19A 2779   1.351   2.802   7.161 -1.6488 -0.5897  0.9431
   38CHL1  H19B 2780   1.204   2.890   7.172 -0.4603 -0.3269  0.1506
   38CHL1  H19C 2781   1.262   2.838   7.007  1.8991  2.2889 -1.2002
   38CHL1    C1 2782   1.254   3.121   7.036 -0.0321  0.3185  0.1776
   38CHL1   H1A 2783   1.156   3.110   7.087 -0.4421 -1.0810 -0.8668
   38CHL1   H1B 2784   1.282   3.227   7.054 -2.3111  0.8369  1.0500
   38CHL1    C2 2785   1.225   3.109   6.884 -0.2933  0.4492  0.5674
   38CHL1   H2A 2786   1.152   3.187   6.852  1.3630  1.9750  0.3741
   38CHL1   H2B 2787   1.172   3.013   6.872  0.0872  0.2688  0.3289
   38CHL1   C20 2788   1.507   3.011   7.784  0.3020 -0.2606  0.5784
   38CHL1   H20 2789   1.453   2.914   7.779  1.0371 -0.7389  1.6275
   38CHL1   C21 2790   1.408   3.128   7.816 -0.2609 -0.1634  0.2103
   38CHL1  H21A 2791   1.455   3.224   7.847 -1.9700  1.0974 -0.9271
   38CHL1  H21B 2792   1.340   3.094   7.896  0.9047  1.9601  2.2377
   38CHL1  H21C 2793   1.348   3.157   7.728 -0.3139 -0.3105  0.1985
   38CHL1   C22 2794   1.593   2.990   7.907 -0.5607  0.2312 -1.0395
   38CHL1  H22A 2795   1.525   2.980   7.995 -0.6664  0.3297 -1.1087
   38CHL1  H22B 2796   1.646   2.894   7.892  0.2776  0.7168 -1.2230
   38CHL1   C23 2797   1.705   3.084   7.933 -1.0322  0.0360  0.5062
   38CHL1  H23A 2798   1.731   3.121   7.832  0.8220 -1.2689  0.4546
   38CHL1  H23B 2799   1.669   3.174   7.988  0.2487  0.7785  0.1850
   38CHL1   C24 2800   1.833   3.024   7.997  0.7713  0.7540 -0.0112
   38CHL1  H24A 2801   1.806   3.027   8.104 -4.1761  0.8681 -1.0279
   38CHL1  H24B 2802   1.839   2.915   7.976 -2.8453  0.6169 -1.0842
   38CHL1   C25 2803   1.960   3.114   7.985 -0.1751 -0.1306  0.3724
   38CHL1   H25 2804   2.035   3.050   8.036 -1.9715 -1.0525  1.9783
   38CHL1   C26 2805   1.994   3.141   7.836  0.5555 -0.1172 -0.0833
   38CHL1  H26A 2806   2.102   3.167   7.831  0.8619 -1.3333 -0.2200
   38CHL1  H26B 2807   1.992   3.047   7.777 -0.2172 -0.0211 -0.2200
   38CHL1  H26C 2808   1.928   3.209   7.779 -0.2545 -1.2018 -0.4799
   38CHL1   C27 2809   1.936   3.246   8.064 -0.2403 -0.4664 -0.1396
   38CHL1  H27A 2810   1.887   3.222   8.161 -1.8623 -0.2999 -0.8697
   38CHL1  H27B 2811   2.025   3.308   8.086 -1.3272  1.2848 -0.4770
   38CHL1  H27C 2812   1.878   3.326   8.013 -0.7012 -0.9277 -0.3604
   39CHL1    C3 2813   1.969   1.214   6.844 -0.7643 -0.9486  0.4525
   39CHL1    H3 2814   1.995   1.107   6.833  0.0349 -0.5295 -2.9052
   39CHL1    O3 2815   1.956   1.279   6.716  0.7395 -0.0706 -0.0076
   39CHL1   H3' 2816   1.861   1.271   6.701  0.4118 -0.1025  1.8263
   39CHL1    C4 2817   1.830   1.225   6.908 -0.0814 -0.2380 -0.1939
   39CHL1   H4A 2818   1.791   1.329   6.903  0.3751  0.0227  1.1300
   39CHL1   H4B 2819   1.777   1.151   6.843  0.2052  0.8205 -1.6713
   39CHL1    C5 2820   1.817   1.182   7.054  0.7335 -0.1990  0.5628
   39CHL1    C6 2821   1.719   1.092   7.092  0.1380 -0.3288  0.0513
   39CHL1    H6 2822   1.650   1.045   7.020  0.4879 -0.5676 -0.1334
   39CHL1    C7 2823   1.698   1.049   7.236  0.3593  0.1973 -0.1967
   39CHL1   H7A 2824   1.590   1.059   7.256  0.4753  2.1429 -0.3784
   39CHL1   H7B 2825   1.720   0.940   7.232 -1.6961 -0.2427 -0.8448
   39CHL1    C8 2826   1.793   1.124   7.335  0.2630  0.2534  0.2314
   39CHL1    H8 2827   1.742   1.220   7.357  0.5848  0.5592 -0.3300
   39CHL1   C14 2828   1.815   1.052   7.462 -0.1333  0.4303 -0.6142
   39CHL1   H14 2829   1.861   0.953   7.439 -1.4529 -0.1506 -0.8545
   39CHL1   C15 2830   1.681   1.013   7.530  0.2496 -0.4279  0.3398
   39CHL1  H15A 2831   1.613   1.100   7.530  1.7928  0.8336  1.3752
   39CHL1  H15B 2832   1.632   0.926   7.482 -1.2564  0.4987  0.1317
   39CHL1   C16 2833   1.720   0.974   7.673  0.1734  0.1894 -0.3531
   39CHL1  H16A 2834   1.654   1.039   7.734  0.0409 -1.3529  1.2184
   39CHL1  H16B 2835   1.719   0.866   7.697 -0.6383  0.6150  1.6678
   39CHL1   C17 2836   1.871   1.014   7.691 -0.4637 -0.0873  0.8688
   39CHL1   H17 2837   1.934   0.926   7.667  1.6662  1.4075  0.8015
   39CHL1   C13 2838   1.901   1.112   7.568  0.1874 -0.0146 -0.5491
   39CHL1   C18 2839   1.866   1.258   7.615 -0.0454 -0.8524  0.0780
   39CHL1  H18A 2840   1.944   1.306   7.678 -0.6666 -0.2431  0.3903
   39CHL1  H18B 2841   1.865   1.315   7.520  0.7211 -2.5785 -1.0263
   39CHL1  H18C 2842   1.775   1.266   7.677  2.2080 -0.5040  3.6599
   39CHL1   C12 2843   2.043   1.117   7.510  0.8608  0.1585  0.3967
   39CHL1  H12A 2844   2.109   1.159   7.589 -0.1382 -0.3220  1.5293
   39CHL1  H12B 2845   2.075   1.015   7.479  0.4529 -0.4314  1.7956
   39CHL1   C11 2846   2.040   1.198   7.376  0.1473  0.0922  0.3043
   39CHL1  H11A 2847   2.028   1.306   7.396 -0.7094  0.4980 -2.0142
   39CHL1  H11B 2848   2.134   1.166   7.325  0.2721  1.2360 -0.2035
   39CHL1    C9 2849   1.930   1.147   7.275  0.0274 -0.3096 -0.0415
   39CHL1    H9 2850   1.963   1.046   7.246 -0.5800 -0.4684 -0.1960
   39CHL1   C10 2851   1.931   1.235   7.149  1.0347  0.1481  1.1485
   39CHL1   C19 2852   1.892   1.383   7.171  0.0089  0.4289 -0.0728
   39CHL1  H19A 2853   1.782   1.394   7.187 -0.4647 -1.7160 -1.4778
   39CHL1  H19B 2854   1.943   1.436   7.254 -0.3806  0.3627  0.2133
   39CHL1  H19C 2855   1.907   1.453   7.086 -1.0794  0.0836 -0.5712
   39CHL1    C1 2856   2.066   1.226   7.078  0.6859 -0.0844  0.4731
   39CHL1   H1A 2857   2.135   1.294   7.132 -0.8625  1.5720  0.4676
   39CHL1   H1B 2858   2.097   1.119   7.076  1.4443  0.1303 -1.9611
   39CHL1    C2 2859   2.071   1.284   6.932 -0.4063 -0.0452 -0.5081
   39CHL1   H2A 2860   2.175   1.273   6.895 -0.5535 -0.3337 -0.8357
   39CHL1   H2B 2861   2.048   1.392   6.944  0.7085  0.0055  1.7305
   39CHL1   C20 2862   1.917   1.046   7.833  0.1713 -0.4913  0.1093
   39CHL1   H20 2863   1.861   1.137   7.864 -0.1137 -0.8588  0.7206
   39CHL1   C21 2864   2.061   1.065   7.850  0.6520  0.0102 -0.3424
   39CHL1  H21A 2865   2.116   0.980   7.806  2.1652  0.4315  0.6314
   39CHL1  H21B 2866   2.093   1.081   7.955 -1.8734 -1.5431  0.7417
   39CHL1  H21C 2867   2.093   1.159   7.800  0.5712 -0.6332 -1.6453
   39CHL1   C22 2868   1.871   0.932   7.931  0.2479  0.7232 -0.1434
   39CHL1  H22A 2869   1.761   0.915   7.924  0.4585 -0.3888 -0.9515
   39CHL1  H22B 2870   1.915   0.835   7.902  1.0378  0.2164  2.5192
   39CHL1   C23 2871   1.884   0.961   8.081  0.4351 -0.3257  0.3939
   39CHL1  H23A 2872   1.990   0.995   8.092  0.2056  0.5785 -0.0985
   39CHL1  H23B 2873   1.823   1.050   8.108 -0.4691 -0.8019 -0.0499
   39CHL1   C24 2874   1.848   0.846   8.168 -0.1109 -0.3504 -0.0174
   39CHL1  H24A 2875   1.739   0.828   8.184  0.0862 -0.2833  1.5537
   39CHL1  H24B 2876   1.874   0.747   8.126 -3.4424 -0.8568 -1.2032
   39CHL1   C25 2877   1.915   0.857   8.310 -0.0449 -0.6695  0.0297
   39CHL1   H25 2878   2.025   0.862   8.292  0.1258 -2.7966  0.2189
   39CHL1   C26 2879   1.874   0.984   8.388 -0.3243  0.2756 -0.6675
   39CHL1  H26A 2880   1.766   0.988   8.362 -1.0291 -3.5376  1.0136
   39CHL1  H26B 2881   1.887   0.960   8.495  3.0578  2.0543 -0.5499
   39CHL1  H26C 2882   1.932   1.074   8.358  1.1588 -0.1833  0.6906
   39CHL1   C27 2883   1.880   0.737   8.396  0.5186  0.1414 -0.0713
   39CHL1  H27A 2884   1.918   0.757   8.498  0.2647  0.7836 -0.0951
   39CHL1  H27B 2885   1.769   0.744   8.391  0.6091  1.1944 -1.1680
   39CHL1  H27C 2886   1.914   0.642   8.351 -1.5217 -1.5607  1.7488
   40CHL1    C3 2887   3.642   0.734   6.894 -0.1028 -0.5147  0.1044
   40CHL1    H3 2888   3.666   0.628   6.914  1.8040  0.1190  1.4281
   40CHL1    O3 2889   3.606   0.746   6.757  0.3977  0.3927  0.2610
   40CHL1   H3' 2890   3.665   0.808   6.713  0.1089  0.5804  0.1382
   40CHL1    C4 2891   3.525   0.788   6.974 -0.3791 -0.0959  0.0257
   40CHL1   H4A 2892   3.508   0.896   6.956  1.8512  0.3808  0.5127
   40CHL1   H4B 2893   3.435   0.738   6.932  0.4498 -1.8392  0.1904
   40CHL1    C5 2894   3.545   0.769   7.125 -0.1487 -0.2307  0.2017
   40CHL1    C6 2895   3.449   0.700   7.198 -0.0026  0.0760 -0.2330
   40CHL1    H6 2896   3.355   0.657   7.161 -1.0383  2.5411 -0.7252
   40CHL1    C7 2897   3.464   0.698   7.347  0.4176  0.3311  0.5106
   40CHL1   H7A 2898   3.366   0.712   7.398  0.3956 -0.3698  0.6762
   40CHL1   H7B 2899   3.507   0.600   7.379  2.8140  1.5440  1.2763
   40CHL1    C8 2900   3.578   0.797   7.403  0.4645  0.8756  0.1891
   40CHL1    H8 2901   3.543   0.902   7.394 -0.4590  0.5838  0.2909
   40CHL1   C14 2902   3.605   0.774   7.540 -0.3543  0.3965 -0.0496
   40CHL1   H14 2903   3.632   0.667   7.549 -1.5782  0.0688 -0.0935
   40CHL1   C15 2904   3.480   0.794   7.642  0.3158 -0.0880  0.8935
   40CHL1  H15A 2905   3.430   0.887   7.609 -1.8497 -2.0275 -1.6814
   40CHL1  H15B 2906   3.417   0.708   7.613 -0.1966  0.4163  0.4787
   40CHL1   C16 2907   3.551   0.796   7.775 -0.1772 -0.5627 -0.1767
   40CHL1  H16A 2908   3.505   0.882   7.828  0.0928  1.3020 -2.7504
   40CHL1  H16B 2909   3.526   0.706   7.836  0.3351 -0.2240  0.5487
   40CHL1   C17 2910   3.705   0.798   7.750 -0.2602  0.4960  0.6358
   40CHL1   H17 2911   3.723   0.688   7.756  0.3675  0.5996  0.7142
   40CHL1   C13 2912   3.718   0.845   7.601  0.1475 -0.5683 -0.4656
   40CHL1   C18 2913   3.704   1.004   7.602 -0.2221 -0.9318  0.2166
   40CHL1  H18A 2914   3.681   1.025   7.495  1.2042  0.2826  0.1181
   40CHL1  H18B 2915   3.623   1.046   7.664  2.1807  2.3446  1.4069
   40CHL1  H18C 2916   3.793   1.062   7.636 -1.1535  1.4366 -1.1181
   40CHL1   C12 2917   3.849   0.801   7.529 -0.5940  0.4194  1.2021
   40CHL1  H12A 2918   3.932   0.857   7.576  0.5183 -1.7218  1.9638
   40CHL1  H12B 2919   3.875   0.694   7.546 -0.1817  0.3895  0.4384
   40CHL1   C11 2920   3.842   0.824   7.377  0.0669  0.4486  0.1022
   40CHL1  H11A 2921   3.864   0.931   7.359  0.8609  0.6468  2.0343
   40CHL1  H11B 2922   3.919   0.763   7.326  0.1498  0.8258 -0.2255
   40CHL1    C9 2923   3.707   0.771   7.316  0.6608 -0.0580  0.2477
   40CHL1    H9 2924   3.714   0.661   7.305 -1.2522 -0.1620 -0.2441
   40CHL1   C10 2925   3.680   0.824   7.171  0.2625 -0.1464 -0.1123
   40CHL1   C19 2926   3.680   0.976   7.178  0.2235 -0.5737  0.3711
   40CHL1  H19A 2927   3.589   1.002   7.235  0.3285  0.0423  0.2692
   40CHL1  H19B 2928   3.768   1.025   7.226 -0.0904  1.4906 -1.0204
   40CHL1  H19C 2929   3.660   1.019   7.077  0.0573  0.8336  0.9830
   40CHL1    C1 2930   3.798   0.786   7.075  0.9564 -0.5185 -1.0219
   40CHL1   H1A 2931   3.889   0.845   7.099 -0.2155  1.0105 -0.1256
   40CHL1   H1B 2932   3.817   0.678   7.090 -0.6357 -0.7968 -0.7956
   40CHL1    C2 2933   3.765   0.819   6.924 -0.1676 -0.3916 -0.1508
   40CHL1   H2A 2934   3.855   0.793   6.866  0.9872  1.9908  0.4377
   40CHL1   H2B 2935   3.750   0.927   6.901 -2.8903 -0.8601 -0.9810
   40CHL1   C20 2936   3.783   0.872   7.863 -0.6847 -0.1870 -0.1571
   40CHL1   H20 2937   3.761   0.980   7.856 -1.8695 -0.4394 -0.7821
   40CHL1   C21 2938   3.929   0.848   7.850  0.1943 -0.1882 -0.8775
   40CHL1  H21A 2939   3.976   0.868   7.949 -0.4517  0.4420 -0.6915
   40CHL1  H21B 2940   3.966   0.922   7.775  1.6834 -1.7079 -1.7123
   40CHL1  H21C 2941   3.963   0.745   7.829  2.3805  0.3208 -0.1596
   40CHL1   C22 2942   3.742   0.827   8.007  0.2472  0.1894 -0.7032
   40CHL1  H22A 2943   3.784   0.894   8.085 -1.6540  1.7131 -0.8938
   40CHL1  H22B 2944   3.634   0.853   8.020  0.1995 -1.3075  3.0972
   40CHL1   C23 2945   3.769   0.678   8.055  0.4508  0.4436 -0.3494
   40CHL1  H23A 2946   3.744   0.604   7.976  1.2611 -1.1112  0.7942
   40CHL1  H23B 2947   3.878   0.668   8.075  0.5679  2.0607 -0.0866
   40CHL1   C24 2948   3.681   0.641   8.175 -0.2227  0.1778  0.7340
   40CHL1  H24A 2949   3.675   0.722   8.251 -0.0253  0.0307  0.9058
   40CHL1  H24B 2950   3.579   0.636   8.130  0.4473  0.6898 -0.9286
   40CHL1   C25 2951   3.712   0.509   8.241 -0.2133 -0.2477 -0.0442
   40CHL1   H25 2952   3.751   0.437   8.165  0.1287 -1.2519  1.0513
   40CHL1   C26 2953   3.815   0.530   8.355  0.4896 -0.5450  0.1451
   40CHL1  H26A 2954   3.782   0.610   8.426  0.2686  0.2534 -0.8304
   40CHL1  H26B 2955   3.830   0.435   8.410  0.6324  0.8245  2.6654
   40CHL1  H26C 2956   3.918   0.543   8.314 -0.0783 -0.0656 -1.1822
   40CHL1   C27 2957   3.582   0.443   8.300 -0.4642  0.1511 -0.4683
   40CHL1  H27A 2958   3.505   0.520   8.321  0.8842  1.1272  1.1392
   40CHL1  H27B 2959   3.532   0.384   8.220 -0.6724  1.9994 -1.7561
   40CHL1  H27C 2960   3.598   0.372   8.384 -1.4658  0.5667  0.0858
   41CHL1    C3 2961   3.745   0.221   6.923  0.2621  0.0444  0.1920
   41CHL1    H3 2962   3.668   0.147   6.954 -1.5104  1.9834  0.6427
   41CHL1    O3 2963   3.719   0.239   6.783  0.2548  0.2956  0.5473
   41CHL1   H3' 2964   3.789   0.293   6.745 -0.1148  1.6994  1.7164
   41CHL1    C4 2965   3.721   0.353   6.991  0.4236  0.3961 -0.1723
   41CHL1   H4A 2966   3.766   0.441   6.942  1.1167 -0.1766 -0.5937
   41CHL1   H4B 2967   3.611   0.368   6.987  0.3072 -0.1202  0.6854
   41CHL1    C5 2968   3.759   0.357   7.136  0.0176  0.4620  0.3287
   41CHL1    C6 2969   3.667   0.386   7.232  0.2387  0.4370  0.3421
   41CHL1    H6 2970   3.562   0.409   7.208 -0.1618 -0.7387  0.9433
   41CHL1    C7 2971   3.696   0.376   7.384 -0.0259  0.0517  0.0933
   41CHL1   H7A 2972   3.651   0.456   7.447  1.1005 -1.0972  2.4947
   41CHL1   H7B 2973   3.661   0.277   7.422  2.3564 -1.1375 -0.6179
   41CHL1    C8 2974   3.847   0.374   7.417  0.0669 -0.3322  0.4461
   41CHL1    H8 2975   3.874   0.478   7.390  1.6411 -0.0283  2.8872
   41CHL1   C14 2976   3.861   0.337   7.560 -0.1629  0.4515  0.0536
   41CHL1   H14 2977   3.823   0.233   7.570  0.3603  0.1460 -0.9346
   41CHL1   C15 2978   3.791   0.415   7.668 -0.5758  0.1384  0.4606
   41CHL1  H15A 2979   3.812   0.523   7.653 -1.7123  0.5585  1.6986
   41CHL1  H15B 2980   3.684   0.384   7.671  0.2927 -3.1619  0.7163
   41CHL1   C16 2981   3.859   0.361   7.793 -0.3271 -0.6512  0.3217
   41CHL1  H16A 2982   3.871   0.449   7.860  2.1875  0.2932 -1.2026
   41CHL1  H16B 2983   3.795   0.292   7.851 -0.1716 -0.7878  0.3320
   41CHL1   C17 2984   3.995   0.293   7.747 -0.7572  0.8976 -0.2305
   41CHL1   H17 2985   3.980   0.183   7.746 -3.1129  1.1676 -0.9844
   41CHL1   C13 2986   4.006   0.330   7.602  0.3224 -0.4401 -0.3946
   41CHL1   C18 2987   4.074   0.477   7.590  0.1091 -0.4943  0.4547
   41CHL1  H18A 2988   4.030   0.527   7.679  2.0722  2.1224  0.0430
   41CHL1  H18B 2989   4.182   0.459   7.607  0.3358 -0.4264 -0.8635
   41CHL1  H18C 2990   4.056   0.527   7.493 -0.3797  1.0740  1.3211
   41CHL1   C12 2991   4.077   0.226   7.512 -0.3507  0.2183  0.6834
   41CHL1  H12A 2992   4.186   0.230   7.534 -0.1667  0.2671 -0.1760
   41CHL1  H12B 2993   4.031   0.129   7.540 -0.3115  0.1144  0.3905
   41CHL1   C11 2994   4.063   0.249   7.362  0.0943 -0.0121  0.5774
   41CHL1  H11A 2995   4.131   0.335   7.341  0.6987 -0.4746  0.6210
   41CHL1  H11B 2996   4.110   0.165   7.307  2.2516  1.0397  0.7256
   41CHL1    C9 2997   3.917   0.279   7.310 -0.0576  0.1091 -0.9192
   41CHL1    H9 2998   3.856   0.186   7.312 -0.5346  0.4296  0.7287
   41CHL1   C10 2999   3.903   0.309   7.161  0.9798  0.4784 -0.5778
   41CHL1   C19 3000   4.000   0.428   7.120 -0.1257 -0.3805 -0.1891
   41CHL1  H19A 3001   3.980   0.457   7.015  1.0349  0.8342 -0.1032
   41CHL1  H19B 3002   3.984   0.519   7.181 -0.3230  0.8860 -2.0551
   41CHL1  H19C 3003   4.108   0.403   7.131 -0.1766 -0.0390  1.2939
   41CHL1    C1 3004   3.933   0.180   7.081  0.1144  0.5581 -0.1196
   41CHL1   H1A 3005   4.042   0.157   7.084 -0.3082 -1.7475 -0.6017
   41CHL1   H1B 3006   3.888   0.091   7.128 -1.6538  0.8141 -1.2497
   41CHL1    C2 3007   3.896   0.186   6.935 -0.6945 -0.4455  0.1730
   41CHL1   H2A 3008   3.925   0.091   6.886  1.5777  0.9733 -1.4233
   41CHL1   H2B 3009   3.942   0.276   6.888 -0.7084  1.1450  2.9438
   41CHL1   C20 3010   4.107   0.316   7.846 -0.3912 -0.3010 -0.3988
   41CHL1   H20 3011   4.126   0.425   7.845 -0.6546 -0.2437  0.4895
   41CHL1   C21 3012   4.234   0.245   7.799 -0.2335 -0.1967 -0.2535
   41CHL1  H21A 3013   4.228   0.134   7.794  2.2804 -0.3365 -2.4074
   41CHL1  H21B 3014   4.317   0.265   7.870  0.6699 -1.3347 -0.9410
   41CHL1  H21C 3015   4.272   0.282   7.701 -1.4564  0.7888 -0.3758
   41CHL1   C22 3016   4.065   0.269   7.991 -0.7103  0.2994 -0.0471
   41CHL1  H22A 3017   3.978   0.327   8.028  0.4890  2.9728 -1.1818
   41CHL1  H22B 3018   4.048   0.159   7.991 -0.5527  0.2335  1.8250
   41CHL1   C23 3019   4.173   0.295   8.094  0.6206  0.5602  0.4204
   41CHL1  H23A 3020   4.275   0.251   8.079  1.4327  2.4095  0.2722
   41CHL1  H23B 3021   4.206   0.400   8.086  0.8918  0.4722  0.3418
   41CHL1   C24 3022   4.112   0.271   8.240 -0.0070  0.3103 -0.0724
   41CHL1  H24A 3023   4.175   0.306   8.324  1.2109  0.9308 -1.2099
   41CHL1  H24B 3024   4.008   0.310   8.243 -0.6639 -1.1008 -2.1262
   41CHL1   C25 3025   4.081   0.122   8.265  0.3495  0.6766  0.4437
   41CHL1   H25 3026   4.014   0.091   8.183  0.7132  0.4193  0.2408
   41CHL1   C26 3027   4.209   0.032   8.263 -0.2256 -0.0101 -0.0690
   41CHL1  H26A 3028   4.265   0.036   8.166 -0.5947 -0.4021 -0.2970
   41CHL1  H26B 3029   4.281   0.059   8.343 -1.6404 -0.4571  1.4028
   41CHL1  H26C 3030   4.184  -0.076   8.268 -0.3995  0.0821  1.3436
   41CHL1   C27 3031   4.009   0.104   8.396  0.0899 -0.2680  0.1216
   41CHL1  H27A 3032   3.907   0.149   8.395 -0.3844 -1.2901 -1.9437
   41CHL1  H27B 3033   4.002  -0.005   8.414 -0.0858 -0.2342  0.2540
   41CHL1  H27C 3034   4.070   0.149   8.477 -1.5504 -0.4884  1.5186
   42CHL1    C3 3035   0.116   5.569   7.034 -0.5757 -0.2862  0.6325
   42CHL1    H3 3036   0.108   5.678   7.052  2.2648  0.0545  0.3574
   42CHL1    O3 3037   0.091   5.543   6.895  0.6505  0.7923  0.1474
   42CHL1   H3' 3038   0.114   5.451   6.882 -0.3430  0.8118 -2.3824
   42CHL1    C4 3039   0.253   5.511   7.067  0.4348  0.3122 -0.0733
   42CHL1   H4A 3040   0.259   5.409   7.024  0.1883 -0.1345  0.9297
   42CHL1   H4B 3041   0.325   5.573   7.009 -0.7688  0.3518 -1.5638
   42CHL1    C5 3042   0.286   5.535   7.219  0.1604  0.2143  0.1556
   42CHL1    C6 3043   0.402   5.594   7.248 -0.0773  0.2729 -0.2736
   42CHL1    H6 3044   0.470   5.619   7.165 -0.8238 -0.0587 -1.0016
   42CHL1    C7 3045   0.460   5.604   7.391 -0.3028 -0.5452  0.0234
   42CHL1   H7A 3046   0.550   5.541   7.391  0.4120  0.4342  1.0514
   42CHL1   H7B 3047   0.484   5.710   7.416  2.1979 -1.0843  0.0782
   42CHL1    C8 3048   0.359   5.554   7.495  0.3614  0.5942 -0.6762
   42CHL1    H8 3049   0.375   5.445   7.491  2.7719  0.8844 -0.9487
   42CHL1   C14 3050   0.389   5.599   7.633 -0.7802  0.3945  1.2256
   42CHL1   H14 3051   0.368   5.709   7.637  3.3197  1.3328  1.1397
   42CHL1   C15 3052   0.531   5.573   7.690  0.3120 -0.5445  0.8244
   42CHL1  H15A 3053   0.575   5.477   7.657  0.2719  0.2008 -1.6428
   42CHL1  H15B 3054   0.605   5.647   7.652 -0.3382  0.5315  1.5863
   42CHL1   C16 3055   0.520   5.578   7.836  0.5718  0.6763  0.4875
   42CHL1  H16A 3056   0.548   5.483   7.886  1.1526  1.4996  1.7935
   42CHL1  H16B 3057   0.588   5.653   7.882  1.0000  0.3855  0.3359
   42CHL1   C17 3058   0.364   5.610   7.868  0.5090  0.6774  0.4567
   42CHL1   H17 3059   0.360   5.721   7.859  0.0634  0.9423  3.2783
   42CHL1   C13 3060   0.301   5.542   7.745 -0.4042  0.3261 -0.4888
   42CHL1   C18 3061   0.310   5.391   7.757  0.1774 -0.1412 -0.0795
   42CHL1  H18A 3062   0.293   5.333   7.663 -2.5696 -0.4383  0.5269
   42CHL1  H18B 3063   0.411   5.365   7.795  0.0475  1.2130  1.2465
   42CHL1  H18C 3064   0.228   5.360   7.825 -0.2131  0.5932 -0.2028
   42CHL1   C12 3065   0.143   5.569   7.708 -0.0821 -0.5171 -0.6132
   42CHL1  H12A 3066   0.074   5.530   7.785 -0.7636 -1.0373 -1.4765
   42CHL1  H12B 3067   0.120   5.676   7.728 -1.5490 -1.0067  0.4565
   42CHL1   C11 3068   0.110   5.519   7.573 -0.7216 -0.5968  0.7742
   42CHL1  H11A 3069   0.112   5.408   7.572 -0.4064 -0.5946  0.9581
   42CHL1  H11B 3070   0.006   5.551   7.548 -0.0854  2.4179  1.5786
   42CHL1    C9 3071   0.205   5.567   7.457  0.3622 -0.4950 -0.3266
   42CHL1    H9 3072   0.202   5.677   7.439  2.1013 -0.2392  0.7164
   42CHL1   C10 3073   0.181   5.499   7.319  0.4569  0.6684  0.5495
   42CHL1   C19 3074   0.186   5.342   7.325 -1.1521 -1.2551 -0.4141
   42CHL1  H19A 3075   0.290   5.316   7.353 -0.8920  1.3997  1.4362
   42CHL1  H19B 3076   0.109   5.286   7.382 -1.2223 -1.9257 -1.1454
   42CHL1  H19C 3077   0.175   5.309   7.219  1.8069  0.2242 -1.2670
   42CHL1    C1 3078   0.046   5.547   7.270  0.6924 -0.1432  0.0777
   42CHL1   H1A 3079  -0.038   5.507   7.332  0.1878  1.4706  0.4963
   42CHL1   H1B 3080   0.045   5.657   7.286 -0.8788 -0.2837  1.3410
   42CHL1    C2 3081   0.016   5.499   7.125  0.6245 -0.4365 -0.1270
   42CHL1   H2A 3082  -0.088   5.527   7.097  0.4255  0.9313  1.7496
   42CHL1   H2B 3083   0.030   5.389   7.117 -2.5143 -1.1399  2.0278
   42CHL1   C20 3084   0.310   5.566   8.009 -0.0080  0.2150  0.4264
   42CHL1   H20 3085   0.310   5.455   8.010 -1.1121  0.2095  0.9758
   42CHL1   C21 3086   0.169   5.626   8.030  0.5434  0.9097 -0.5083
   42CHL1  H21A 3087   0.161   5.729   7.990  0.8120  0.6933 -1.1262
   42CHL1  H21B 3088   0.153   5.635   8.139  2.4441 -1.7559  0.0929
   42CHL1  H21C 3089   0.097   5.566   7.970  0.5698  2.7496 -2.5073
   42CHL1   C22 3090   0.394   5.611   8.133  0.5020  0.2937  0.0524
   42CHL1  H22A 3091   0.502   5.604   8.108  1.5737 -0.8291  4.2115
   42CHL1  H22B 3092   0.370   5.715   8.164 -0.3426 -0.3312  1.6061
   42CHL1   C23 3093   0.387   5.517   8.259 -0.0892 -0.0178  0.5804
   42CHL1  H23A 3094   0.281   5.488   8.276  0.0809 -0.8928  0.2404
   42CHL1  H23B 3095   0.444   5.427   8.226 -1.2453 -0.3888 -0.4825
   42CHL1   C24 3096   0.436   5.574   8.387  0.1159 -0.4458 -0.4334
   42CHL1  H24A 3097   0.525   5.636   8.365 -0.8065  1.5714  1.1502
   42CHL1  H24B 3098   0.363   5.641   8.437  0.5078 -1.3191  1.4193
   42CHL1   C25 3099   0.476   5.475   8.500 -1.0640  0.0749  0.7272
   42CHL1   H25 3100   0.519   5.389   8.445 -0.4928  1.3306 -0.8495
   42CHL1   C26 3101   0.581   5.532   8.588 -0.4714  0.2280 -0.7380
   42CHL1  H26A 3102   0.535   5.614   8.647  0.7156  0.9368 -0.7576
   42CHL1  H26B 3103   0.617   5.459   8.664 -2.1694  0.8187  0.7040
   42CHL1  H26C 3104   0.666   5.570   8.527 -0.5965 -1.5550 -2.0825
   42CHL1   C27 3105   0.350   5.431   8.572 -0.2804 -0.7190 -0.1113
   42CHL1  H27A 3106   0.303   5.516   8.626  0.0974 -0.5725 -0.0098
   42CHL1  H27B 3107   0.382   5.362   8.654  0.0942  0.4260  0.7284
   42CHL1  H27C 3108   0.284   5.386   8.495 -1.2010  0.0410  0.2090
   43CHL1    C3 3109   6.651   2.481   6.931 -0.2489 -0.0713  0.1355
   43CHL1    H3 3110   6.758   2.455   6.941 -0.4099 -0.1795  1.8552
   43CHL1    O3 3111   6.610   2.504   6.795  0.5399  0.0152  0.0544
   43CHL1   H3' 3112   6.607   2.415   6.759  1.5305 -0.1914  0.4375
   43CHL1    C4 3113   6.575   2.363   6.991 -0.3078  0.0041 -0.1170
   43CHL1   H4A 3114   6.468   2.391   6.978 -0.0586  0.5976 -0.9207
   43CHL1   H4B 3115   6.593   2.279   6.920  1.6161  0.0831  0.2287
   43CHL1    C5 3116   6.613   2.340   7.137 -0.5926  0.3458  0.1887
   43CHL1    C6 3117   6.673   2.220   7.170 -0.5500  1.0013  0.4208
   43CHL1    H6 3118   6.688   2.141   7.095 -1.0263 -0.4373  1.7727
   43CHL1    C7 3119   6.709   2.182   7.312  0.0355 -0.0528 -0.4490
   43CHL1   H7A 3120   6.653   2.093   7.349  1.2656 -0.3564  0.7775
   43CHL1   H7B 3121   6.819   2.173   7.322  0.0926 -0.7161 -1.4552
   43CHL1    C8 3122   6.659   2.288   7.417 -0.8654  0.5145  0.3213
   43CHL1    H8 3123   6.549   2.284   7.430 -1.0945  0.7106 -1.3135
   43CHL1   C14 3124   6.739   2.280   7.549  0.4692 -0.9952 -0.0864
   43CHL1   H14 3125   6.839   2.324   7.529 -0.2482  1.4639  1.2693
   43CHL1   C15 3126   6.758   2.146   7.629 -0.7488  0.7321 -0.6019
   43CHL1  H15A 3127   6.666   2.084   7.623 -0.4731  0.3704 -1.1045
   43CHL1  H15B 3128   6.846   2.091   7.590 -0.8846  0.0727  0.0092
   43CHL1   C16 3129   6.791   2.188   7.778 -0.4741 -0.2064  0.5464
   43CHL1  H16A 3130   6.712   2.141   7.839  1.1228 -2.2127  1.1880
   43CHL1  H16B 3131   6.884   2.144   7.821 -0.5523  0.8293  1.8351
   43CHL1   C17 3132   6.789   2.346   7.779  0.2573  0.1943 -0.1065
   43CHL1   H17 3133   6.895   2.367   7.753  1.1805 -2.2091  1.4116
   43CHL1   C13 3134   6.696   2.389   7.661  0.3678  0.1599  0.6245
   43CHL1   C18 3135   6.545   2.383   7.704  0.3981 -0.3201  0.0189
   43CHL1  H18A 3136   6.525   2.477   7.759  0.8071 -0.2090 -0.0265
   43CHL1  H18B 3137   6.483   2.388   7.612 -2.6070 -1.1419  1.8459
   43CHL1  H18C 3138   6.525   2.288   7.759  1.1616 -0.3324  0.2850
   43CHL1   C12 3139   6.743   2.523   7.598  0.7189 -0.4949 -0.4346
   43CHL1  H12A 3140   6.710   2.611   7.658  0.3038 -0.7454 -0.2929
   43CHL1  H12B 3141   6.853   2.536   7.590  0.3554  3.6952 -1.0904
   43CHL1   C11 3142   6.664   2.540   7.466 -0.4555 -0.8659  0.2173
   43CHL1  H11A 3143   6.556   2.558   7.487 -0.7247  0.3165 -1.9107
   43CHL1  H11B 3144   6.695   2.637   7.421 -0.2457 -2.0393 -2.3501
   43CHL1    C9 3145   6.682   2.433   7.360 -0.6598  0.7870 -0.1076
   43CHL1    H9 3146   6.791   2.433   7.338 -0.7058 -2.7023 -0.7878
   43CHL1   C10 3147   6.608   2.455   7.233  0.4520 -0.6275 -0.2305
   43CHL1   C19 3148   6.462   2.476   7.262  0.3234 -0.1637  0.1824
   43CHL1  H19A 3149   6.403   2.461   7.169 -0.7003 -0.6788  0.8956
   43CHL1  H19B 3150   6.419   2.401   7.332 -0.2268  1.6794  1.9212
   43CHL1  H19C 3151   6.438   2.575   7.305  0.3662  0.1198 -0.4433
   43CHL1    C1 3152   6.658   2.584   7.168 -0.0255  0.4220 -0.3285
   43CHL1   H1A 3153   6.614   2.672   7.219  1.4073  0.8542  0.2244
   43CHL1   H1B 3154   6.769   2.588   7.174 -0.0034 -1.2703  1.8419
   43CHL1    C2 3155   6.623   2.607   7.012  0.2934 -0.1610 -0.2594
   43CHL1   H2A 3156   6.694   2.683   6.973 -0.0268  1.6422  2.4285
   43CHL1   H2B 3157   6.524   2.657   7.001  2.0677  3.5045 -1.1874
   43CHL1   C20 3158   6.758   2.408   7.917  0.0344  0.1294  0.3358
   43CHL1   H20 3159   6.653   2.380   7.944 -0.1528  1.2076  0.7636
   43CHL1   C21 3160   6.791   2.556   7.928  0.0625 -0.0139  0.5656
   43CHL1  H21A 3161   6.882   2.577   7.867 -0.4427 -0.3257 -0.3218
   43CHL1  H21B 3162   6.799   2.595   8.031 -0.8782  1.4788  0.1046
   43CHL1  H21C 3163   6.709   2.621   7.890 -0.7072 -0.3087  1.6962
   43CHL1   C22 3164   6.833   2.333   8.041 -0.1671 -0.1625  0.6776
   43CHL1  H22A 3165   6.798   2.382   8.135  1.8978  1.1943  0.8015
   43CHL1  H22B 3166   6.798   2.228   8.030 -0.9039  0.1798 -0.3740
   43CHL1   C23 3167   6.984   2.341   8.040  0.1987 -0.0251 -0.0868
   43CHL1  H23A 3168   7.028   2.318   7.940  1.1442 -2.1895  0.7661
   43CHL1  H23B 3169   7.033   2.438   8.063 -0.2196 -0.0275  0.8652
   43CHL1   C24 3170   7.058   2.221   8.113  0.6136 -0.1302  0.3126
   43CHL1  H24A 3171   7.011   2.203   8.213 -2.8343 -0.2991 -1.1923
   43CHL1  H24B 3172   7.043   2.132   8.048 -1.3058  0.8715 -0.7254
   43CHL1   C25 3173   7.209   2.235   8.124 -0.4949 -0.3176  0.5543
   43CHL1   H25 3174   7.244   2.320   8.187 -0.2824 -1.6131  2.2744
   43CHL1   C26 3175   7.267   2.104   8.183  0.5949 -0.0946  0.2291
   43CHL1  H26A 3176   7.234   2.092   8.289 -1.0918  0.5661 -0.1886
   43CHL1  H26B 3177   7.237   2.024   8.112  0.6243  0.2911 -0.2277
   43CHL1  H26C 3178   7.377   2.113   8.181  0.8183 -2.2322  0.6510
   43CHL1   C27 3179   7.274   2.258   7.986  0.8500 -0.2799 -0.3913
   43CHL1  H27A 3180   7.384   2.249   7.978  1.1186  2.6939 -1.3723
   43CHL1  H27B 3181   7.233   2.179   7.920 -1.3911  1.0508 -0.6756
   43CHL1  H27C 3182   7.236   2.354   7.945 -0.7303 -0.4067  0.6982
   44CHL1    C3 3183   5.905   0.640   6.634  0.1682 -0.3593 -0.7035
   44CHL1    H3 3184   5.972   0.724   6.663 -0.8513  0.2525 -0.0263
   44CHL1    O3 3185   5.897   0.612   6.496  0.0193 -0.3097 -0.5538
   44CHL1   H3' 3186   5.886   0.517   6.489  2.4809 -0.5319 -2.4778
   44CHL1    C4 3187   5.954   0.516   6.715 -0.2684  0.6556  0.2795
   44CHL1   H4A 3188   5.885   0.432   6.690  0.2228  0.4974 -0.5836
   44CHL1   H4B 3189   6.051   0.489   6.669 -0.4401 -0.5929  0.6093
   44CHL1    C5 3190   5.964   0.541   6.862 -0.2576 -0.2009  0.3089
   44CHL1    C6 3191   6.076   0.525   6.932 -0.2850  0.3018 -0.6593
   44CHL1    H6 3192   6.168   0.492   6.882  0.2242 -1.8073  1.5070
   44CHL1    C7 3193   6.082   0.538   7.082 -0.5606  0.2789 -0.2335
   44CHL1   H7A 3194   6.140   0.459   7.135 -0.7532  0.5267  0.3586
   44CHL1   H7B 3195   6.124   0.636   7.114 -1.4167  0.4585  0.3751
   44CHL1    C8 3196   5.938   0.527   7.141  0.1024 -0.2764 -0.7051
   44CHL1    H8 3197   5.894   0.426   7.132 -0.9438 -0.1227  1.8097
   44CHL1   C14 3198   5.952   0.570   7.291  0.2062 -0.5305  0.3187
   44CHL1   H14 3199   5.999   0.671   7.287 -1.1373  0.1347  0.6089
   44CHL1   C15 3200   6.032   0.472   7.371 -0.0815  0.3551  0.2888
   44CHL1  H15A 3201   5.986   0.374   7.345 -0.9457  0.5505  1.0342
   44CHL1  H15B 3202   6.136   0.453   7.336 -1.3131 -0.3075 -3.4363
   44CHL1   C16 3203   6.023   0.512   7.520  0.3398 -0.3048 -0.0404
   44CHL1  H16A 3204   5.990   0.423   7.576 -0.0474 -1.0281 -1.3819
   44CHL1  H16B 3205   6.119   0.558   7.554  0.1502 -0.7981  1.2128
   44CHL1   C17 3206   5.907   0.623   7.508  0.6793  0.1315  0.0318
   44CHL1   H17 3207   5.963   0.718   7.494  0.5734  0.2993  0.6894
   44CHL1   C13 3208   5.828   0.591   7.375  0.3233  0.0245  0.0530
   44CHL1   C18 3209   5.750   0.460   7.381 -0.0475 -0.0048 -0.4150
   44CHL1  H18A 3210   5.647   0.468   7.420 -0.4705 -0.1267 -1.4971
   44CHL1  H18B 3211   5.737   0.410   7.283 -1.5896 -1.7097  0.5994
   44CHL1  H18C 3212   5.788   0.386   7.455 -0.9671  0.4759  0.5586
   44CHL1   C12 3213   5.742   0.703   7.310  0.1912 -0.2301 -0.3301
   44CHL1  H12A 3214   5.639   0.707   7.352 -0.1972 -2.2001 -1.0160
   44CHL1  H12B 3215   5.801   0.797   7.321  0.6401 -0.5076 -0.3618
   44CHL1   C11 3216   5.715   0.677   7.155 -0.0052  0.8253 -0.5357
   44CHL1  H11A 3217   5.633   0.602   7.150  0.4962  0.3567 -2.2436
   44CHL1  H11B 3218   5.671   0.772   7.118 -1.2976  1.5961  2.6116
   44CHL1    C9 3219   5.843   0.629   7.075  0.0909 -0.2391 -0.6368
   44CHL1    H9 3220   5.902   0.723   7.070 -2.1824  1.2608 -0.8168
   44CHL1   C10 3221   5.832   0.583   6.927 -0.1507 -0.0439  0.0416
   44CHL1   C19 3222   5.739   0.458   6.922 -0.2873 -0.6134  0.7745
   44CHL1  H19A 3223   5.710   0.441   6.816 -3.1747  0.1525  1.3663
   44CHL1  H19B 3224   5.789   0.362   6.947 -0.2944 -0.9070 -0.2785
   44CHL1  H19C 3225   5.643   0.459   6.978 -1.2974  2.6466 -0.8049
   44CHL1    C1 3226   5.773   0.701   6.837 -0.1330  0.0018  0.1157
   44CHL1   H1A 3227   5.678   0.725   6.889 -0.3587  1.1299 -0.7837
   44CHL1   H1B 3228   5.837   0.787   6.865  0.1507 -0.2083  0.1150
   44CHL1    C2 3229   5.766   0.681   6.682 -0.0503 -0.4724  0.3744
   44CHL1   H2A 3230   5.744   0.778   6.631 -0.2773 -1.5978 -1.7761
   44CHL1   H2B 3231   5.681   0.615   6.657 -1.1460  0.9228  0.2599
   44CHL1   C20 3232   5.821   0.639   7.633 -1.0151 -0.5236 -0.8416
   44CHL1   H20 3233   5.750   0.554   7.633 -1.8729  0.1722 -0.8658
   44CHL1   C21 3234   5.750   0.773   7.635  0.4096  0.6659 -0.8968
   44CHL1  H21A 3235   5.689   0.773   7.728  2.1206 -1.6082  0.3345
   44CHL1  H21B 3236   5.676   0.790   7.553 -2.0089 -1.7912  0.5918
   44CHL1  H21C 3237   5.830   0.849   7.626  1.4986 -0.5266 -1.7225
   44CHL1   C22 3238   5.908   0.632   7.765  0.5072 -0.9362 -0.0297
   44CHL1  H22A 3239   5.959   0.534   7.771  0.7034 -0.7607  1.8498
   44CHL1  H22B 3240   5.986   0.712   7.767 -0.7323  0.3155  2.2147
   44CHL1   C23 3241   5.831   0.652   7.894  0.4620 -1.4704 -0.5971
   44CHL1  H23A 3242   5.780   0.751   7.898 -0.7881 -2.1009  2.8310
   44CHL1  H23B 3243   5.745   0.581   7.890  0.0081 -1.0286  0.7051
   44CHL1   C24 3244   5.923   0.637   8.011  0.2112  0.7566 -0.5405
   44CHL1  H24A 3245   5.996   0.556   7.991 -1.4430 -0.9714  0.0612
   44CHL1  H24B 3246   5.982   0.731   8.008 -0.9307  1.4943 -0.4158
   44CHL1   C25 3247   5.857   0.634   8.155 -0.0230 -0.3494  0.2132
   44CHL1   H25 3248   5.945   0.650   8.222  0.9479  0.6771 -1.2543
   44CHL1   C26 3249   5.752   0.743   8.179 -0.1808  0.6391 -0.7970
   44CHL1  H26A 3250   5.794   0.845   8.174 -0.0474  0.7241  1.2524
   44CHL1  H26B 3251   5.672   0.725   8.103 -0.9014  0.6705 -0.0645
   44CHL1  H26C 3252   5.692   0.726   8.271 -1.2523  1.4276 -1.3227
   44CHL1   C27 3253   5.787   0.494   8.190  0.2406  0.0986  0.2418
   44CHL1  H27A 3254   5.721   0.484   8.279 -3.0511 -0.9495 -2.0890
   44CHL1  H27B 3255   5.729   0.465   8.099  0.2029 -1.1914  0.6628
   44CHL1  H27C 3256   5.865   0.415   8.182  0.1454 -0.4187  3.3582
   45CHL1    C3 3257   1.270   5.409   6.762  0.0775 -0.0559 -0.2886
   45CHL1    H3 3258   1.302   5.502   6.813 -1.2320  0.0297  0.4220
   45CHL1    O3 3259   1.265   5.420   6.617  0.0750  0.3557  0.1100
   45CHL1   H3' 3260   1.255   5.329   6.589  0.0389  0.0247  1.1578
   45CHL1    C4 3261   1.367   5.302   6.808  0.2687  0.2966 -0.0264
   45CHL1   H4A 3262   1.337   5.203   6.767 -0.9528  1.4024 -1.9580
   45CHL1   H4B 3263   1.469   5.328   6.774  0.8039 -0.0368  1.2723
   45CHL1    C5 3264   1.360   5.284   6.958 -0.6984  0.0810 -0.7255
   45CHL1    C6 3265   1.483   5.273   7.018 -0.0296  0.6662 -0.6205
   45CHL1    H6 3266   1.578   5.269   6.963  0.5698 -0.7539  0.4722
   45CHL1    C7 3267   1.497   5.252   7.169 -0.0784  0.0483  0.4781
   45CHL1   H7A 3268   1.562   5.164   7.190  1.2684  0.8300 -0.2502
   45CHL1   H7B 3269   1.539   5.344   7.216 -1.5372  1.2043 -0.4340
   45CHL1    C8 3270   1.364   5.232   7.238 -0.2717  0.3254 -0.0735
   45CHL1    H8 3271   1.339   5.125   7.219 -2.5162  0.4484  1.6295
   45CHL1   C14 3272   1.366   5.258   7.384 -0.4909  0.5370 -0.0160
   45CHL1   H14 3273   1.387   5.367   7.392  1.9187  0.3117 -2.0461
   45CHL1   C15 3274   1.479   5.195   7.466  0.6062  0.2493 -0.3138
   45CHL1  H15A 3275   1.483   5.088   7.435  1.6397 -0.1715  1.1709
   45CHL1  H15B 3276   1.573   5.251   7.446  1.9800 -2.2423 -1.3291
   45CHL1   C16 3277   1.433   5.213   7.617 -0.9681  0.0963 -0.2626
   45CHL1  H16A 3278   1.441   5.116   7.670 -1.2086  0.6260  0.7594
   45CHL1  H16B 3279   1.493   5.281   7.681 -0.5993 -0.3769 -0.0971
   45CHL1   C17 3280   1.281   5.252   7.616  0.1400 -0.3631  0.0383
   45CHL1   H17 3281   1.266   5.360   7.638 -0.1191 -0.3370 -0.2642
   45CHL1   C13 3282   1.239   5.232   7.466  0.3174  0.3661 -0.1371
   45CHL1   C18 3283   1.192   5.084   7.445  0.2885  0.3240 -0.4678
   45CHL1  H18A 3284   1.097   5.070   7.502  1.0877  1.1221  1.1452
   45CHL1  H18B 3285   1.173   5.072   7.336 -2.0216 -1.1236  0.0266
   45CHL1  H18C 3286   1.263   5.012   7.491 -1.3357 -0.7241  0.4792
   45CHL1   C12 3287   1.138   5.329   7.406  0.9843  0.0791  0.2590
   45CHL1  H12A 3288   1.037   5.310   7.449 -0.3240  1.3829 -2.0343
   45CHL1  H12B 3289   1.163   5.434   7.432 -0.6648  0.4829  0.3175
   45CHL1   C11 3290   1.119   5.312   7.253  0.2324 -0.3092 -0.5287
   45CHL1  H11A 3291   1.074   5.211   7.238  0.2721 -0.1358 -2.0028
   45CHL1  H11B 3292   1.053   5.389   7.207  0.8404  0.7637  0.3848
   45CHL1    C9 3293   1.247   5.306   7.172  0.0388  0.5463 -0.3517
   45CHL1    H9 3294   1.289   5.408   7.170  1.9853 -0.0424  2.8942
   45CHL1   C10 3295   1.221   5.279   7.028 -0.0639 -0.0453  0.7221
   45CHL1   C19 3296   1.171   5.135   7.009  0.3857 -0.0016 -0.1301
   45CHL1  H19A 3297   1.075   5.118   7.061 -0.7804 -4.7218 -3.1354
   45CHL1  H19B 3298   1.161   5.107   6.902  0.2909  2.0766 -0.6993
   45CHL1  H19C 3299   1.228   5.051   7.056  0.2438  0.4619  0.8841
   45CHL1    C1 3300   1.122   5.372   6.968  0.0200 -0.5243  0.4292
   45CHL1   H1A 3301   1.023   5.343   7.010  0.0903 -0.3780  0.6962
   45CHL1   H1B 3302   1.137   5.473   7.012 -0.2899 -1.4021  2.6405
   45CHL1    C2 3303   1.128   5.380   6.814  0.1752 -0.6515  0.9421
   45CHL1   H2A 3304   1.050   5.450   6.779 -0.1690 -1.9278 -0.9873
   45CHL1   H2B 3305   1.096   5.279   6.780 -1.9095  0.5346 -0.8626
   45CHL1   C20 3306   1.199   5.173   7.721 -0.6011  0.7640 -0.1842
   45CHL1   H20 3307   1.194   5.066   7.695 -0.5652  0.9870 -1.1619
   45CHL1   C21 3308   1.046   5.213   7.728 -0.4438  0.0701 -0.1267
   45CHL1  H21A 3309   1.049   5.320   7.756 -0.6825 -0.6735  3.2926
   45CHL1  H21B 3310   0.993   5.164   7.813 -1.1583 -0.3972 -0.8274
   45CHL1  H21C 3311   0.991   5.192   7.634  0.1145  0.0058 -0.4429
   45CHL1   C22 3312   1.259   5.167   7.864 -0.0112  0.1845  0.1986
   45CHL1  H22A 3313   1.195   5.107   7.932 -0.0434  0.3984  0.3605
   45CHL1  H22B 3314   1.354   5.110   7.859 -0.4633 -0.5108 -0.7588
   45CHL1   C23 3315   1.275   5.300   7.939 -0.4085 -0.7986 -0.7699
   45CHL1  H23A 3316   1.324   5.375   7.873  0.8391 -1.6929 -0.8904
   45CHL1  H23B 3317   1.176   5.333   7.977 -0.2165 -0.8966 -0.1895
   45CHL1   C24 3318   1.359   5.292   8.075 -0.0374 -0.1735 -0.0370
   45CHL1  H24A 3319   1.460   5.253   8.048 -0.1144 -0.4578  0.0810
   45CHL1  H24B 3320   1.373   5.394   8.115 -1.5503 -0.0957  0.3388
   45CHL1   C25 3321   1.314   5.196   8.184  0.1614  0.1631  0.0453
   45CHL1   H25 3322   1.267   5.106   8.140  0.2134 -1.5053  3.1047
   45CHL1   C26 3323   1.436   5.163   8.275  0.0951  0.7836  0.0733
   45CHL1  H26A 3324   1.533   5.156   8.222  0.0602 -0.3210  0.1361
   45CHL1  H26B 3325   1.450   5.254   8.337 -2.7027  2.3357 -1.3724
   45CHL1  H26C 3326   1.413   5.078   8.342  0.1387  1.4168  0.9052
   45CHL1   C27 3327   1.207   5.267   8.271 -0.3161 -0.1778  0.3511
   45CHL1  H27A 3328   1.209   5.206   8.363  0.7649 -1.6210 -0.5918
   45CHL1  H27B 3329   1.220   5.376   8.288  0.6235 -0.5209  2.0626
   45CHL1  H27C 3330   1.107   5.257   8.224 -0.7634  0.8294  1.0394
   46CHL1    C3 3331   0.075   0.265   7.051 -0.8725 -0.5348  0.1094
   46CHL1    H3 3332  -0.032   0.297   7.056 -0.5413  0.7379 -0.5963
   46CHL1    O3 3333   0.123   0.284   6.920 -0.2570 -0.5058 -0.2330
   46CHL1   H3' 3334   0.078   0.216   6.869  1.1382 -2.4216  0.9781
   46CHL1    C4 3335   0.148   0.374   7.143 -0.3003  1.0707  0.0169
   46CHL1   H4A 3336   0.258   0.366   7.133 -0.0315 -0.4473  2.9221
   46CHL1   H4B 3337   0.124   0.479   7.117 -0.4587  0.9403 -0.3753
   46CHL1    C5 3338   0.120   0.345   7.286  0.1595  0.6935 -0.2308
   46CHL1    C6 3339   0.077   0.441   7.362 -0.0677 -0.0293 -0.0628
   46CHL1    H6 3340   0.065   0.542   7.319 -1.0855 -0.3533 -0.5811
   46CHL1    C7 3341   0.054   0.424   7.509  0.0657 -0.4417 -0.6977
   46CHL1   H7A 3342   0.104   0.509   7.561 -0.4659  0.7936 -2.1276
   46CHL1   H7B 3343  -0.054   0.433   7.536  0.3658 -0.1696  0.4672
   46CHL1    C8 3344   0.109   0.300   7.572  0.2614 -0.0610  0.3498
   46CHL1    H8 3345   0.219   0.311   7.585  0.0076  1.2046  1.5692
   46CHL1   C14 3346   0.045   0.277   7.701 -0.2802  0.9537 -0.3143
   46CHL1   H14 3347  -0.061   0.251   7.680  0.6584 -2.7845 -1.0713
   46CHL1   C15 3348   0.048   0.386   7.812 -0.9221 -0.1808 -0.2741
   46CHL1  H15A 3349   0.151   0.426   7.825 -0.0264 -2.5345  0.3487
   46CHL1  H15B 3350  -0.022   0.469   7.786 -1.4223 -0.5430 -0.1063
   46CHL1   C16 3351  -0.003   0.317   7.940  0.6416 -0.0300 -0.1684
   46CHL1  H16A 3352   0.055   0.341   8.031 -1.5270  1.2469  0.9495
   46CHL1  H16B 3353  -0.110   0.345   7.949  0.2276 -0.8981 -1.8444
   46CHL1   C17 3354   0.015   0.165   7.910 -0.1418  0.4301 -0.0107
   46CHL1   H17 3355  -0.086   0.137   7.874 -0.8172  4.1458 -1.4538
   46CHL1   C13 3356   0.099   0.150   7.774 -0.2833 -0.0176 -0.1758
   46CHL1   C18 3357   0.249   0.178   7.819 -0.1314 -0.7690 -0.1794
   46CHL1  H18A 3358   0.304   0.222   7.733 -1.3523  0.6502 -0.2799
   46CHL1  H18B 3359   0.259   0.240   7.910 -1.0668 -1.5153  0.4429
   46CHL1  H18C 3360   0.295   0.083   7.854 -1.4513 -1.0835  0.7673
   46CHL1   C12 3361   0.083   0.022   7.684 -1.0758  0.2548 -0.8450
   46CHL1  H12A 3362   0.131  -0.065   7.733 -1.4106 -0.9634 -2.5836
   46CHL1  H12B 3363  -0.027   0.004   7.693 -0.4555 -3.1733  2.4831
   46CHL1   C11 3364   0.124   0.043   7.542  0.8219  0.1943  0.5598
   46CHL1  H11A 3365   0.234   0.023   7.547  0.3470 -2.7341  0.8342
   46CHL1  H11B 3366   0.084  -0.042   7.483 -1.6683 -0.0758  2.4607
   46CHL1    C9 3367   0.080   0.179   7.478  0.0067  0.5000 -0.1428
   46CHL1    H9 3368  -0.030   0.168   7.472 -0.0399 -0.4786  1.8068
   46CHL1   C10 3369   0.130   0.195   7.332  0.2246  0.5784  0.5356
   46CHL1   C19 3370   0.280   0.151   7.327 -0.2785 -0.1619 -0.3004
   46CHL1  H19A 3371   0.345   0.200   7.403  1.4805 -1.5663 -0.8392
   46CHL1  H19B 3372   0.292   0.043   7.347  1.2471  0.1553  0.7065
   46CHL1  H19C 3373   0.332   0.183   7.235  1.7376 -0.9084  0.5287
   46CHL1    C1 3374   0.048   0.111   7.233 -0.7871 -0.8362 -0.8935
   46CHL1   H1A 3375   0.045   0.008   7.274  2.4106 -1.1974 -1.3043
   46CHL1   H1B 3376  -0.055   0.150   7.247  0.5747  2.5632  0.9959
   46CHL1    C2 3377   0.094   0.120   7.094  0.0455 -0.1701  0.4791
   46CHL1   H2A 3378   0.042   0.049   7.026 -3.1508  1.4673  1.0003
   46CHL1   H2B 3379   0.202   0.100   7.084 -0.0001 -0.0062 -0.4959
   46CHL1   C20 3380   0.044   0.075   8.027  0.2040 -0.1044  0.5008
   46CHL1   H20 3381   0.144   0.101   8.067  0.9298 -2.7267  0.5745
   46CHL1   C21 3382   0.031  -0.080   7.994  0.3038  0.1400  0.3941
   46CHL1  H21A 3383   0.113  -0.105   7.922 -1.0672  0.1343 -1.2223
   46CHL1  H21B 3384  -0.063  -0.091   7.936  0.8052  0.9567 -0.6249
   46CHL1  H21C 3385   0.028  -0.153   8.077  0.0307 -1.2715 -0.8184
   46CHL1   C22 3386  -0.064   0.103   8.135  0.5010 -0.6349  0.6013
   46CHL1  H22A 3387  -0.084   0.212   8.144  0.9097 -0.4546 -0.4945
   46CHL1  H22B 3388  -0.159   0.052   8.109  0.0026  1.3605 -1.9652
   46CHL1   C23 3389  -0.019   0.061   8.277 -0.1844 -0.1897  0.0633
   46CHL1  H23A 3390   0.057  -0.018   8.258  0.5144  0.9196 -2.0129
   46CHL1  H23B 3391   0.047   0.137   8.324 -1.2492  0.1014  1.1364
   46CHL1   C24 3392  -0.138   0.027   8.373 -0.3189 -0.6833  0.2564
   46CHL1  H24A 3393  -0.195  -0.055   8.324 -1.0037 -0.6938  1.0610
   46CHL1  H24B 3394  -0.101  -0.017   8.467  1.4598  0.7007  0.2572
   46CHL1   C25 3395  -0.226   0.144   8.404  0.7226 -0.6718 -1.1825
   46CHL1   H25 3396  -0.266   0.189   8.310 -1.0914 -2.3377 -1.2544
   46CHL1   C26 3397  -0.350   0.094   8.484  0.3602 -0.4137 -0.1087
   46CHL1  H26A 3398  -0.417   0.037   8.416 -3.2047  2.4430  0.6946
   46CHL1  H26B 3399  -0.321   0.032   8.572 -0.9791 -1.5577 -0.4328
   46CHL1  H26C 3400  -0.417   0.170   8.532  1.0766 -1.0559  2.0433
   46CHL1   C27 3401  -0.147   0.258   8.473  0.0985 -0.7252 -0.1540
   46CHL1  H27A 3402  -0.073   0.309   8.407  0.9859 -2.7155 -0.7912
   46CHL1  H27B 3403  -0.217   0.339   8.502  0.6066  0.6921 -2.5341
   46CHL1  H27C 3404  -0.091   0.225   8.563  0.5945  0.6672  0.0673
   47CHL1    C3 3405   5.893   0.074   6.749  0.0352 -0.1991  0.5888
   47CHL1    H3 3406   5.802   0.130   6.778 -0.9534 -0.6204 -1.5239
   47CHL1    O3 3407   5.924   0.118   6.618  0.1988 -0.0161 -0.3800
   47CHL1   H3' 3408   6.002   0.067   6.595 -1.5391 -3.1276  0.1420
   47CHL1    C4 3409   6.017   0.102   6.832  0.4982  0.2489  0.1084
   47CHL1   H4A 3410   6.107   0.060   6.782 -0.4432 -1.6467 -0.0679
   47CHL1   H4B 3411   6.028   0.213   6.832  1.6454  0.1914 -1.8527
   47CHL1    C5 3412   6.006   0.055   6.971  0.8554 -0.6520 -0.0766
   47CHL1    C6 3413   6.009   0.143   7.068 -0.4423  0.1176 -0.5316
   47CHL1    H6 3414   6.027   0.251   7.056 -1.6605  0.1953 -2.0462
   47CHL1    C7 3415   5.990   0.095   7.210 -0.4325 -0.0942 -0.0995
   47CHL1   H7A 3416   6.061   0.151   7.274 -0.5610  0.1750 -0.1892
   47CHL1   H7B 3417   5.889   0.130   7.242 -0.1455  0.8012 -0.1527
   47CHL1    C8 3418   6.007  -0.058   7.244 -0.2222 -0.4046 -0.1642
   47CHL1    H8 3419   6.116  -0.072   7.233 -0.4251 -0.2988 -2.9451
   47CHL1   C14 3420   5.957  -0.092   7.383  0.4621  0.2629  0.3587
   47CHL1   H14 3421   5.848  -0.071   7.385  0.8394  2.3834  1.8960
   47CHL1   C15 3422   6.003  -0.012   7.503  0.1508 -0.3244  0.1087
   47CHL1  H15A 3423   6.114  -0.015   7.512  0.2753  1.6781 -0.3719
   47CHL1  H15B 3424   5.963   0.091   7.492  0.9347  0.0300  0.4924
   47CHL1   C16 3425   5.960  -0.108   7.619  0.3364  0.5644 -0.2271
   47CHL1  H16A 3426   6.040  -0.141   7.689 -2.1110 -1.7774  1.6972
   47CHL1  H16B 3427   5.876  -0.072   7.681 -1.1873 -0.8626 -1.3580
   47CHL1   C17 3428   5.914  -0.248   7.555  0.5672 -0.2454  0.0671
   47CHL1   H17 3429   5.806  -0.242   7.532  0.1978 -3.1535  0.6691
   47CHL1   C13 3430   5.984  -0.237   7.416 -0.3904  0.5743 -0.1925
   47CHL1   C18 3431   6.137  -0.253   7.429 -0.6721 -0.6405 -0.2038
   47CHL1  H18A 3432   6.165  -0.356   7.459  1.3166 -0.2480 -0.5379
   47CHL1  H18B 3433   6.189  -0.239   7.332  0.6312 -2.5833  0.1550
   47CHL1  H18C 3434   6.192  -0.190   7.502  0.9599 -1.9109 -0.2807
   47CHL1   C12 3435   5.908  -0.325   7.300  0.3251 -0.3902  0.5085
   47CHL1  H12A 3436   5.913  -0.435   7.317 -1.4837 -0.5615  0.1438
   47CHL1  H12B 3437   5.801  -0.297   7.308 -0.0008 -1.0551 -1.1648
   47CHL1   C11 3438   5.958  -0.299   7.159 -0.2550  0.5047 -0.1281
   47CHL1  H11A 3439   6.068  -0.319   7.157 -0.0968  0.1253  3.7984
   47CHL1  H11B 3440   5.903  -0.362   7.087 -0.2591 -1.4743  1.5132
   47CHL1    C9 3441   5.942  -0.144   7.129  0.0320  0.7566 -0.0935
   47CHL1    H9 3442   5.834  -0.124   7.146 -0.1049 -0.9522  1.2838
   47CHL1   C10 3443   5.975  -0.098   6.983  0.0309  0.1357 -0.2761
   47CHL1   C19 3444   6.098  -0.183   6.933 -0.3116 -0.0050  0.0528
   47CHL1  H19A 3445   6.061  -0.286   6.914 -0.7633  0.8454 -4.8992
   47CHL1  H19B 3446   6.130  -0.135   6.838  3.1358  0.0132  1.0725
   47CHL1  H19C 3447   6.181  -0.174   7.007  0.4419  1.6348 -0.9488
   47CHL1    C1 3448   5.851  -0.128   6.896  0.5778 -0.4817  0.4187
   47CHL1   H1A 3449   5.840  -0.238   6.890  1.1317 -0.5765  1.0334
   47CHL1   H1B 3450   5.760  -0.090   6.949 -1.3858 -0.5855 -2.6520
   47CHL1    C2 3451   5.857  -0.081   6.750 -0.5325  0.0087 -0.5131
   47CHL1   H2A 3452   5.755  -0.085   6.706 -1.0013  3.9910 -0.1926
   47CHL1   H2B 3453   5.928  -0.142   6.690  0.0906 -0.6906  0.8903
   47CHL1   C20 3454   5.939  -0.370   7.654  0.3575 -0.2437 -0.9593
   47CHL1   H20 3455   6.046  -0.373   7.685  0.3322  0.8593 -0.7140
   47CHL1   C21 3456   5.881  -0.500   7.593 -0.3163 -0.0140  0.3028
   47CHL1  H21A 3457   5.896  -0.587   7.661 -1.6087  1.5570  2.7512
   47CHL1  H21B 3458   5.929  -0.516   7.495 -1.7298  1.9562 -0.7810
   47CHL1  H21C 3459   5.772  -0.490   7.573 -0.3339 -2.0526 -0.8905
   47CHL1   C22 3460   5.855  -0.332   7.786  0.0981  0.6710  0.3280
   47CHL1  H22A 3461   5.865  -0.225   7.813  1.1376  1.2759 -2.2161
   47CHL1  H22B 3462   5.745  -0.334   7.766  0.0098  2.0584  0.5743
   47CHL1   C23 3463   5.870  -0.424   7.906  0.1586 -0.1045  0.8526
   47CHL1  H23A 3464   5.862  -0.532   7.879  0.4507  0.4722 -1.7592
   47CHL1  H23B 3465   5.975  -0.406   7.937 -0.0272  0.4232  1.1862
   47CHL1   C24 3466   5.771  -0.386   8.018 -0.6210 -0.5682  0.2254
   47CHL1  H24A 3467   5.770  -0.277   8.040  0.0130 -0.8733  1.9562
   47CHL1  H24B 3468   5.674  -0.427   7.983 -0.2023 -0.8250 -0.6589
   47CHL1   C25 3469   5.804  -0.472   8.141 -0.0547 -0.0728 -0.5525
   47CHL1   H25 3470   5.791  -0.581   8.125 -0.2434 -0.1356  0.0027
   47CHL1   C26 3471   5.943  -0.447   8.200 -0.1169  0.3184 -0.0858
   47CHL1  H26A 3472   6.018  -0.488   8.128 -0.0619  0.3839 -0.0656
   47CHL1  H26B 3473   5.953  -0.340   8.227 -1.0636  0.1288  1.1004
   47CHL1  H26C 3474   5.948  -0.501   8.297 -1.1714  0.5809  0.1209
   47CHL1   C27 3475   5.691  -0.434   8.247 -0.3258  0.0963  0.3402
   47CHL1  H27A 3476   5.703  -0.514   8.323 -0.5758  0.1139  0.3978
   47CHL1  H27B 3477   5.726  -0.339   8.293  0.7479  0.3274 -0.8658
   47CHL1  H27C 3478   5.597  -0.430   8.189 -0.7985  1.0452  1.1601
   48CHL1    C3 3479   3.304   1.659   6.399 -0.4785  0.3361  0.7753
   48CHL1    H3 3480   3.206   1.607   6.394 -0.7133  0.8068  0.3391
   48CHL1    O3 3481   3.364   1.654   6.269  0.0701  0.2646 -0.0205
   48CHL1   H3' 3482   3.456   1.630   6.284  0.2153  0.9428  0.1991
   48CHL1    C4 3483   3.292   1.795   6.451  0.0698 -0.1750 -0.0277
   48CHL1   H4A 3484   3.390   1.843   6.437  0.6453 -1.1687  0.4739
   48CHL1   H4B 3485   3.215   1.851   6.394 -1.1947 -2.2794 -0.4960
   48CHL1    C5 3486   3.258   1.804   6.601 -0.6428  0.4126 -0.0077
   48CHL1    C6 3487   3.157   1.871   6.655 -0.8495  0.3316  0.2910
   48CHL1    H6 3488   3.088   1.922   6.586 -1.6777 -1.0149  0.1009
   48CHL1    C7 3489   3.128   1.889   6.798  0.7097 -0.0883  0.3789
   48CHL1   H7A 3490   3.131   1.998   6.819  0.2842  0.2199 -1.0404
   48CHL1   H7B 3491   3.027   1.848   6.824 -0.7912  1.2458 -2.8379
   48CHL1    C8 3492   3.238   1.827   6.886  0.1507 -0.0883  0.6377
   48CHL1    H8 3493   3.321   1.901   6.891 -0.2257  0.6506 -2.3923
   48CHL1   C14 3494   3.187   1.806   7.032  0.4889 -0.1677 -0.4285
   48CHL1   H14 3495   3.113   1.723   7.035  1.4316 -1.0081  0.3680
   48CHL1   C15 3496   3.119   1.928   7.104 -0.3688  0.5825 -0.2082
   48CHL1  H15A 3497   3.180   2.020   7.099 -0.4187  0.5700 -1.0699
   48CHL1  H15B 3498   3.020   1.951   7.061 -0.8730  0.7344  0.9792
   48CHL1   C16 3499   3.110   1.872   7.248  0.3322  0.1265 -0.4881
   48CHL1  H16A 3500   3.125   1.949   7.327  1.5616  1.8393 -2.2985
   48CHL1  H16B 3501   3.014   1.817   7.248 -1.1658  2.5823  0.5391
   48CHL1   C17 3502   3.206   1.753   7.260 -0.1240 -0.1246 -0.4043
   48CHL1   H17 3503   3.146   1.660   7.248 -1.1685  0.6853 -1.7613
   48CHL1   C13 3504   3.289   1.751   7.128 -0.3260  0.0297 -0.4333
   48CHL1   C18 3505   3.399   1.851   7.157 -0.3169 -0.8325  0.2928
   48CHL1  H18A 3506   3.370   1.933   7.226  2.8363  0.7289 -0.0533
   48CHL1  H18B 3507   3.498   1.814   7.189  2.9300  3.8326 -3.0268
   48CHL1  H18C 3508   3.423   1.907   7.064  0.0838 -0.0264  0.8661
   48CHL1   C12 3509   3.338   1.610   7.081  0.3757  0.2134 -0.3955
   48CHL1  H12A 3510   3.413   1.575   7.155 -1.8203  0.3911  2.0908
   48CHL1  H12B 3511   3.254   1.538   7.082 -0.8490  1.5700  0.9343
   48CHL1   C11 3512   3.391   1.624   6.932  1.2221 -0.2842 -0.6787
   48CHL1  H11A 3513   3.482   1.682   6.956 -0.7308  1.5311  3.4262
   48CHL1  H11B 3514   3.423   1.520   6.906 -0.2446 -0.8084 -0.4982
   48CHL1    C9 3515   3.295   1.693   6.838  0.3789 -0.1954 -0.2289
   48CHL1    H9 3516   3.207   1.626   6.822 -1.0720  1.7159 -0.5842
   48CHL1   C10 3517   3.346   1.710   6.694  0.1670 -0.1431  1.0753
   48CHL1   C19 3518   3.493   1.769   6.697 -0.1269 -0.1858 -0.5836
   48CHL1  H19A 3519   3.522   1.806   6.596  1.9553 -0.2582 -0.0489
   48CHL1  H19B 3520   3.502   1.859   6.761 -0.9884  0.0839 -0.8241
   48CHL1  H19C 3521   3.569   1.690   6.715  1.8046  0.9848 -3.0395
   48CHL1    C1 3522   3.357   1.568   6.629 -0.0381 -0.7834 -0.2482
   48CHL1   H1A 3523   3.425   1.507   6.693  0.4203 -0.8916 -0.8292
   48CHL1   H1B 3524   3.255   1.526   6.644  0.2139 -0.7167  1.8589
   48CHL1    C2 3525   3.394   1.569   6.486 -1.0086  0.2818  0.1923
   48CHL1   H2A 3526   3.383   1.467   6.443 -1.0268  0.5499 -0.4456
   48CHL1   H2B 3527   3.499   1.604   6.487 -0.8792 -0.1059  1.2615
   48CHL1   C20 3528   3.268   1.748   7.398  0.1511 -0.0503 -0.3655
   48CHL1   H20 3529   3.325   1.840   7.421 -0.0159 -0.2696  1.0334
   48CHL1   C21 3530   3.372   1.632   7.409 -0.1669 -0.1453 -0.4223
   48CHL1  H21A 3531   3.400   1.609   7.514  0.3979 -0.3634 -0.6191
   48CHL1  H21B 3532   3.462   1.669   7.356 -0.5831  2.8515  0.8040
   48CHL1  H21C 3533   3.339   1.541   7.355  1.6834 -1.6120  0.7800
   48CHL1   C22 3534   3.146   1.731   7.493  0.5718  0.5880 -0.2908
   48CHL1  H22A 3535   3.065   1.800   7.461 -0.7927 -1.6106 -1.8510
   48CHL1  H22B 3536   3.108   1.627   7.485  1.2863  0.1015  1.7971
   48CHL1   C23 3537   3.170   1.754   7.646 -0.4152  0.5219  0.2545
   48CHL1  H23A 3538   3.235   1.667   7.670 -0.5067 -0.0337 -1.3595
   48CHL1  H23B 3539   3.219   1.851   7.668  0.8490  0.0761 -0.4700
   48CHL1   C24 3540   3.042   1.770   7.731 -0.3063 -0.2566  0.0911
   48CHL1  H24A 3541   3.017   1.877   7.723  0.3608 -0.1913 -1.6500
   48CHL1  H24B 3542   2.957   1.714   7.686 -2.0116  1.8160  0.5850
   48CHL1   C25 3543   3.053   1.725   7.883 -0.0392 -0.3872  0.1647
   48CHL1   H25 3544   2.949   1.744   7.916 -0.4877  3.4072 -2.7518
   48CHL1   C26 3545   3.081   1.574   7.903 -0.2003 -0.1601 -0.5472
   48CHL1  H26A 3546   2.996   1.516   7.860 -1.3789 -0.0888  1.5603
   48CHL1  H26B 3547   3.179   1.536   7.866 -0.3485 -0.0267 -1.0952
   48CHL1  H26C 3548   3.076   1.553   8.012 -2.5268 -1.2106 -0.7886
   48CHL1   C27 3549   3.149   1.814   7.968  0.2891  0.6186  0.3134
   48CHL1  H27A 3550   3.251   1.801   7.925  0.4245  1.5283  0.3285
   48CHL1  H27B 3551   3.130   1.921   7.946 -1.4170 -0.1021 -2.2258
   48CHL1  H27C 3552   3.154   1.791   8.076  0.7392 -1.1791 -0.0530
   49CHL1    C3 3553   2.277   2.932   6.655  1.2445 -0.3166  0.0548
   49CHL1    H3 3554   2.210   2.844   6.666  0.6497  0.0696 -0.4905
   49CHL1    O3 3555   2.277   2.973   6.518  0.0933 -0.0794  0.4010
   49CHL1   H3' 3556   2.329   3.053   6.529  1.2347 -0.9077  1.3641
   49CHL1    C4 3557   2.236   3.057   6.728  1.2358 -0.5214 -0.4834
   49CHL1   H4A 3558   2.304   3.142   6.704  0.6835  0.1562  0.2713
   49CHL1   H4B 3559   2.134   3.086   6.694  0.7381 -0.7113  0.7899
   49CHL1    C5 3560   2.234   3.028   6.879  0.9458 -0.1913 -0.6696
   49CHL1    C6 3561   2.120   3.040   6.941 -0.1803  0.2747  0.0515
   49CHL1    H6 3562   2.030   3.079   6.892  0.6535  1.9572 -0.2039
   49CHL1    C7 3563   2.106   3.000   7.086  0.2293  0.1522  0.2370
   49CHL1   H7A 3564   2.040   3.070   7.141 -1.3672  0.8156 -2.3569
   49CHL1   H7B 3565   2.051   2.905   7.103 -1.2351  1.0512  0.6390
   49CHL1    C8 3566   2.251   2.991   7.156  0.0103 -0.1783  0.2877
   49CHL1    H8 3567   2.286   3.096   7.159 -0.4897 -0.0116  2.7222
   49CHL1   C14 3568   2.238   2.948   7.302  0.4978  0.6126 -0.1265
   49CHL1   H14 3569   2.193   2.847   7.298 -0.3572  0.9338  0.7666
   49CHL1   C15 3570   2.141   3.027   7.400 -0.2098 -0.6062  0.0181
   49CHL1  H15A 3571   2.164   3.134   7.384  0.3684 -0.5410  1.1902
   49CHL1  H15B 3572   2.035   3.003   7.377 -0.3553 -1.8068  1.7018
   49CHL1   C16 3573   2.188   2.968   7.537 -0.7786  0.0388 -0.4137
   49CHL1  H16A 3574   2.202   3.048   7.613  0.2446 -1.1066  0.6335
   49CHL1  H16B 3575   2.115   2.899   7.585  0.4720  1.4680  3.9772
   49CHL1   C17 3576   2.320   2.891   7.518  0.1487 -0.0020 -0.0913
   49CHL1   H17 3577   2.294   2.784   7.504  0.1113 -0.2400  1.6779
   49CHL1   C13 3578   2.370   2.937   7.380  0.7055  0.3943  0.7190
   49CHL1   C18 3579   2.447   3.070   7.394  0.6065  0.1714  0.4654
   49CHL1  H18A 3580   2.396   3.131   7.471  0.9536 -0.3799  1.1440
   49CHL1  H18B 3581   2.550   3.048   7.428 -0.0022  0.0945  2.3627
   49CHL1  H18C 3582   2.447   3.121   7.295  0.0776 -2.6119 -1.0630
   49CHL1   C12 3583   2.447   2.833   7.301  0.0827  0.6871 -0.7118
   49CHL1  H12A 3584   2.546   2.819   7.350  0.5342  1.0849 -1.4844
   49CHL1  H12B 3585   2.392   2.737   7.299 -2.1568  1.9126 -0.4180
   49CHL1   C11 3586   2.475   2.878   7.163 -0.3994 -0.8276  0.0525
   49CHL1  H11A 3587   2.532   2.973   7.164 -0.7068 -0.6014 -1.1293
   49CHL1  H11B 3588   2.534   2.797   7.115  1.7987  0.3357  0.6838
   49CHL1    C9 3589   2.346   2.903   7.082  0.0965 -0.6307 -0.0636
   49CHL1    H9 3590   2.299   2.802   7.085 -0.0842 -0.5875 -1.1606
   49CHL1   C10 3591   2.363   2.960   6.940 -0.1607  0.3941  0.7055
   49CHL1   C19 3592   2.468   3.064   6.938  0.0295 -0.0279 -0.6843
   49CHL1  H19A 3593   2.565   3.012   6.950 -0.3240 -0.3068  1.3493
   49CHL1  H19B 3594   2.489   3.130   6.851  0.4176  2.6782  1.3259
   49CHL1  H19C 3595   2.459   3.135   7.022 -1.8313 -1.1814  0.1584
   49CHL1    C1 3596   2.410   2.834   6.852  0.0062 -0.2225 -0.1931
   49CHL1   H1A 3597   2.515   2.811   6.878  0.1011  2.1448  1.9076
   49CHL1   H1B 3598   2.335   2.752   6.851  1.5166 -1.6325 -1.3587
   49CHL1    C2 3599   2.423   2.885   6.703  0.2012  0.1668 -0.6061
   49CHL1   H2A 3600   2.440   2.800   6.633 -0.9943  0.4893 -1.3164
   49CHL1   H2B 3601   2.494   2.969   6.687 -1.8589  2.2097  0.3985
   49CHL1   C20 3602   2.413   2.904   7.635 -0.0961 -0.2001 -0.3632
   49CHL1   H20 3603   2.454   3.008   7.638  0.8280 -0.5141 -1.4223
   49CHL1   C21 3604   2.534   2.801   7.631  0.7393 -0.0150 -0.5485
   49CHL1  H21A 3605   2.490   2.700   7.621  2.6966 -1.1716  1.6618
   49CHL1  H21B 3606   2.587   2.807   7.728 -1.1186 -1.5623  0.6328
   49CHL1  H21C 3607   2.596   2.813   7.540  0.9348 -0.6901 -0.5097
   49CHL1   C22 3608   2.332   2.872   7.767 -0.0469  0.2056 -0.4667
   49CHL1  H22A 3609   2.231   2.918   7.776 -0.5442 -1.3005  4.0929
   49CHL1  H22B 3610   2.307   2.765   7.753 -1.2803  0.1310  1.8393
   49CHL1   C23 3611   2.401   2.890   7.902  0.5234  0.7720  0.0273
   49CHL1  H23A 3612   2.473   2.806   7.914 -0.3189  0.0494  0.2365
   49CHL1  H23B 3613   2.471   2.975   7.910  1.3859 -0.0628  5.4983
   49CHL1   C24 3614   2.306   2.886   8.024 -0.0247 -0.1079  0.3348
   49CHL1  H24A 3615   2.220   2.955   8.007 -2.0157 -3.2341 -4.1624
   49CHL1  H24B 3616   2.263   2.786   8.045  1.4077 -0.3616  2.2202
   49CHL1   C25 3617   2.371   2.926   8.161 -0.3987 -0.0538  0.0846
   49CHL1   H25 3618   2.481   2.925   8.145 -0.3919  0.8647  0.0215
   49CHL1   C26 3619   2.312   3.068   8.197  0.5426  0.9228  0.4511
   49CHL1  H26A 3620   2.316   3.128   8.103  1.3393 -1.9376 -1.4666
   49CHL1  H26B 3621   2.205   3.053   8.224  1.2130 -0.2421  2.7298
   49CHL1  H26C 3622   2.363   3.115   8.284 -0.7612  2.0269  0.6520
   49CHL1   C27 3623   2.345   2.831   8.281  0.3611 -0.1213 -0.3493
   49CHL1  H27A 3624   2.382   2.867   8.379 -0.2638 -0.7465  0.1247
   49CHL1  H27B 3625   2.235   2.824   8.297  0.2976  0.3332 -0.5472
   49CHL1  H27C 3626   2.384   2.729   8.260  0.4019  0.4343 -3.3646
   50CHL1    C3 3627   4.297   3.601   6.863  0.2048 -0.6872  0.6384
   50CHL1    H3 3628   4.208   3.536   6.869 -0.8260  0.3644 -1.8410
   50CHL1    O3 3629   4.307   3.655   6.732 -0.4608 -0.1524 -0.1085
   50CHL1   H3' 3630   4.390   3.703   6.728  2.4905 -4.5888 -0.4548
   50CHL1    C4 3631   4.286   3.711   6.973  0.4891  0.5057 -0.1685
   50CHL1   H4A 3632   4.378   3.774   6.969  2.2352 -1.9199 -0.8565
   50CHL1   H4B 3633   4.192   3.767   6.953 -1.5433 -1.1845  3.6556
   50CHL1    C5 3634   4.277   3.655   7.112 -0.8670 -0.2624 -0.4491
   50CHL1    C6 3635   4.170   3.670   7.189  0.5051 -0.2033  0.1715
   50CHL1    H6 3636   4.081   3.730   7.162  0.4723  0.4810  1.6442
   50CHL1    C7 3637   4.153   3.617   7.331 -0.6664 -0.3500  0.0796
   50CHL1   H7A 3638   4.129   3.697   7.405  1.7448  0.6310 -0.1053
   50CHL1   H7B 3639   4.081   3.533   7.336  0.3026 -1.4610 -2.5952
   50CHL1    C8 3640   4.285   3.559   7.384  0.3302 -0.8418  0.0892
   50CHL1    H8 3641   4.358   3.632   7.424 -0.1733 -1.3896  2.1105
   50CHL1   C14 3642   4.263   3.465   7.506  0.0041 -0.0600  0.2866
   50CHL1   H14 3643   4.206   3.380   7.462  2.0175 -0.8862 -0.8712
   50CHL1   C15 3644   4.166   3.517   7.615 -0.9015  0.5814 -0.0506
   50CHL1  H15A 3645   4.187   3.626   7.620  0.4730  0.3870 -1.1009
   50CHL1  H15B 3646   4.056   3.517   7.597 -0.7147  2.2322 -1.4592
   50CHL1   C16 3647   4.210   3.437   7.735  0.5406  0.2805 -1.0687
   50CHL1  H16A 3648   4.240   3.502   7.820 -0.2520 -1.6395  0.7578
   50CHL1  H16B 3649   4.122   3.391   7.783 -0.6088  0.7714 -2.6060
   50CHL1   C17 3650   4.317   3.333   7.691  0.5443  0.1895  0.4699
   50CHL1   H17 3651   4.254   3.249   7.654  0.8530 -0.3102  1.0768
   50CHL1   C13 3652   4.385   3.399   7.568  0.5171  0.3034 -0.1798
   50CHL1   C18 3653   4.471   3.510   7.626  0.4400  0.0948  0.7605
   50CHL1  H18A 3654   4.412   3.591   7.674 -0.5774 -0.5216  0.5622
   50CHL1  H18B 3655   4.543   3.461   7.695  1.1848  0.0987  0.0002
   50CHL1  H18C 3656   4.526   3.548   7.537  0.1837 -1.3258 -0.0327
   50CHL1   C12 3657   4.459   3.316   7.461 -0.7225  0.0374  0.4369
   50CHL1  H12A 3658   4.559   3.274   7.487  0.8193  2.0823 -1.7139
   50CHL1  H12B 3659   4.381   3.239   7.448 -2.7964  2.0221  0.4326
   50CHL1   C11 3660   4.483   3.399   7.326 -0.0031  0.1397  0.7509
   50CHL1  H11A 3661   4.565   3.470   7.347  0.1134  0.0951  0.4439
   50CHL1  H11B 3662   4.521   3.336   7.243 -1.7713 -1.0477  0.7894
   50CHL1    C9 3663   4.362   3.478   7.273 -0.3391 -0.6916 -0.3140
   50CHL1    H9 3664   4.295   3.393   7.247  1.6746 -2.5806  0.3558
   50CHL1   C10 3665   4.390   3.565   7.145  0.0035  0.2806 -0.0164
   50CHL1   C19 3666   4.517   3.656   7.166  0.1046  0.2439 -0.3122
   50CHL1  H19A 3667   4.557   3.689   7.068  0.7697 -0.8669 -0.4281
   50CHL1  H19B 3668   4.508   3.741   7.238  0.1316 -1.2385  1.5177
   50CHL1  H19C 3669   4.600   3.594   7.205 -1.1872 -0.2090  1.9164
   50CHL1    C1 3670   4.408   3.465   7.027 -0.2446  0.2712  0.4458
   50CHL1   H1A 3671   4.506   3.414   7.038  1.0778  2.4979 -0.4687
   50CHL1   H1B 3672   4.329   3.386   7.028  2.9937 -3.2663  0.2965
   50CHL1    C2 3673   4.420   3.518   6.890 -0.7150 -0.0799  0.5591
   50CHL1   H2A 3674   4.421   3.441   6.810  1.0470 -1.1034  1.5047
   50CHL1   H2B 3675   4.515   3.577   6.890 -1.3149  0.9206 -0.1717
   50CHL1   C20 3676   4.395   3.283   7.810 -1.1375 -0.2605  0.2091
   50CHL1   H20 3677   4.462   3.359   7.856 -1.2199  0.3916 -0.7122
   50CHL1   C21 3678   4.491   3.169   7.755  0.0473 -0.7899  0.1372
   50CHL1  H21A 3679   4.556   3.115   7.827  2.8275 -1.7097 -2.8380
   50CHL1  H21B 3680   4.568   3.220   7.694  0.9585 -0.8593  1.2081
   50CHL1  H21C 3681   4.440   3.095   7.689 -0.0118  0.2211 -0.9951
   50CHL1   C22 3682   4.321   3.221   7.929 -0.1436  0.2893 -0.1052
   50CHL1  H22A 3683   4.240   3.288   7.966  0.0585  0.4070  0.1268
   50CHL1  H22B 3684   4.280   3.123   7.897 -0.9204  1.3833 -2.7362
   50CHL1   C23 3685   4.413   3.209   8.055 -0.3173  0.2875  0.0570
   50CHL1  H23A 3686   4.499   3.142   8.029 -0.1593 -0.0354  1.3546
   50CHL1  H23B 3687   4.458   3.310   8.068  1.9730 -0.4207 -1.5478
   50CHL1   C24 3688   4.338   3.166   8.176 -0.3048  0.7841 -0.2847
   50CHL1  H24A 3689   4.261   3.239   8.207 -1.3267 -0.7566  0.9684
   50CHL1  H24B 3690   4.294   3.065   8.164 -1.0003  1.0123  0.2962
   50CHL1   C25 3691   4.427   3.149   8.304  0.7277  0.1272 -0.1182
   50CHL1   H25 3692   4.480   3.245   8.320  2.3120 -0.4303 -1.7648
   50CHL1   C26 3693   4.328   3.135   8.425  0.5876 -0.2341  0.2179
   50CHL1  H26A 3694   4.395   3.104   8.509  1.7824 -0.3224 -0.7403
   50CHL1  H26B 3695   4.284   3.235   8.445  1.1741  0.0568  0.0524
   50CHL1  H26C 3696   4.252   3.056   8.406 -2.6822  2.3858  1.3908
   50CHL1   C27 3697   4.534   3.042   8.308 -0.4246 -0.5927 -0.3574
   50CHL1  H27A 3698   4.608   3.060   8.227 -1.0313  0.9486 -0.5964
   50CHL1  H27B 3699   4.586   3.027   8.405  0.6435 -0.5520 -0.9044
   50CHL1  H27C 3700   4.496   2.938   8.299 -1.3956 -0.4750  1.8004
   51CHL1    C3 3701   3.402   3.560   7.134  0.1773 -0.2657  0.1015
   51CHL1    H3 3702   3.476   3.481   7.110  3.1826  2.2440  0.4969
   51CHL1    O3 3703   3.310   3.568   7.021 -0.3445  0.1547 -0.2576
   51CHL1   H3' 3704   3.373   3.566   6.948  1.3369  0.5190  1.1348
   51CHL1    C4 3705   3.324   3.530   7.261  0.4799  0.1359  0.4491
   51CHL1   H4A 3706   3.238   3.599   7.272 -2.2375 -2.7838 -0.9264
   51CHL1   H4B 3707   3.270   3.436   7.237 -0.3359  0.3580  1.3208
   51CHL1    C5 3708   3.417   3.511   7.383 -0.3652  0.2330 -0.2378
   51CHL1    C6 3709   3.423   3.401   7.461 -0.8332  0.2421 -0.2920
   51CHL1    H6 3710   3.349   3.321   7.444 -0.7430  0.4901 -2.0259
   51CHL1    C7 3711   3.505   3.384   7.582 -0.5504  0.2409 -0.0269
   51CHL1   H7A 3712   3.449   3.338   7.665  0.4727 -1.9680 -0.4957
   51CHL1   H7B 3713   3.593   3.320   7.560 -1.5953  0.0714 -4.6522
   51CHL1    C8 3714   3.566   3.518   7.623  0.1903  0.0835 -0.4026
   51CHL1    H8 3715   3.489   3.582   7.672 -0.8116 -2.2749  1.2873
   51CHL1   C14 3716   3.684   3.489   7.720  0.5653 -0.7092 -0.7183
   51CHL1   H14 3717   3.763   3.442   7.657  0.0044 -1.0877 -1.1446
   51CHL1   C15 3718   3.658   3.389   7.836 -0.2054  0.0263  0.0031
   51CHL1  H15A 3719   3.561   3.408   7.888  0.6870  3.6633  0.5857
   51CHL1  H15B 3720   3.675   3.290   7.789  2.1248  0.8447 -1.0113
   51CHL1   C16 3721   3.775   3.413   7.929 -0.0569 -0.1299 -0.4037
   51CHL1  H16A 3722   3.732   3.428   8.030 -3.2277 -2.6055 -1.2137
   51CHL1  H16B 3723   3.843   3.325   7.930 -0.2189 -0.2538  1.1172
   51CHL1   C17 3724   3.853   3.543   7.880  0.2032 -0.3628  0.0898
   51CHL1   H17 3725   3.931   3.503   7.812 -1.6842 -0.3038 -2.2176
   51CHL1   C13 3726   3.749   3.611   7.787  0.1351 -0.5553 -0.5495
   51CHL1   C18 3727   3.650   3.680   7.875  0.1491 -0.2313 -0.4675
   51CHL1  H18A 3728   3.616   3.621   7.963  1.9497  0.4309  0.7336
   51CHL1  H18B 3729   3.696   3.774   7.913  1.5026 -0.3366 -1.7367
   51CHL1  H18C 3730   3.559   3.718   7.824  1.5931  0.3968 -2.7609
   51CHL1   C12 3731   3.803   3.695   7.669 -0.2752  0.0336  0.0719
   51CHL1  H12A 3732   3.842   3.794   7.700 -0.5170  0.3105 -0.4918
   51CHL1  H12B 3733   3.886   3.636   7.625  1.1092  1.7645  0.2575
   51CHL1   C11 3734   3.698   3.719   7.560  0.2447 -0.5305 -1.1393
   51CHL1  H11A 3735   3.624   3.786   7.609 -1.1441 -1.2993 -2.1126
   51CHL1  H11B 3736   3.751   3.770   7.477  1.7259  2.3785  1.3726
   51CHL1    C9 3737   3.616   3.599   7.505 -0.7357  0.0605 -0.7655
   51CHL1    H9 3738   3.688   3.534   7.450 -0.7750 -0.1968 -0.5193
   51CHL1   C10 3739   3.506   3.637   7.410  1.1753  0.6842 -0.0694
   51CHL1   C19 3740   3.411   3.751   7.460 -0.1273 -0.3379 -0.3816
   51CHL1  H19A 3741   3.348   3.724   7.547 -0.9612  1.0562 -0.5177
   51CHL1  H19B 3742   3.467   3.843   7.488 -0.5692 -0.0162 -0.5478
   51CHL1  H19C 3743   3.344   3.775   7.374  1.0961 -0.8678 -1.5204
   51CHL1    C1 3744   3.572   3.683   7.272  0.4880  0.0495 -0.2159
   51CHL1   H1A 3745   3.611   3.786   7.290 -3.0830  1.3810  0.6716
   51CHL1   H1B 3746   3.642   3.605   7.235 -0.7223 -2.0708  1.7308
   51CHL1    C2 3747   3.481   3.694   7.152  0.4247 -0.4075 -0.1088
   51CHL1   H2A 3748   3.547   3.719   7.066  1.5662 -1.2510  0.5055
   51CHL1   H2B 3749   3.409   3.777   7.169 -0.4308 -1.5155  1.9850
   51CHL1   C20 3750   3.918   3.621   7.990 -0.3182  0.8346  0.6439
   51CHL1   H20 3751   3.839   3.647   8.064 -0.8542  0.0520  0.3591
   51CHL1   C21 3752   3.994   3.742   7.940 -0.3233 -0.6466  0.2736
   51CHL1  H21A 3753   4.062   3.704   7.861  0.4204 -0.2024  0.6877
   51CHL1  H21B 3754   4.043   3.800   8.022 -1.0308 -2.4796  2.0917
   51CHL1  H21C 3755   3.928   3.816   7.891  0.1458 -0.8116 -0.6403
   51CHL1   C22 3756   4.016   3.538   8.077  0.7816 -0.4011  0.6402
   51CHL1  H22A 3757   3.957   3.456   8.123 -1.9438  1.3476  0.4560
   51CHL1  H22B 3758   4.095   3.485   8.020  1.1541  1.3873 -0.5885
   51CHL1   C23 3759   4.077   3.616   8.195  0.4759  0.5714 -0.2687
   51CHL1  H23A 3760   4.142   3.696   8.154  1.0677  1.4483  2.1947
   51CHL1  H23B 3761   3.997   3.662   8.257 -0.7060  2.1135 -2.8194
   51CHL1   C24 3762   4.164   3.528   8.287 -0.1367 -0.3588  0.3820
   51CHL1  H24A 3763   4.114   3.431   8.308 -1.8798  0.5222  0.5423
   51CHL1  H24B 3764   4.258   3.498   8.237 -1.5628 -2.0302 -1.4810
   51CHL1   C25 3765   4.186   3.595   8.427 -0.5705  0.0773  0.1805
   51CHL1   H25 3766   4.092   3.646   8.458 -0.2833  0.4193  0.4959
   51CHL1   C26 3767   4.210   3.493   8.542  0.0525  0.0023 -0.2719
   51CHL1  H26A 3768   4.307   3.439   8.533 -0.4165 -0.5365 -2.6825
   51CHL1  H26B 3769   4.210   3.550   8.638  4.3076  0.0730 -0.1101
   51CHL1  H26C 3770   4.126   3.421   8.548  0.9176 -0.9368  1.2620
   51CHL1   C27 3771   4.293   3.709   8.413 -0.2526  0.3208 -0.8079
   51CHL1  H27A 3772   4.319   3.758   8.509  1.7466 -3.1934  0.6470
   51CHL1  H27B 3773   4.386   3.665   8.370  1.1928  2.0145  0.4349
   51CHL1  H27C 3774   4.263   3.781   8.334  1.0303 -0.3541 -1.9486
   52CHL1    C3 3775   5.371   3.098   6.787  0.1468  0.8873 -0.0186
   52CHL1    H3 3776   5.400   3.203   6.763  0.3387  0.8756  0.1598
   52CHL1    O3 3777   5.361   3.043   6.656 -0.6838 -0.3140 -0.4613
   52CHL1   H3' 3778   5.366   3.123   6.603  2.1229 -0.0632  0.0334
   52CHL1    C4 3779   5.483   3.034   6.873 -0.7913  0.1056  0.2043
   52CHL1   H4A 3780   5.470   2.924   6.868  0.6551 -0.0513 -0.5611
   52CHL1   H4B 3781   5.581   3.051   6.823 -0.0590 -3.1555  0.3173
   52CHL1    C5 3782   5.502   3.078   7.017 -0.0727  0.1477 -0.1418
   52CHL1    C6 3783   5.614   3.130   7.067  0.2043  0.5275 -0.2507
   52CHL1    H6 3784   5.699   3.124   6.997  0.0739 -1.9641 -0.2878
   52CHL1    C7 3785   5.637   3.149   7.213  0.2965 -0.0182  0.0566
   52CHL1   H7A 3786   5.717   3.082   7.250  2.0001  1.7470 -0.3087
   52CHL1   H7B 3787   5.678   3.251   7.223 -0.5685  0.2021  1.6291
   52CHL1    C8 3788   5.512   3.127   7.300  0.0401  0.6873  0.4327
   52CHL1    H8 3789   5.517   3.021   7.333 -0.5833  1.4908  3.4223
   52CHL1   C14 3790   5.522   3.203   7.430 -0.9129  0.6535 -0.4800
   52CHL1   H14 3791   5.508   3.309   7.400 -0.4816  0.3903 -1.6413
   52CHL1   C15 3792   5.659   3.200   7.504 -0.0922  0.2720 -0.1601
   52CHL1  H15A 3793   5.704   3.098   7.511  0.4069  0.4874 -0.1710
   52CHL1  H15B 3794   5.738   3.267   7.465  0.9236 -0.2738  0.8915
   52CHL1   C16 3795   5.609   3.252   7.643 -0.3019 -0.6387  0.1681
   52CHL1  H16A 3796   5.640   3.172   7.714  2.4462 -0.0906 -0.3209
   52CHL1  H16B 3797   5.658   3.346   7.675 -1.6616  0.6971 -1.5000
   52CHL1   C17 3798   5.452   3.259   7.645  0.0464  0.4580 -0.4360
   52CHL1   H17 3799   5.424   3.356   7.598  1.1604  0.3168 -1.4433
   52CHL1   C13 3800   5.412   3.163   7.530 -0.2683 -0.5052 -0.4560
   52CHL1   C18 3801   5.426   3.019   7.589 -0.1918  0.1710  0.5973
   52CHL1  H18A 3802   5.534   3.006   7.613  0.7272  3.8603 -0.7679
   52CHL1  H18B 3803   5.373   3.007   7.686 -0.2294 -0.1078  0.5424
   52CHL1  H18C 3804   5.390   2.954   7.507  0.6836  1.6400 -1.0047
   52CHL1   C12 3805   5.274   3.194   7.464  0.2821 -0.1268  0.1528
   52CHL1  H12A 3806   5.190   3.164   7.530 -2.2481  0.4810 -2.5825
   52CHL1  H12B 3807   5.256   3.299   7.431 -0.7975 -1.3467 -3.7380
   52CHL1   C11 3808   5.260   3.125   7.322  0.2314 -0.3811  0.0646
   52CHL1  H11A 3809   5.254   3.015   7.333 -1.3430 -0.2389  0.8252
   52CHL1  H11B 3810   5.170   3.173   7.276  0.6925  0.7536  0.2976
   52CHL1    C9 3811   5.384   3.145   7.226  0.1402  0.2553 -0.3345
   52CHL1    H9 3812   5.391   3.252   7.198 -2.0763  0.8201  1.0821
   52CHL1   C10 3813   5.374   3.066   7.093  0.7263 -0.9115 -0.3819
   52CHL1   C19 3814   5.345   2.914   7.119 -0.4440  0.3764 -1.2157
   52CHL1  H19A 3815   5.384   2.850   7.037  0.9541 -1.2249  0.5943
   52CHL1  H19B 3816   5.412   2.887   7.204 -0.9719  1.7097 -0.3493
   52CHL1  H19C 3817   5.239   2.892   7.143  0.0739 -1.1438 -0.1615
   52CHL1    C1 3818   5.254   3.129   7.012  0.3061  0.3650 -0.0785
   52CHL1   H1A 3819   5.158   3.127   7.067 -0.2563  1.3924 -0.9562
   52CHL1   H1B 3820   5.264   3.239   7.024 -0.8275  0.2793  2.0127
   52CHL1    C2 3821   5.241   3.088   6.861  0.1082 -0.1877 -0.6532
   52CHL1   H2A 3822   5.169   3.154   6.807 -1.2227 -0.6057  0.5596
   52CHL1   H2B 3823   5.201   2.984   6.851 -0.2224 -0.1911  0.5918
   52CHL1   C20 3824   5.397   3.253   7.783 -0.2637  0.6759  0.0723
   52CHL1   H20 3825   5.430   3.154   7.822 -0.1785  0.7956  0.3111
   52CHL1   C21 3826   5.240   3.246   7.777  0.3675  0.0710 -0.4730
   52CHL1  H21A 3827   5.194   3.264   7.876  0.8006  0.8580 -0.4087
   52CHL1  H21B 3828   5.211   3.147   7.737  2.9922 -0.8315 -0.3903
   52CHL1  H21C 3829   5.208   3.333   7.716  0.7969 -0.0433 -0.8652
   52CHL1   C22 3830   5.452   3.360   7.882  0.2625 -0.1954 -0.1647
   52CHL1  H22A 3831   5.561   3.374   7.868  0.5084 -1.7479 -0.0186
   52CHL1  H22B 3832   5.385   3.447   7.868  0.0627 -0.5826 -1.8709
   52CHL1   C23 3833   5.441   3.319   8.033 -0.1629 -0.0207  0.2998
   52CHL1  H23A 3834   5.397   3.400   8.094  1.5823 -1.3132  3.5480
   52CHL1  H23B 3835   5.369   3.235   8.037 -1.3744  0.8305 -1.8811
   52CHL1   C24 3836   5.577   3.279   8.093 -0.0364 -0.0076 -0.7980
   52CHL1  H24A 3837   5.611   3.194   8.031  0.4474 -0.5680  0.2021
   52CHL1  H24B 3838   5.646   3.366   8.087 -1.3432  0.9724 -2.5990
   52CHL1   C25 3839   5.568   3.245   8.242 -0.3826  0.0347  0.2831
   52CHL1   H25 3840   5.480   3.177   8.246 -0.2056 -0.2183 -0.1147
   52CHL1   C26 3841   5.707   3.188   8.283  0.2814 -0.5242 -0.5573
   52CHL1  H26A 3842   5.787   3.265   8.290  0.0710 -0.4320  1.6944
   52CHL1  H26B 3843   5.688   3.148   8.384  1.4647 -1.4385 -0.6747
   52CHL1  H26C 3844   5.736   3.099   8.224 -2.0046 -0.9818 -1.0930
   52CHL1   C27 3845   5.533   3.369   8.335  0.7738  0.3101 -0.1754
   52CHL1  H27A 3846   5.439   3.419   8.304  1.1678 -0.7144 -3.3482
   52CHL1  H27B 3847   5.519   3.330   8.438  1.0056  0.1182 -0.2153
   52CHL1  H27C 3848   5.611   3.449   8.329  0.9674  0.1027 -0.4067
   53CHL1    C3 3849   0.821   1.092   7.186 -0.1921  0.2230  0.0027
   53CHL1    H3 3850   0.906   1.021   7.196  0.9896  1.5934  0.1303
   53CHL1    O3 3851   0.803   1.098   7.048 -0.5366 -0.1306  0.5767
   53CHL1   H3' 3852   0.814   1.004   7.029  0.3168 -0.0988  0.8763
   53CHL1    C4 3853   0.705   1.037   7.269  0.0456 -0.1254  0.3205
   53CHL1   H4A 3854   0.610   1.093   7.253 -0.5096 -0.5967  1.7869
   53CHL1   H4B 3855   0.684   0.934   7.235  1.2189 -0.1251 -0.4644
   53CHL1    C5 3856   0.727   1.040   7.419 -0.3575 -0.2097 -0.0466
   53CHL1    C6 3857   0.693   0.933   7.495  0.9532  0.1741 -0.0034
   53CHL1    H6 3858   0.643   0.843   7.455 -2.3411  2.0340 -0.4248
   53CHL1    C7 3859   0.691   0.944   7.650  0.5102 -0.3894 -0.2724
   53CHL1   H7A 3860   0.591   0.917   7.689  0.5742  0.5564  0.5752
   53CHL1   H7B 3861   0.759   0.865   7.687  0.3090 -0.3611  0.1584
   53CHL1    C8 3862   0.730   1.086   7.706  0.8947  0.2076  0.8907
   53CHL1    H8 3863   0.635   1.144   7.714  1.7320  1.6544  0.6582
   53CHL1   C14 3864   0.788   1.069   7.841  0.0264  0.6226 -0.6495
   53CHL1   H14 3865   0.886   1.018   7.831 -0.3710 -0.0851 -0.9733
   53CHL1   C15 3866   0.710   0.982   7.942  0.3527  0.1220 -0.2832
   53CHL1  H15A 3867   0.604   1.006   7.918  0.4872  1.2766  0.2236
   53CHL1  H15B 3868   0.726   0.875   7.913 -1.1163  0.2981 -1.9368
   53CHL1   C16 3869   0.752   1.026   8.079 -0.0525 -0.0154 -0.0111
   53CHL1  H16A 3870   0.664   1.075   8.127 -3.3760 -1.8829 -3.6540
   53CHL1  H16B 3871   0.787   0.941   8.142 -0.2315 -0.9520 -1.1453
   53CHL1   C17 3872   0.857   1.140   8.064 -0.2062 -0.0974 -0.0736
   53CHL1   H17 3873   0.955   1.092   8.043  0.3355  0.4653  1.0391
   53CHL1   C13 3874   0.817   1.199   7.924 -0.2434 -0.3431 -0.2256
   53CHL1   C18 3875   0.681   1.282   7.930 -0.4619 -0.6834 -0.3763
   53CHL1  H18A 3876   0.690   1.365   8.002  3.2464 -2.0847  1.0407
   53CHL1  H18B 3877   0.647   1.322   7.832  0.5072  1.9121  0.2781
   53CHL1  H18C 3878   0.600   1.223   7.978  1.3188 -1.4427  1.9193
   53CHL1   C12 3879   0.918   1.283   7.841 -0.5885 -0.0339 -0.5228
   53CHL1  H12A 3880   0.918   1.381   7.893  2.0829 -0.4968  0.5080
   53CHL1  H12B 3881   1.014   1.227   7.849 -0.1684  0.9700  2.7044
   53CHL1   C11 3882   0.879   1.293   7.691  0.0061 -0.0132 -0.2876
   53CHL1  H11A 3883   0.794   1.363   7.678 -0.4621  0.1400  2.7445
   53CHL1  H11B 3884   0.964   1.324   7.627 -0.6624 -1.7501 -2.1025
   53CHL1    C9 3885   0.824   1.169   7.618  0.2895 -0.5139 -0.2853
   53CHL1    H9 3886   0.918   1.110   7.615  0.6121 -0.0101 -0.2925
   53CHL1   C10 3887   0.781   1.177   7.470 -0.9084 -0.0779 -0.0406
   53CHL1   C19 3888   0.662   1.282   7.467  0.5003 -0.2440  0.0849
   53CHL1  H19A 3889   0.612   1.284   7.368 -0.0708 -1.7342  0.3043
   53CHL1  H19B 3890   0.586   1.253   7.543 -1.0873 -0.4344 -1.5014
   53CHL1  H19C 3891   0.692   1.387   7.486  0.6149 -0.1132 -0.7818
   53CHL1    C1 3892   0.890   1.232   7.378  0.0427 -0.4622 -0.2545
   53CHL1   H1A 3893   0.887   1.341   7.401  1.1756 -0.6942  1.1579
   53CHL1   H1B 3894   0.995   1.201   7.396 -0.4757 -0.7901  2.6789
   53CHL1    C2 3895   0.873   1.223   7.228 -0.7752  0.2860 -0.4463
   53CHL1   H2A 3896   0.964   1.259   7.174 -1.1260 -0.7040 -1.7491
   53CHL1   H2B 3897   0.790   1.294   7.207 -1.4259  0.1395  1.4544
   53CHL1   C20 3898   0.875   1.228   8.182 -0.0545  0.1791 -0.2213
   53CHL1   H20 3899   0.796   1.307   8.185 -0.1741  0.0614 -0.2857
   53CHL1   C21 3900   1.007   1.302   8.171 -0.2360  0.5363 -0.2706
   53CHL1  H21A 3901   1.014   1.387   8.242  1.4414 -0.6250  1.0375
   53CHL1  H21B 3902   1.000   1.356   8.073  2.8809 -0.3271 -1.0625
   53CHL1  H21C 3903   1.084   1.223   8.160  0.7694  1.4626 -0.1098
   53CHL1   C22 3904   0.848   1.162   8.315  0.2825  0.3666 -0.5750
   53CHL1  H22A 3905   0.841   1.231   8.402  2.1955 -1.4403  1.1272
   53CHL1  H22B 3906   0.750   1.110   8.318  1.3040 -1.6267  1.5347
   53CHL1   C23 3907   0.955   1.048   8.353 -0.2512 -0.0571  0.2834
   53CHL1  H23A 3908   0.976   0.989   8.261  0.3268  1.4424 -0.5736
   53CHL1  H23B 3909   1.050   1.104   8.363 -0.6555  0.7535 -0.3440
   53CHL1   C24 3910   0.911   0.953   8.465 -0.1796 -0.0133  0.5720
   53CHL1  H24A 3911   0.860   1.021   8.537 -0.0194  0.6827  0.0331
   53CHL1  H24B 3912   0.826   0.891   8.428 -0.1254  0.6904 -0.8002
   53CHL1   C25 3913   1.030   0.862   8.516 -0.1197 -0.2521  0.3066
   53CHL1   H25 3914   1.087   0.826   8.428 -0.2906  1.1061 -0.3767
   53CHL1   C26 3915   1.133   0.942   8.600 -0.2540  0.3511  0.3171
   53CHL1  H26A 3916   1.081   0.972   8.693 -1.1311  2.6843 -0.8670
   53CHL1  H26B 3917   1.209   0.872   8.642  1.3242  1.7929 -0.0133
   53CHL1  H26C 3918   1.185   1.023   8.545  0.3156 -1.7665 -2.5164
   53CHL1   C27 3919   0.968   0.738   8.582 -0.1905 -0.5931  0.7748
   53CHL1  H27A 3920   1.048   0.669   8.617  0.2136 -0.6106 -0.1538
   53CHL1  H27B 3921   0.916   0.771   8.675 -1.1624 -2.6286  1.0082
   53CHL1  H27C 3922   0.896   0.692   8.512 -0.1568 -1.2648  1.1744
   54CHL1    C3 3923   1.522   4.104   6.857 -0.6852  0.4037  0.7286
   54CHL1    H3 3924   1.436   4.164   6.820 -0.5365  0.3437  0.2858
   54CHL1    O3 3925   1.607   4.076   6.747 -0.1568 -0.3196 -0.1667
   54CHL1   H3' 3926   1.671   4.015   6.785  0.6359  0.0574 -0.8699
   54CHL1    C4 3927   1.596   4.199   6.963  0.6554 -0.0222  0.0133
   54CHL1   H4A 3928   1.691   4.145   6.983  0.5962 -0.0539  0.2102
   54CHL1   H4B 3929   1.627   4.294   6.914  0.3914  0.3883  0.6338
   54CHL1    C5 3930   1.531   4.214   7.091 -0.7822 -0.2445 -0.0930
   54CHL1    C6 3931   1.516   4.335   7.146 -0.1493 -0.2228  0.1462
   54CHL1    H6 3932   1.553   4.423   7.091  0.2679  0.0243  0.8101
   54CHL1    C7 3933   1.456   4.362   7.281 -0.4867 -0.4867  1.1927
   54CHL1   H7A 3934   1.522   4.430   7.340  1.3617 -1.1344 -0.0365
   54CHL1   H7B 3935   1.351   4.398   7.271 -0.2054 -0.2815 -1.8707
   54CHL1    C8 3936   1.443   4.231   7.369  0.3831 -0.0947  0.1907
   54CHL1    H8 3937   1.544   4.203   7.405  1.4437  3.4950  0.3347
   54CHL1   C14 3938   1.354   4.249   7.492  0.5462  0.3609  0.8462
   54CHL1   H14 3939   1.249   4.271   7.461  0.2297 -1.3323  0.5945
   54CHL1   C15 3940   1.384   4.368   7.585  0.0319 -0.6850  0.1041
   54CHL1  H15A 3941   1.488   4.403   7.602 -0.4351 -0.1457  2.1555
   54CHL1  H15B 3942   1.332   4.458   7.545 -2.0984 -2.3927 -1.2419
   54CHL1   C16 3943   1.329   4.323   7.721  0.1618  0.6297 -0.4383
   54CHL1  H16A 3944   1.412   4.321   7.795  1.3670 -0.9054 -1.7611
   54CHL1  H16B 3945   1.247   4.391   7.756 -0.3986 -0.2187 -0.0769
   54CHL1   C17 3946   1.270   4.185   7.702 -0.0670 -0.1075 -0.5929
   54CHL1   H17 3947   1.168   4.202   7.662  0.0283  3.7131  0.3236
   54CHL1   C13 3948   1.347   4.125   7.577 -0.6178  0.2326  0.5511
   54CHL1   C18 3949   1.495   4.093   7.624 -0.0842  0.1263  0.8068
   54CHL1  H18A 3950   1.506   4.024   7.710  3.5422  0.2445  0.5740
   54CHL1  H18B 3951   1.559   4.043   7.548  1.7361  1.2577  1.5220
   54CHL1  H18C 3952   1.554   4.182   7.655 -0.1452  0.2832  0.4847
   54CHL1   C12 3953   1.275   4.018   7.500 -0.3070 -0.5070  0.5179
   54CHL1  H12A 3954   1.266   3.930   7.567 -0.0564 -0.4620  0.6096
   54CHL1  H12B 3955   1.170   4.050   7.478 -0.2329 -1.0365 -0.7154
   54CHL1   C11 3956   1.350   3.986   7.372  0.4351 -0.2591 -0.7558
   54CHL1  H11A 3957   1.442   3.935   7.407 -0.4242 -0.5079  1.2855
   54CHL1  H11B 3958   1.282   3.915   7.321 -0.3751  0.3564 -0.5719
   54CHL1    C9 3959   1.390   4.115   7.291 -0.0568  0.7065  0.0943
   54CHL1    H9 3960   1.290   4.150   7.258 -0.6674 -0.8354  0.2213
   54CHL1   C10 3961   1.483   4.085   7.156  0.8616  0.0080  0.0733
   54CHL1   C19 3962   1.602   3.997   7.202 -0.4296  0.2862 -0.4965
   54CHL1  H19A 3963   1.647   3.939   7.119  0.8594  1.4947 -0.6583
   54CHL1  H19B 3964   1.678   4.057   7.255 -0.2480  0.0977 -0.5442
   54CHL1  H19C 3965   1.575   3.909   7.265 -1.5205  0.3513 -0.8403
   54CHL1    C1 3966   1.394   4.015   7.055  0.9076  0.0181  0.1004
   54CHL1   H1A 3967   1.338   3.930   7.098 -0.1430  0.2841 -0.6924
   54CHL1   H1B 3968   1.318   4.089   7.020  1.4708  0.7718  0.4434
   54CHL1    C2 3969   1.472   3.976   6.929 -0.6738 -0.2789 -0.1142
   54CHL1   H2A 3970   1.406   3.916   6.862  1.7410  0.4378 -3.3558
   54CHL1   H2B 3971   1.560   3.912   6.952 -0.1559  0.2417 -0.6129
   54CHL1   C20 3972   1.277   4.108   7.840 -0.5781  0.7421  0.0713
   54CHL1   H20 3973   1.379   4.072   7.862 -1.8472 -3.4804 -0.0616
   54CHL1   C21 3974   1.188   3.982   7.842  0.2341  0.0167  0.0011
   54CHL1  H21A 3975   1.080   4.001   7.827 -0.1676 -1.8158  0.3109
   54CHL1  H21B 3976   1.200   3.929   7.939  0.6615  0.9496  0.4705
   54CHL1  H21C 3977   1.231   3.913   7.766 -2.0207 -1.2953 -0.1550
   54CHL1   C22 3978   1.224   4.199   7.950  0.1273 -0.4264 -0.7472
   54CHL1  H22A 3979   1.279   4.296   7.955 -1.2630  0.5622 -2.9015
   54CHL1  H22B 3980   1.116   4.220   7.937 -0.2518 -1.8313  0.0334
   54CHL1   C23 3981   1.224   4.147   8.098  0.1629  0.0579  0.1316
   54CHL1  H23A 3982   1.162   4.055   8.104  0.9147 -0.3918  1.3243
   54CHL1  H23B 3983   1.328   4.123   8.128  0.5626  0.4694 -0.8639
   54CHL1   C24 3984   1.163   4.250   8.193  0.4417  0.0675 -0.2797
   54CHL1  H24A 3985   1.204   4.354   8.196 -1.3299  0.8063 -0.6871
   54CHL1  H24B 3986   1.056   4.259   8.164  0.5401 -1.5357 -1.2304
   54CHL1   C25 3987   1.162   4.223   8.352 -0.6029  0.0857 -0.0929
   54CHL1   H25 3988   1.132   4.116   8.353  0.9533 -0.3817  1.1174
   54CHL1   C26 3989   1.308   4.222   8.406 -0.2888  0.4053  0.8190
   54CHL1  H26A 3990   1.367   4.138   8.363 -0.3638 -1.0699  3.3839
   54CHL1  H26B 3991   1.363   4.315   8.380 -1.0142 -0.2171 -3.7973
   54CHL1  H26C 3992   1.310   4.210   8.516 -1.8633 -0.4664  0.7754
   54CHL1   C27 3993   1.069   4.315   8.434 -0.3006  0.0771 -0.0969
   54CHL1  H27A 3994   0.963   4.295   8.404  0.1877 -3.0065 -0.1229
   54CHL1  H27B 3995   1.078   4.299   8.543  0.4407  3.7570  0.4862
   54CHL1  H27C 3996   1.104   4.417   8.410  1.6654 -0.5502 -0.0336
   55CHL1    C3 3997   0.122   5.963   6.898 -0.3260  0.8000 -0.2315
   55CHL1    H3 3998   0.080   5.863   6.918  0.1122  0.5471 -0.5663
   55CHL1    O3 3999   0.153   5.979   6.761  0.2913  0.6279  0.3174
   55CHL1   H3' 4000   0.073   5.995   6.710  0.7679  0.7390 -0.4175
   55CHL1    C4 4001   0.031   6.080   6.952 -0.7410 -0.0933 -0.0222
   55CHL1   H4A 4002   0.093   6.170   6.930  0.1111 -0.7530 -0.3605
   55CHL1   H4B 4003  -0.059   6.070   6.889  0.1586  0.2711 -1.4205
   55CHL1    C5 4004   0.009   6.078   7.099  0.3302  0.3579 -0.1204
   55CHL1    C6 4005  -0.114   6.081   7.153 -0.6470 -0.2119  0.9041
   55CHL1    H6 4006  -0.197   6.104   7.084 -0.0563  0.4954  0.4081
   55CHL1    C7 4007  -0.143   6.088   7.294 -0.0679 -0.0098 -0.5215
   55CHL1   H7A 4008  -0.231   6.153   7.315  1.5135  1.4708  1.9725
   55CHL1   H7B 4009  -0.182   5.986   7.318  2.3698 -1.0897 -0.8725
   55CHL1    C8 4010  -0.024   6.114   7.388 -0.2491 -0.8112  0.0666
   55CHL1    H8 4011   0.002   6.222   7.387 -1.0770 -0.6112  0.0719
   55CHL1   C14 4012  -0.063   6.078   7.529  0.6459 -0.3403 -0.3148
   55CHL1   H14 4013  -0.101   5.974   7.521  1.1564 -0.5690  0.1341
   55CHL1   C15 4014  -0.182   6.152   7.588 -0.2880 -0.1320 -0.7298
   55CHL1  H15A 4015  -0.177   6.263   7.586  0.5536 -0.1368  0.2821
   55CHL1  H15B 4016  -0.272   6.123   7.529 -0.3708 -0.6632 -0.3542
   55CHL1   C16 4017  -0.168   6.111   7.741  0.6317 -0.3433  0.1046
   55CHL1  H16A 4018  -0.183   6.204   7.799 -0.2023 -1.0382  1.0402
   55CHL1  H16B 4019  -0.236   6.028   7.772 -0.7371  0.0643 -1.6243
   55CHL1   C17 4020  -0.018   6.047   7.759  0.8304  0.4991 -0.7811
   55CHL1   H17 4021  -0.035   5.937   7.757  1.0482  0.4679 -1.0653
   55CHL1   C13 4022   0.051   6.084   7.630  0.4769  0.7390 -0.2665
   55CHL1   C18 4023   0.108   6.232   7.637  0.2544 -0.2246 -0.4412
   55CHL1  H18A 4024   0.141   6.275   7.540  4.1410  0.0404  0.8156
   55CHL1  H18B 4025   0.037   6.308   7.677 -1.4652 -1.2655 -1.3708
   55CHL1  H18C 4026   0.205   6.238   7.690 -0.0158  1.9882 -0.0925
   55CHL1   C12 4027   0.149   5.980   7.578 -0.2681 -0.0191 -0.6647
   55CHL1  H12A 4028   0.241   5.980   7.641 -0.2339  0.6913 -0.7036
   55CHL1  H12B 4029   0.104   5.879   7.579 -2.3104  0.8120 -1.6683
   55CHL1   C11 4030   0.200   6.005   7.435 -0.3146 -0.3830 -0.3131
   55CHL1  H11A 4031   0.253   6.103   7.446  0.4956 -0.9626  1.3677
   55CHL1  H11B 4032   0.265   5.920   7.410 -0.0011  0.0793 -1.0868
   55CHL1    C9 4033   0.091   6.026   7.330  0.4774  0.3007 -0.2703
   55CHL1    H9 4034   0.047   5.926   7.310  0.6332  0.1888 -0.0587
   55CHL1   C10 4035   0.135   6.065   7.186 -0.4100  0.4201  0.7016
   55CHL1   C19 4036   0.215   6.190   7.195  0.4683 -0.6753  0.0988
   55CHL1  H19A 4037   0.307   6.168   7.255 -0.6340 -0.8125  1.8121
   55CHL1  H19B 4038   0.252   6.225   7.097  1.6359 -1.5582  0.1994
   55CHL1  H19C 4039   0.157   6.274   7.237  2.0347 -0.2631  1.5787
   55CHL1    C1 4040   0.227   5.953   7.133  0.7988  0.4000 -0.0644
   55CHL1   H1A 4041   0.321   5.951   7.192 -0.7323 -3.5559  2.6857
   55CHL1   H1B 4042   0.183   5.854   7.158  1.4156  0.1764  0.1638
   55CHL1    C2 4043   0.259   5.970   6.980  0.4042  0.8792  0.5693
   55CHL1   H2A 4044   0.327   5.887   6.951 -2.7034 -2.5178  2.1902
   55CHL1   H2B 4045   0.309   6.068   6.971 -0.6252  1.3147 -0.6472
   55CHL1   C20 4046   0.039   6.075   7.897  0.0427 -0.0920  0.5091
   55CHL1   H20 4047   0.047   6.186   7.903 -1.2608  0.1961 -1.8762
   55CHL1   C21 4048   0.182   6.016   7.900  0.4575  0.1221  0.9881
   55CHL1  H21A 4049   0.172   5.907   7.880 -2.5327  0.2837  1.1743
   55CHL1  H21B 4050   0.226   6.014   8.003  1.2769  2.4041  0.7334
   55CHL1  H21C 4051   0.254   6.054   7.825  0.0615 -2.0621 -0.5884
   55CHL1   C22 4052  -0.048   6.028   8.016 -0.3032  0.1151 -0.1069
   55CHL1  H22A 4053  -0.151   6.069   8.018  0.0273  1.1185  3.0588
   55CHL1  H22B 4054  -0.040   5.917   8.012 -0.4577  0.1236 -0.7489
   55CHL1   C23 4055   0.003   6.085   8.149  0.0932  0.8385  0.3401
   55CHL1  H23A 4056  -0.056   6.043   8.232  1.7319  0.7814  1.5276
   55CHL1  H23B 4057   0.104   6.046   8.176 -0.4183  0.3705  1.6205
   55CHL1   C24 4058   0.023   6.235   8.154  1.1107 -0.2615  0.3188
   55CHL1  H24A 4059   0.097   6.259   8.075 -0.8361  0.5147 -1.3717
   55CHL1  H24B 4060  -0.076   6.267   8.114  0.4844 -1.2904  0.9603
   55CHL1   C25 4061   0.060   6.296   8.289 -0.4831 -0.5173 -0.2747
   55CHL1   H25 4062   0.159   6.266   8.330 -0.0683  1.4209  0.2367
   55CHL1   C26 4063   0.063   6.448   8.283 -0.4375  0.0550 -0.2881
   55CHL1  H26A 4064   0.136   6.494   8.214  1.3263  0.9379  2.0119
   55CHL1  H26B 4065  -0.039   6.476   8.251 -0.2237  0.5398 -0.5368
   55CHL1  H26C 4066   0.072   6.494   8.384  4.3152 -0.4858 -0.2388
   55CHL1   C27 4067  -0.044   6.264   8.403 -0.3556  0.0330  0.3154
   55CHL1  H27A 4068  -0.148   6.249   8.366 -0.4733 -2.8034  1.5885
   55CHL1  H27B 4069  -0.020   6.168   8.453  0.4535 -0.2940 -0.6403
   55CHL1  H27C 4070  -0.035   6.336   8.487 -1.2795 -0.6538  1.0208
   56CHL1    C3 4071   0.216   2.265   6.966 -0.4885 -0.0919 -0.0613
   56CHL1    H3 4072   0.117   2.293   7.007 -0.0411  0.3478  0.7606
   56CHL1    O3 4073   0.204   2.204   6.842 -0.0951  0.1123  0.4042
   56CHL1   H3' 4074   0.289   2.204   6.797  0.3348  0.4298  1.1957
   56CHL1    C4 4075   0.298   2.390   6.943  0.5106  0.0148 -0.4333
   56CHL1   H4A 4076   0.391   2.352   6.895  0.2118 -0.7287 -0.4370
   56CHL1   H4B 4077   0.264   2.459   6.864 -0.5329  0.7405  0.6210
   56CHL1    C5 4078   0.331   2.467   7.080 -0.5601 -0.2289 -0.2695
   56CHL1    C6 4079   0.291   2.592   7.103 -0.4243  0.9830  0.3457
   56CHL1    H6 4080   0.235   2.642   7.022 -0.2662 -2.3948 -2.0626
   56CHL1    C7 4081   0.310   2.667   7.234  0.2383 -0.3586  0.0289
   56CHL1   H7A 4082   0.345   2.771   7.219  2.1339 -1.0725 -0.7682
   56CHL1   H7B 4083   0.212   2.677   7.286  1.4089 -1.1189  2.5048
   56CHL1    C8 4084   0.414   2.601   7.329 -0.4279 -0.1045 -0.3506
   56CHL1    H8 4085   0.512   2.629   7.284 -0.4696 -0.9263 -0.9820
   56CHL1   C14 4086   0.399   2.655   7.471 -0.7928 -0.1247 -0.4577
   56CHL1   H14 4087   0.294   2.629   7.496 -0.2198 -1.0346  1.1230
   56CHL1   C15 4088   0.400   2.806   7.498  0.4092 -0.0541 -0.2335
   56CHL1  H15A 4089   0.481   2.848   7.436 -2.2041  3.0237 -1.8911
   56CHL1  H15B 4090   0.302   2.856   7.481  0.7359  0.1618 -1.6673
   56CHL1   C16 4091   0.448   2.817   7.647 -0.2440  0.2618 -0.0439
   56CHL1  H16A 4092   0.548   2.865   7.649  0.1144 -0.4298  2.1590
   56CHL1  H16B 4093   0.384   2.885   7.708  0.8440  1.8912 -0.6429
   56CHL1   C17 4094   0.458   2.666   7.698  0.6243 -1.4429 -0.2423
   56CHL1   H17 4095   0.353   2.633   7.716 -0.7549  2.2831 -0.5744
   56CHL1   C13 4096   0.493   2.588   7.569 -0.0769  0.6565 -0.4158
   56CHL1   C18 4097   0.642   2.609   7.534 -0.3304  0.0229 -0.1615
   56CHL1  H18A 4098   0.704   2.549   7.604  0.4564 -3.5769 -3.5896
   56CHL1  H18B 4099   0.665   2.595   7.426  0.2530  1.0802 -0.1785
   56CHL1  H18C 4100   0.660   2.717   7.552 -2.3053  0.4246 -0.4368
   56CHL1   C12 4101   0.456   2.442   7.581  1.0525  0.9381  0.5035
   56CHL1  H12A 4102   0.524   2.398   7.658 -0.1986 -0.2701  0.9624
   56CHL1  H12B 4103   0.352   2.442   7.622  1.4990  2.4225  1.7276
   56CHL1   C11 4104   0.456   2.367   7.446 -0.1909 -0.0062  0.1353
   56CHL1  H11A 4105   0.564   2.361   7.423 -0.3663  0.6484 -0.9362
   56CHL1  H11B 4106   0.412   2.265   7.453  0.8654 -0.6011 -1.3903
   56CHL1    C9 4107   0.385   2.456   7.333 -0.7820  0.6319  0.0905
   56CHL1    H9 4108   0.277   2.449   7.361 -0.6184  2.0191  1.1240
   56CHL1   C10 4109   0.391   2.382   7.191 -0.1311  0.9809 -0.0658
   56CHL1   C19 4110   0.539   2.348   7.151 -0.0029 -0.9150 -0.9294
   56CHL1  H19A 4111   0.606   2.436   7.141 -0.8368  0.3995  3.0006
   56CHL1  H19B 4112   0.584   2.278   7.224 -1.0082 -0.8897 -0.2535
   56CHL1  H19C 4113   0.551   2.295   7.054  0.6878 -0.1034 -1.3012
   56CHL1    C1 4114   0.316   2.244   7.205 -0.0814 -0.2615  0.0673
   56CHL1   H1A 4115   0.381   2.180   7.269 -0.1342 -1.2986 -0.8924
   56CHL1   H1B 4116   0.220   2.256   7.260  1.0808  1.3647  1.8829
   56CHL1    C2 4117   0.300   2.177   7.068 -0.0576  0.5802 -0.0974
   56CHL1   H2A 4118   0.237   2.086   7.083  1.4608 -0.3498  0.9423
   56CHL1   H2B 4119   0.398   2.147   7.024  0.4798  2.7184 -0.4417
   56CHL1   C20 4120   0.523   2.628   7.836 -0.1479 -0.7929  0.0722
   56CHL1   H20 4121   0.534   2.517   7.836  1.9060 -0.6164  0.3828
   56CHL1   C21 4122   0.410   2.652   7.947  0.3016  0.2371 -0.0288
   56CHL1  H21A 4123   0.332   2.578   7.922  1.7722 -1.3162 -0.2313
   56CHL1  H21B 4124   0.385   2.760   7.943  2.6221  0.9692  2.5084
   56CHL1  H21C 4125   0.441   2.635   8.052  1.0446 -1.0140 -0.4164
   56CHL1   C22 4126   0.664   2.693   7.867  0.5814  0.2023  0.2645
   56CHL1  H22A 4127   0.737   2.675   7.785  3.7986 -1.0618  3.1559
   56CHL1  H22B 4128   0.664   2.803   7.886  3.1102  0.5172 -1.0301
   56CHL1   C23 4129   0.732   2.625   7.983  0.1306 -0.6263 -0.4943
   56CHL1  H23A 4130   0.669   2.644   8.072 -0.5670  1.9186 -1.4451
   56CHL1  H23B 4131   0.745   2.516   7.965  0.8717 -0.7449  0.6694
   56CHL1   C24 4132   0.863   2.701   8.026  0.1614  0.6460  0.3516
   56CHL1  H24A 4133   0.927   2.702   7.935  0.2338 -1.1433  0.3395
   56CHL1  H24B 4134   0.812   2.799   8.037 -0.7895  0.0959  1.0645
   56CHL1   C25 4135   0.917   2.653   8.160 -0.8571  0.3430 -0.6572
   56CHL1   H25 4136   0.833   2.621   8.225 -0.7210 -1.5448 -1.3559
   56CHL1   C26 4137   0.996   2.529   8.143 -0.4240 -0.0861  0.5183
   56CHL1  H26A 4138   1.093   2.554   8.096  0.5416  1.2047  2.9975
   56CHL1  H26B 4139   0.944   2.458   8.076 -1.9352  1.4322  0.0070
   56CHL1  H26C 4140   1.021   2.477   8.238  2.2192 -0.3696 -0.2652
   56CHL1   C27 4141   1.005   2.760   8.234 -0.1191  0.1158  0.0145
   56CHL1  H27A 4142   1.108   2.758   8.191 -0.4407 -2.5920 -0.8412
   56CHL1  H27B 4143   0.961   2.862   8.241  1.2711  0.6318  2.7759
   56CHL1  H27C 4144   1.027   2.734   8.340  2.4068 -0.2326 -0.5335
   57SAPC     N 4145   6.539   5.157  10.924  0.0024  1.0895 -0.0805
   57SAPC   C12 4146   6.574   5.201  10.789 -0.5997  0.3239 -0.2445
   57SAPC  H12A 4147   6.508   5.281  10.758  0.2723  1.5120  0.8861
   57SAPC  H12B 4148   6.545   5.117  10.727  0.4830  0.0971 -0.4516
   57SAPC   C13 4149   6.546   5.262  11.031 -0.2360  0.3186 -0.0855
   57SAPC  H13A 4150   6.648   5.294  11.044  0.0951 -0.8233  0.2133
   57SAPC  H13B 4151   6.484   5.348  11.010 -0.7648 -0.9263 -4.5654
   57SAPC  H13C 4152   6.504   5.231  11.125  0.7473  0.7342  0.5075
   57SAPC   C14 4153   6.393   5.114  10.932 -0.0550 -0.6488 -0.2191
   57SAPC  H14A 4154   6.324   5.195  10.914  1.1572  0.5419  0.2947
   57SAPC  H14B 4155   6.373   5.020  10.882 -1.1520  0.3467 -1.7253
   57SAPC  H14C 4156   6.374   5.098  11.037  1.1778 -1.0163 -0.0303
   57SAPC   C15 4157   6.624   5.046  10.969 -0.1478 -0.2356  0.8257
   57SAPC  H15A 4158   6.732   5.054  10.960 -0.0591 -2.8743 -2.1711
   57SAPC  H15B 4159   6.603   5.015  11.070  3.2710 -1.5555  1.2860
   57SAPC  H15C 4160   6.613   4.960  10.905  0.7749  1.0032 -1.0815
   57SAPC   C11 4161   6.720   5.234  10.757 -0.1584 -0.1208 -0.3430
   57SAPC  H11A 4162   6.723   5.257  10.649  1.8356 -3.1064 -1.0562
   57SAPC  H11B 4163   6.778   5.139  10.765  1.6172  0.8143 -1.4255
   57SAPC     P 4164   6.794   5.483  10.805 -0.6681 -0.0664 -0.3132
   57SAPC   O13 4165   6.715   5.562  10.895 -0.1180 -0.6393 -0.3711
   57SAPC   O14 4166   6.940   5.509  10.805 -0.3886  0.5055  0.2736
   57SAPC   O12 4167   6.784   5.327  10.848 -0.0585 -0.2585 -0.3315
   57SAPC   O11 4168   6.748   5.492  10.650  0.6105  0.1665 -0.4386
   57SAPC    C1 4169   6.795   5.601  10.567  0.3502 -0.8977 -0.5165
   57SAPC    HA 4170   6.710   5.666  10.537  1.1265  0.9082  0.9924
   57SAPC    HB 4171   6.874   5.667  10.608 -0.6865  1.7985 -2.5562
   57SAPC    C2 4172   6.853   5.544  10.434  0.3888 -0.1046  0.2878
   57SAPC    HS 4173   6.942   5.483  10.457  0.3929 -0.0828  0.3299
   57SAPC   O21 4174   6.877   5.659  10.353  0.0249 -0.1969  0.4880
   57SAPC   C21 4175   7.006   5.676  10.309 -0.0336  0.5539 -0.3142
   57SAPC   O22 4176   7.101   5.609  10.343  0.2119  0.1983 -0.0226
   57SAPC   C22 4177   7.009   5.796  10.225  0.2586 -0.1617  0.2316
   57SAPC   H2R 4178   6.960   5.880  10.278 -0.1926  0.4434 -1.0943
   57SAPC   H2S 4179   7.115   5.824  10.210 -0.1709  1.5485  0.2029
   57SAPC    C3 4180   6.745   5.451  10.364 -0.1167 -0.3939  0.5074
   57SAPC    HX 4181   6.654   5.510  10.387 -0.4401 -1.1329  1.2060
   57SAPC    HY 4182   6.751   5.354  10.419  1.7280 -0.2623  0.6074
   57SAPC   O31 4183   6.761   5.435  10.217 -0.2716 -0.4807 -0.2852
   57SAPC   C31 4184   6.651   5.447  10.145 -0.3123  0.2176  0.0093
   57SAPC   O32 4185   6.545   5.486  10.192 -0.0567  0.2321  0.0977
   57SAPC   C32 4186   6.673   5.397  10.003 -0.3564  1.0030  0.0747
   57SAPC   H2X 4187   6.599   5.315   9.993 -0.6586  1.1516  0.9279
   57SAPC   H2Y 4188   6.772   5.356   9.976 -1.7396 -0.4984 -3.2313
   57SAPC   C23 4189   6.930   5.770  10.088  0.0936  0.0064  0.1065
   57SAPC   H3R 4190   6.947   5.857  10.021  1.7332  1.2859  2.0844
   57SAPC   H3S 4191   6.820   5.771  10.105  0.2017  0.4607  0.7968
   57SAPC   C24 4192   6.978   5.638  10.014  0.7579 -0.0783  0.8052
   57SAPC   H4R 4193   6.920   5.612   9.923  0.0471 -0.3423  1.3297
   57SAPC   H4S 4194   6.951   5.550  10.075  2.2224 -1.4220 -0.3954
   57SAPC   C25 4195   7.122   5.652   9.990 -0.0698  0.9123  0.8711
   57SAPC   H5R 4196   7.187   5.616  10.072  0.7377 -0.7976 -0.4355
   57SAPC   C26 4197   7.183   5.681   9.873 -0.2090 -0.9879 -0.8175
   57SAPC   H6R 4198   7.292   5.689   9.883 -0.4389  3.3959  0.1775
   57SAPC   C27 4199   7.130   5.710   9.734 -0.6057 -0.8775 -0.2979
   57SAPC   H7R 4200   7.025   5.673   9.726 -0.3043 -1.6476 -0.8149
   57SAPC   H7S 4201   7.183   5.657   9.652 -0.8167 -0.0896 -0.9562
   57SAPC   C28 4202   7.107   5.863   9.698  0.7551 -0.8262  0.9153
   57SAPC   H8R 4203   7.061   5.924   9.776 -2.7667  1.6540 -2.7133
   57SAPC   C29 4204   7.118   5.932   9.583  0.0447  0.2836 -0.4100
   57SAPC   H9R 4205   7.092   6.038   9.575  1.1703  0.6396  0.3418
   57SAPC  C210 4206   7.173   5.870   9.451 -0.7807 -0.1555 -0.0581
   57SAPC  H10R 4207   7.088   5.837   9.388 -1.7343 -1.6768  1.9199
   57SAPC  H10S 4208   7.231   5.778   9.474 -1.0686 -0.5377 -0.8220
   57SAPC  C211 4209   7.268   5.967   9.386 -0.4405 -0.0553  1.0856
   57SAPC  H11R 4210   7.349   6.014   9.443  0.8600  1.4497 -1.7560
   57SAPC  C212 4211   7.269   6.003   9.258  0.1384 -0.3523 -0.7566
   57SAPC  H12R 4212   7.321   6.095   9.226 -0.0781 -0.9724 -3.1225
   57SAPC  C213 4213   7.173   5.961   9.140 -0.5061  0.0605  0.4865
   57SAPC  H13R 4214   7.091   5.892   9.172 -0.5189  0.3751  1.1531
   57SAPC  H13S 4215   7.237   5.912   9.063 -0.0223 -2.3851  2.3092
   57SAPC  C214 4216   7.107   6.087   9.082  0.5624  0.7350 -0.7396
   57SAPC  H14R 4217   7.061   6.156   9.155  1.5684  1.0262 -0.3702
   57SAPC  C215 4218   7.091   6.115   8.949  0.1182  0.0444  0.3165
   57SAPC  H15R 4219   7.053   6.213   8.918  0.9224  0.0139 -0.8045
   57SAPC  C216 4220   7.126   6.030   8.831 -0.4385 -0.1893 -0.5240
   57SAPC  H16R 4221   7.190   5.946   8.866 -0.6853  0.7612  2.4989
   57SAPC  H16S 4222   7.187   6.079   8.752  0.7165  0.7560  0.8976
   57SAPC  C217 4223   6.991   5.976   8.772 -0.5809  0.1372 -0.7472
   57SAPC  H17R 4224   6.924   6.064   8.757  1.5974  2.2598  1.1701
   57SAPC  H17S 4225   6.938   5.925   8.856 -2.8018  1.0729 -1.4930
   57SAPC  C218 4226   7.006   5.880   8.650  0.3112  0.1648  0.8910
   57SAPC  H18R 4227   7.048   5.778   8.663 -0.9691 -0.6817 -1.1048
   57SAPC  H18S 4228   7.067   5.933   8.573 -1.0942  1.6836  0.7669
   57SAPC  C219 4229   6.873   5.857   8.584  0.3072  0.1627 -0.3916
   57SAPC  H19R 4230   6.826   5.948   8.541 -0.4317 -0.5255 -1.0832
   57SAPC  H19S 4231   6.793   5.831   8.657  0.7463  0.6776  0.2898
   57SAPC  C220 4232   6.876   5.744   8.482 -0.2940 -0.5963  0.1638
   57SAPC  H20R 4233   6.916   5.648   8.523 -0.0987 -1.3296 -1.6213
   57SAPC  H20S 4234   6.947   5.772   8.402 -1.9602 -1.4136 -1.6893
   57SAPC  H20T 4235   6.775   5.725   8.439 -0.8273  1.3170  0.5092
   57SAPC   C33 4236   6.650   5.510   9.893 -0.6950  0.5354 -0.0474
   57SAPC   H3X 4237   6.721   5.596   9.899  0.5469 -0.5442  1.6106
   57SAPC   H3Y 4238   6.547   5.541   9.920 -1.4978 -1.6143 -0.4174
   57SAPC   C34 4239   6.643   5.448   9.752  0.2831  0.3880  0.2909
   57SAPC   H4X 4240   6.565   5.370   9.742  0.9889 -0.4204  0.9636
   57SAPC   H4Y 4241   6.734   5.389   9.729  0.1373  0.2780 -0.0068
   57SAPC   C35 4242   6.624   5.548   9.642  0.7024 -0.1975  0.0827
   57SAPC   H5X 4243   6.540   5.612   9.677  0.9712  0.4035 -0.3381
   57SAPC   H5Y 4244   6.593   5.498   9.548 -0.2366  1.2976 -0.4458
   57SAPC   C36 4245   6.753   5.636   9.627 -0.3973  0.2609  0.5884
   57SAPC   H6X 4246   6.836   5.572   9.591 -1.3657 -0.7598  0.0891
   57SAPC   H6Y 4247   6.790   5.691   9.716  1.6374  0.5752 -0.3892
   57SAPC   C37 4248   6.736   5.748   9.521 -0.0955  0.4764  0.0182
   57SAPC   H7X 4249   6.832   5.803   9.517 -0.0698  0.4765  0.6334
   57SAPC   H7Y 4250   6.662   5.824   9.553  0.5416  0.5189  1.4748
   57SAPC   C38 4251   6.697   5.695   9.381 -0.1318  0.5480  0.5059
   57SAPC   H8X 4252   6.587   5.685   9.371 -0.5563  2.2781  2.5939
   57SAPC   H8Y 4253   6.758   5.604   9.361  0.3997  1.3554 -1.8252
   57SAPC   C39 4254   6.731   5.809   9.277  0.8187 -0.3110  0.5290
   57SAPC   H9X 4255   6.841   5.827   9.278  1.0176 -1.1380  3.2424
   57SAPC   H9Y 4256   6.673   5.899   9.308 -1.3872 -1.6540  0.5353
   57SAPC  C310 4257   6.685   5.773   9.132  0.9192  0.5256  0.3551
   57SAPC  H10X 4258   6.732   5.677   9.102 -1.8490 -0.9042  0.2302
   57SAPC  H10Y 4259   6.714   5.854   9.062 -0.2101  0.7730  0.1563
   57SAPC  C311 4260   6.529   5.754   9.112  0.0655 -0.1394  0.4387
   57SAPC  H11X 4261   6.483   5.855   9.110 -1.3739 -0.7040 -3.2609
   57SAPC  H11Y 4262   6.486   5.686   9.189 -0.7055 -0.9284 -0.6621
   57SAPC  C312 4263   6.504   5.688   8.968  0.1829  0.0397  0.3249
   57SAPC  H12X 4264   6.551   5.588   8.957  0.6084  0.0877  1.6286
   57SAPC  H12Y 4265   6.552   5.752   8.891 -2.0577 -0.0360 -1.2540
   57SAPC  C313 4266   6.353   5.702   8.937 -0.1924 -0.1809 -0.3052
   57SAPC  H13X 4267   6.333   5.805   8.975  2.4057  0.2736  0.0164
   57SAPC  H13Y 4268   6.305   5.617   8.992  3.2220 -3.0714 -1.4246
   57SAPC  C314 4269   6.336   5.683   8.793  0.3142 -0.1197  0.3681
   57SAPC  H14X 4270   6.339   5.576   8.766 -1.5691 -0.3367  0.8771
   57SAPC  H14Y 4271   6.426   5.710   8.735  0.5548 -2.4734 -0.4577
   57SAPC  C315 4272   6.212   5.729   8.714 -0.0311 -0.5571  0.3590
   57SAPC  H15X 4273   6.222   5.838   8.695 -3.1644  0.0789  1.7394
   57SAPC  H15Y 4274   6.118   5.725   8.773  0.0889 -1.8862  0.4920
   57SAPC  C316 4275   6.203   5.653   8.585 -0.2719  0.4777 -0.0210
   57SAPC  H16X 4276   6.171   5.548   8.606  0.3185  0.0923 -0.9956
   57SAPC  H16Y 4277   6.303   5.641   8.539  0.2532 -1.2884  1.4635
   57SAPC  C317 4278   6.108   5.714   8.480 -1.2329 -0.1358 -0.4589
   57SAPC  H17X 4279   6.131   5.654   8.390  0.0060 -0.0113 -0.2342
   57SAPC  H17Y 4280   6.143   5.819   8.471 -1.3451 -0.1641 -1.2662
   57SAPC  C318 4281   5.963   5.712   8.523  0.4008  0.0614 -0.0715
   57SAPC  H18X 4282   5.902   5.763   8.446 -0.5065 -1.0479 -0.1083
   57SAPC  H18Y 4283   5.941   5.757   8.622 -2.0224 -1.6096  0.2407
   57SAPC  H18Z 4284   5.929   5.607   8.537  2.6264 -0.8448 -0.9794
   58SAPC     N 4285   3.645   4.271  10.778  0.4641 -0.8663 -0.1665
   58SAPC   C12 4286   3.626   4.193  10.646  0.2346 -0.0183 -0.1452
   58SAPC  H12A 4287   3.582   4.263  10.576 -0.6813  1.4233  1.8015
   58SAPC  H12B 4288   3.556   4.111  10.647  2.3442 -2.0524 -2.7777
   58SAPC   C13 4289   3.700   4.194  10.893  0.3100  0.2288  0.6021
   58SAPC  H13A 4290   3.676   4.237  10.989 -1.1546 -0.5787  0.6273
   58SAPC  H13B 4291   3.665   4.091  10.893  2.4329 -0.5605  1.8181
   58SAPC  H13C 4292   3.807   4.182  10.888  0.2678 -0.4802  1.1181
   58SAPC   C14 4293   3.733   4.389  10.745 -0.0692 -0.8054  1.2293
   58SAPC  H14A 4294   3.675   4.475  10.715  2.4983  0.6571  0.1895
   58SAPC  H14B 4295   3.800   4.423  10.822 -0.9996  1.7640  0.9842
   58SAPC  H14C 4296   3.792   4.364  10.658 -1.2654  0.8121 -0.1237
   58SAPC   C15 4297   3.507   4.335  10.820 -0.2241  0.2008 -0.1488
   58SAPC  H15A 4298   3.460   4.394  10.743 -0.5325 -0.5111 -0.5198
   58SAPC  H15B 4299   3.438   4.257  10.850 -2.4415  2.1225  0.0083
   58SAPC  H15C 4300   3.529   4.398  10.905  3.7063 -0.3377 -0.5807
   58SAPC   C11 4301   3.749   4.131  10.581 -0.0779  0.0052  0.1433
   58SAPC  H11A 4302   3.819   4.217  10.572 -0.4049  0.6020  2.6824
   58SAPC  H11B 4303   3.730   4.093  10.478  0.5795 -0.0204  0.0221
   58SAPC     P 4304   3.699   3.901  10.681  0.3961 -0.0563 -0.3922
   58SAPC   O13 4305   3.669   3.889  10.826  0.3119 -0.1556  0.1050
   58SAPC   O14 4306   3.581   3.917  10.595 -0.0024 -0.4262 -0.5473
   58SAPC   O12 4307   3.805   4.029  10.669 -0.2771 -0.2385  0.3194
   58SAPC   O11 4308   3.794   3.778  10.635 -0.5989 -0.0932  0.5054
   58SAPC    C1 4309   3.927   3.766  10.694 -0.1857  0.3729 -0.8640
   58SAPC    HA 4310   3.933   3.818  10.792 -1.6461 -2.6032  0.9339
   58SAPC    HB 4311   3.936   3.663  10.732 -1.8173  0.4568 -0.1453
   58SAPC    C2 4312   4.041   3.807  10.600  0.3889 -0.8823  0.3831
   58SAPC    HS 4313   4.049   3.917  10.589 -1.2322 -0.7838 -0.0209
   58SAPC   O21 4314   4.001   3.741  10.475 -0.0164  0.2739  0.3515
   58SAPC   C21 4315   4.054   3.802  10.366 -0.2504 -0.2215 -0.0087
   58SAPC   O22 4316   4.147   3.873  10.370  0.9670  0.0502 -0.1091
   58SAPC   C22 4317   3.978   3.744  10.242 -0.1766 -0.8002  0.0212
   58SAPC   H2R 4318   3.926   3.648  10.264 -3.9714  1.6239  3.0297
   58SAPC   H2S 4319   3.894   3.812  10.215  0.6661 -0.0625 -0.8264
   58SAPC    C3 4320   4.186   3.756  10.646 -0.4179 -0.6570 -0.2504
   58SAPC    HX 4321   4.208   3.803  10.744 -1.8571  2.1729 -1.1690
   58SAPC    HY 4322   4.260   3.792  10.571 -1.2476 -0.8494 -1.1944
   58SAPC   O31 4323   4.183   3.612  10.658 -0.3784  0.7274  0.6058
   58SAPC   C31 4324   4.238   3.540  10.562 -0.2093  0.8658 -0.0701
   58SAPC   O32 4325   4.296   3.588  10.469  0.1403  0.2939  0.3904
   58SAPC   C32 4326   4.206   3.392  10.579  0.1069 -0.4210  0.8862
   58SAPC   H2X 4327   4.097   3.374  10.583  0.0533  0.0624  1.8164
   58SAPC   H2Y 4328   4.250   3.360  10.676  1.5858  0.8952  0.6995
   58SAPC   C23 4329   4.068   3.712  10.113  0.3249 -0.5033  0.1636
   58SAPC   H3R 4330   4.130   3.802  10.095  0.1061 -0.5337 -0.7579
   58SAPC   H3S 4331   4.004   3.704  10.023 -0.3082  0.5518  0.5080
   58SAPC   C24 4332   4.159   3.583  10.128 -0.0071 -0.0215 -0.1413
   58SAPC   H4R 4333   4.221   3.583  10.220 -1.7927  1.3948  1.1362
   58SAPC   H4S 4334   4.239   3.587  10.051 -0.7200  1.7350 -0.8460
   58SAPC   C25 4335   4.076   3.456  10.134 -0.3004  0.4041 -1.1186
   58SAPC   H5R 4336   4.035   3.432  10.233  2.0040  1.0498  0.0650
   58SAPC   C26 4337   4.050   3.369  10.034 -0.6849 -0.0870  0.8663
   58SAPC   H6R 4338   3.976   3.288  10.042 -0.8483 -0.1784 -1.0835
   58SAPC   C27 4339   4.101   3.396   9.892  0.1976 -0.6966  0.4418
   58SAPC   H7R 4340   4.141   3.303   9.848  0.4930 -0.2015 -0.3500
   58SAPC   H7S 4341   4.190   3.462   9.880 -0.5744 -0.1672 -4.0100
   58SAPC   C28 4342   4.000   3.443   9.792  0.2851  0.0429  0.3719
   58SAPC   H8R 4343   3.892   3.442   9.814  0.1233  3.0507  0.0551
   58SAPC   C29 4344   4.032   3.476   9.666 -0.4271  0.0712  0.4755
   58SAPC   H9R 4345   3.956   3.524   9.602 -0.2883 -1.5608 -0.9803
   58SAPC  C210 4346   4.171   3.484   9.616 -0.4832 -0.3582  0.0627
   58SAPC  H10R 4347   4.234   3.397   9.643  0.6455 -0.0377 -1.3757
   58SAPC  H10S 4348   4.223   3.571   9.662  0.4858 -0.3127 -1.0567
   58SAPC  C211 4349   4.177   3.498   9.465  0.0486 -0.5429 -0.8034
   58SAPC  H11R 4350   4.129   3.587   9.422  3.9050  3.0541  1.6324
   58SAPC  C212 4351   4.236   3.404   9.383 -1.3734  0.2128  0.7233
   58SAPC  H12R 4352   4.225   3.420   9.275 -2.6942  2.0653  1.0964
   58SAPC  C213 4353   4.295   3.268   9.416 -0.1471 -0.7459 -0.3823
   58SAPC  H13R 4354   4.224   3.183   9.422  0.6882 -1.4185  0.3466
   58SAPC  H13S 4355   4.345   3.285   9.513 -2.3989  0.3006  0.6555
   58SAPC  C214 4356   4.402   3.221   9.325 -0.3465  0.6047  0.5101
   58SAPC  H14R 4357   4.436   3.282   9.240 -2.1069 -1.0012 -1.4412
   58SAPC  C215 4358   4.455   3.090   9.337 -0.1077 -0.0789  1.0284
   58SAPC  H15R 4359   4.539   3.059   9.273 -2.0866 -2.1697 -0.7311
   58SAPC  C216 4360   4.424   2.982   9.440 -0.4318 -0.2292  0.3088
   58SAPC  H16R 4361   4.344   3.012   9.511 -0.6555  1.3179 -0.5574
   58SAPC  H16S 4362   4.516   2.966   9.499  1.7584  2.5633 -2.0237
   58SAPC  C217 4363   4.380   2.849   9.374  0.0017  0.4605 -0.4841
   58SAPC  H17R 4364   4.451   2.830   9.291 -0.4300 -2.0674 -0.3461
   58SAPC  H17S 4365   4.285   2.861   9.318  0.6055  2.3430 -1.1930
   58SAPC  C218 4366   4.361   2.730   9.470 -0.0982  0.4029 -0.3770
   58SAPC  H18R 4367   4.456   2.687   9.509 -0.1323  0.0910 -0.6385
   58SAPC  H18S 4368   4.335   2.641   9.409  0.5601 -0.9710  1.2606
   58SAPC  C219 4369   4.263   2.761   9.592  0.7671 -0.4992  0.0130
   58SAPC  H19R 4370   4.160   2.784   9.559  1.0376 -0.9316 -1.1797
   58SAPC  H19S 4371   4.305   2.849   9.646 -1.7894  0.0542  1.2563
   58SAPC  C220 4372   4.265   2.646   9.684 -0.0887  0.7433 -0.2148
   58SAPC  H20R 4373   4.360   2.606   9.727 -1.5792 -1.2341  1.4162
   58SAPC  H20S 4374   4.229   2.561   9.622 -0.5611 -0.2707  1.3815
   58SAPC  H20T 4375   4.193   2.658   9.767 -0.2439  2.2264 -0.5297
   58SAPC   C33 4376   4.271   3.305  10.462 -0.0933 -0.8374 -0.0644
   58SAPC   H3X 4377   4.380   3.323  10.458 -0.0041 -0.9960  1.2228
   58SAPC   H3Y 4378   4.223   3.358  10.377  2.0717  1.2373 -0.1028
   58SAPC   C34 4379   4.227   3.157  10.483 -0.6308 -0.4520 -0.1219
   58SAPC   H4X 4380   4.117   3.165  10.483 -0.5242  1.6786  0.3676
   58SAPC   H4Y 4381   4.251   3.121  10.585 -0.2825 -0.5405 -0.2311
   58SAPC   C35 4382   4.271   3.063  10.369  0.0371  0.3933  0.7575
   58SAPC   H5X 4383   4.242   3.102  10.269 -0.0678  2.0669  1.3991
   58SAPC   H5Y 4384   4.237   2.960  10.394  0.2827 -0.3042 -1.5611
   58SAPC   C36 4385   4.426   3.045  10.366  0.1231 -0.3631  0.3959
   58SAPC   H6X 4386   4.458   2.976  10.446  0.0014 -0.8587  0.0210
   58SAPC   H6Y 4387   4.470   3.142  10.397  0.3415 -1.0552  2.4060
   58SAPC   C37 4388   4.480   2.988  10.236  0.4321  0.1671  0.2734
   58SAPC   H7X 4389   4.407   2.908  10.208 -0.3291  0.4745  1.3098
   58SAPC   H7Y 4390   4.584   2.950  10.243  1.8574  2.7177 -3.8541
   58SAPC   C38 4391   4.479   3.093  10.125  0.3673 -0.5727 -0.1531
   58SAPC   H8X 4392   4.557   3.165  10.156 -0.3137  2.1657 -4.1029
   58SAPC   H8Y 4393   4.378   3.140  10.117  0.6034 -0.3417 -2.7705
   58SAPC   C39 4394   4.529   3.031   9.996  0.5008 -0.4703 -0.5583
   58SAPC   H9X 4395   4.465   2.954   9.948 -1.4153  1.0668 -0.6026
   58SAPC   H9Y 4396   4.625   2.985  10.025  1.0490  1.1509  0.3129
   58SAPC  C310 4397   4.568   3.138   9.897  0.9110 -0.6108  0.8615
   58SAPC  H10X 4398   4.608   3.226   9.952  1.1672 -1.1659  1.5842
   58SAPC  H10Y 4399   4.474   3.179   9.855 -0.6274 -1.9636  2.7802
   58SAPC  C311 4400   4.667   3.102   9.793 -0.3840 -0.4850  0.7254
   58SAPC  H11X 4401   4.624   3.015   9.739 -1.9123 -0.8155  2.3617
   58SAPC  H11Y 4402   4.762   3.073   9.843 -0.4771  0.1181  1.2687
   58SAPC  C312 4403   4.689   3.212   9.686 -0.6506 -0.0127 -0.3323
   58SAPC  H12X 4404   4.717   3.307   9.736  0.9224 -0.2741 -0.6565
   58SAPC  H12Y 4405   4.591   3.237   9.639 -0.2709  0.5916 -0.8190
   58SAPC  C313 4406   4.795   3.188   9.582 -0.5619 -0.6332  0.7690
   58SAPC  H13X 4407   4.781   3.093   9.527  2.2260 -0.7365  0.0627
   58SAPC  H13Y 4408   4.901   3.177   9.616 -0.2699  0.9591  0.4287
   58SAPC  C314 4409   4.793   3.297   9.474  0.0863  0.4508  0.3402
   58SAPC  H14X 4410   4.838   3.386   9.521 -0.2838  0.1432  1.2943
   58SAPC  H14Y 4411   4.691   3.323   9.438  0.6935  3.1057  0.3360
   58SAPC  C315 4412   4.878   3.249   9.353 -0.2983 -0.7248 -0.6390
   58SAPC  H15X 4413   4.858   3.141   9.331 -0.8573 -0.6403 -0.5681
   58SAPC  H15Y 4414   4.984   3.256   9.385 -0.6737 -0.8639  0.6795
   58SAPC  C316 4415   4.869   3.345   9.232  0.5636 -0.0397 -0.0615
   58SAPC  H16X 4416   4.955   3.331   9.162 -0.4729  0.6196 -1.5108
   58SAPC  H16Y 4417   4.887   3.448   9.270 -0.4488  0.0175  0.2697
   58SAPC  C317 4418   4.731   3.340   9.160  0.5814 -0.6973  0.4393
   58SAPC  H17X 4419   4.710   3.439   9.113  1.6361  0.6944  2.7218
   58SAPC  H17Y 4420   4.653   3.335   9.239 -2.0403  1.0527 -1.8236
   58SAPC  C318 4421   4.713   3.235   9.053  0.3218 -0.0535 -0.1046
   58SAPC  H18X 4422   4.724   3.134   9.097  0.5963 -0.4668 -1.0824
   58SAPC  H18Y 4423   4.795   3.244   8.978 -0.7858  1.9576 -1.1854
   58SAPC  H18Z 4424   4.617   3.252   8.999  0.6411  1.7681 -0.1953
   59SAPC     N 4425   4.699   4.374  11.424  0.2855  0.2872 -0.3826
   59SAPC   C12 4426   4.642   4.241  11.382 -0.1280  0.4555  0.2049
   59SAPC  H12A 4427   4.633   4.183  11.473  2.5149 -0.4110 -0.0016
   59SAPC  H12B 4428   4.709   4.182  11.322 -1.0728  0.4224 -0.8515
   59SAPC   C13 4429   4.589   4.465  11.464  0.6651  0.1928  0.0303
   59SAPC  H13A 4430   4.617   4.549  11.526 -0.7505  2.2951 -2.0535
   59SAPC  H13B 4431   4.549   4.515  11.378  0.8031 -0.4678 -0.4257
   59SAPC  H13C 4432   4.510   4.409  11.513  0.7033 -0.6387 -0.8409
   59SAPC   C14 4433   4.795   4.358  11.537  0.3035 -0.0346  0.0509
   59SAPC  H14A 4434   4.867   4.281  11.515 -0.8612 -1.4881  1.0725
   59SAPC  H14B 4435   4.840   4.455  11.547 -2.3567  1.2286  0.6477
   59SAPC  H14C 4436   4.746   4.334  11.631 -2.7895  0.0522 -1.3920
   59SAPC   C15 4437   4.765   4.443  11.303 -0.2876  0.1082  0.1442
   59SAPC  H15A 4438   4.683   4.467  11.237  1.1462  2.8838 -0.7571
   59SAPC  H15B 4439   4.822   4.532  11.322  0.1913 -0.4117  1.3011
   59SAPC  H15C 4440   4.824   4.365  11.257 -2.1683 -2.1775  1.3211
   59SAPC   C11 4441   4.508   4.249  11.306  0.1712 -0.2257 -0.4412
   59SAPC  H11A 4442   4.417   4.293  11.353  0.5400 -0.3726  0.4265
   59SAPC  H11B 4443   4.491   4.139  11.309  3.2689 -0.7548  1.6128
   59SAPC     P 4444   4.473   4.421  11.100  0.4937  0.3279 -0.3632
   59SAPC   O13 4445   4.344   4.384  11.039  0.1505  0.6074 -0.0972
   59SAPC   O14 4446   4.475   4.536  11.195 -0.1171  0.4392 -0.7266
   59SAPC   O12 4447   4.531   4.292  11.172  0.5032 -0.5484  0.6678
   59SAPC   O11 4448   4.567   4.470  10.984 -0.7272  0.1329  0.1112
   59SAPC    C1 4449   4.641   4.382  10.895 -0.3812  0.2208  0.8810
   59SAPC    HA 4450   4.748   4.377  10.923 -0.0186 -0.3153 -0.5248
   59SAPC    HB 4451   4.602   4.278  10.892  0.7975 -0.2385  0.8014
   59SAPC    C2 4452   4.651   4.439  10.748  0.3692  0.0553 -0.0613
   59SAPC    HS 4453   4.710   4.362  10.695  0.3333 -1.0810  1.4905
   59SAPC   O21 4454   4.720   4.572  10.740 -0.2156 -0.0049 -0.2106
   59SAPC   C21 4455   4.846   4.561  10.732 -0.3894  0.0087 -0.7377
   59SAPC   O22 4456   4.911   4.460  10.744  0.3838 -0.4591 -0.2428
   59SAPC   C22 4457   4.907   4.694  10.696 -0.1523  0.1073 -0.1264
   59SAPC   H2R 4458   4.890   4.766  10.779 -1.0871 -0.9817  0.6523
   59SAPC   H2S 4459   5.015   4.669  10.689 -0.6089 -2.1736  0.2428
   59SAPC    C3 4460   4.514   4.463  10.674 -0.0148 -0.3712 -0.1065
   59SAPC    HX 4461   4.465   4.545  10.730 -0.1220 -2.4632  3.1173
   59SAPC    HY 4462   4.455   4.369  10.680  0.1751 -0.5097 -0.3907
   59SAPC   O31 4463   4.518   4.493  10.534  1.1806  0.0033  0.4475
   59SAPC   C31 4464   4.556   4.397  10.447 -0.2553  0.3020  0.5237
   59SAPC   O32 4465   4.594   4.287  10.471  0.2236 -0.9169  0.2376
   59SAPC   C32 4466   4.552   4.453  10.306  0.0294 -0.4520 -0.5856
   59SAPC   H2X 4467   4.593   4.556  10.315 -1.3672  0.1267 -0.5817
   59SAPC   H2Y 4468   4.445   4.465  10.278  0.0698 -0.9011 -0.9239
   59SAPC   C23 4469   4.848   4.761  10.568  0.1083  0.3105  0.6695
   59SAPC   H3R 4470   4.746   4.786  10.603 -0.0914  1.1539 -0.4409
   59SAPC   H3S 4471   4.836   4.688  10.486  0.0479  0.2394  0.7414
   59SAPC   C24 4472   4.910   4.892  10.513 -0.0495 -0.4368 -0.3633
   59SAPC   H4R 4473   4.919   4.960  10.600  1.1918 -2.0493  0.8287
   59SAPC   H4S 4474   4.837   4.943  10.447 -0.3180  2.1123  1.7367
   59SAPC   C25 4475   5.039   4.878  10.436  0.8971 -0.2184  0.5478
   59SAPC   H5R 4476   5.130   4.923  10.477 -1.6320  2.7964  3.4860
   59SAPC   C26 4477   5.054   4.814  10.319  0.1725  0.5502  0.6129
   59SAPC   H6R 4478   5.155   4.800  10.279  0.4004 -1.5737  1.7523
   59SAPC   C27 4479   4.949   4.744  10.240 -0.2019  0.3178  0.0092
   59SAPC   H7R 4480   4.945   4.777  10.134  1.0612 -3.3775 -1.3237
   59SAPC   H7S 4481   4.849   4.762  10.285 -0.7253 -0.5177 -0.7994
   59SAPC   C28 4482   4.984   4.599  10.241  0.0029  0.1615  0.4290
   59SAPC   H8R 4483   5.020   4.551  10.333  1.5758 -0.1510 -0.3141
   59SAPC   C29 4484   4.982   4.513  10.136  0.6298 -0.0871 -0.6258
   59SAPC   H9R 4485   5.031   4.416  10.152  1.9545  0.8293  1.3752
   59SAPC  C210 4486   4.954   4.540   9.991  0.4104 -0.3407  0.6796
   59SAPC  H10R 4487   4.890   4.629   9.976 -1.4291 -1.8266 -0.8020
   59SAPC  H10S 4488   4.882   4.462   9.959  2.8352 -3.0732  1.4297
   59SAPC  C211 4489   5.071   4.531   9.903  0.1682  0.2549  0.1608
   59SAPC  H11R 4490   5.163   4.491   9.949 -0.2419  0.0027  0.7668
   59SAPC  C212 4491   5.085   4.583   9.779 -0.5835 -0.6691  0.1771
   59SAPC  H12R 4492   5.183   4.579   9.728  0.0956  2.4279  0.9998
   59SAPC  C213 4493   4.984   4.649   9.694 -0.1470  0.6693  0.2433
   59SAPC  H13R 4494   4.881   4.625   9.729  0.5410 -3.0532  0.1591
   59SAPC  H13S 4495   4.998   4.619   9.588  2.7323 -0.4064  0.8475
   59SAPC  C214 4496   4.994   4.797   9.708  0.7729 -0.2142  0.2463
   59SAPC  H14R 4497   5.029   4.830   9.807  0.5129 -1.6733  0.8458
   59SAPC  C215 4498   4.943   4.889   9.626  0.2173 -0.7251 -0.4521
   59SAPC  H15R 4499   4.953   4.996   9.650 -2.6911 -0.6336  0.6738
   59SAPC  C216 4500   4.862   4.859   9.501  0.0135 -0.2151  0.8596
   59SAPC  H16R 4501   4.756   4.892   9.501  0.1496  0.2552  0.1089
   59SAPC  H16S 4502   4.850   4.749   9.492  1.3668 -0.3368  0.3198
   59SAPC  C217 4503   4.908   4.903   9.359  0.2611 -1.3227 -0.2817
   59SAPC  H17R 4504   4.833   4.879   9.281 -0.3545 -1.7056  0.4139
   59SAPC  H17S 4505   5.006   4.856   9.340  0.6605 -0.1414 -1.3163
   59SAPC  C218 4506   4.940   5.062   9.351  0.0983  0.3060 -0.6000
   59SAPC  H18R 4507   5.035   5.076   9.407 -0.3911  0.8085  0.1149
   59SAPC  H18S 4508   4.862   5.117   9.408  1.3264  2.1737 -0.6401
   59SAPC  C219 4509   4.934   5.118   9.210 -0.5648 -0.3119  0.2815
   59SAPC  H19R 4510   4.849   5.073   9.155  0.7560 -1.3107 -0.9922
   59SAPC  H19S 4511   5.026   5.085   9.158 -1.2432  0.6897 -1.6487
   59SAPC  C220 4512   4.950   5.278   9.209 -0.1516  0.9726 -0.1481
   59SAPC  H20R 4513   5.046   5.313   9.252  0.1301  0.5248 -0.3919
   59SAPC  H20S 4514   4.864   5.318   9.266  0.4324 -1.9170  3.1093
   59SAPC  H20T 4515   4.944   5.314   9.104  1.6721  1.0916 -0.2354
   59SAPC   C33 4516   4.613   4.361  10.196  0.0786  0.0818 -0.1391
   59SAPC   H3X 4517   4.565   4.261  10.194 -3.1066  1.5024 -1.2885
   59SAPC   H3Y 4518   4.720   4.341  10.218  0.4693  0.3306 -1.6844
   59SAPC   C34 4519   4.597   4.426  10.054 -0.0405 -0.3394 -0.2323
   59SAPC   H4X 4520   4.649   4.521  10.035  0.1533 -0.3000  0.4690
   59SAPC   H4Y 4521   4.489   4.447  10.040  0.6203  3.3973 -0.5291
   59SAPC   C35 4522   4.626   4.317   9.947  0.0649 -0.5030 -0.2600
   59SAPC   H5X 4523   4.565   4.225   9.959 -0.4388 -0.0226  1.1048
   59SAPC   H5Y 4524   4.735   4.297   9.955  0.1548 -0.1364 -0.5316
   59SAPC   C36 4525   4.602   4.363   9.803  0.3320 -0.2749  0.0216
   59SAPC   H6X 4526   4.681   4.439   9.782 -0.9859  0.8016 -1.2259
   59SAPC   H6Y 4527   4.505   4.416   9.792  1.7575  2.0798 -2.1913
   59SAPC   C37 4528   4.603   4.248   9.703  0.2383  0.4853  0.5004
   59SAPC   H7X 4529   4.530   4.175   9.745  1.9410 -1.1997  0.6304
   59SAPC   H7Y 4530   4.698   4.190   9.704 -0.3026 -0.4565  2.4841
   59SAPC   C38 4531   4.576   4.287   9.554  0.7748 -0.1539 -0.2181
   59SAPC   H8X 4532   4.489   4.356   9.546 -1.1931 -2.4933 -0.1667
   59SAPC   H8Y 4533   4.558   4.199   9.488  1.1195 -0.6691  0.3681
   59SAPC   C39 4534   4.692   4.360   9.489 -0.3212 -0.5295  0.3930
   59SAPC   H9X 4535   4.784   4.306   9.519  1.5640  1.2137 -1.7978
   59SAPC   H9Y 4536   4.699   4.455   9.546 -2.6522 -0.2249  0.2758
   59SAPC  C310 4537   4.673   4.379   9.341  0.7728  0.3382 -0.1351
   59SAPC  H10X 4538   4.569   4.415   9.333  1.1894  1.5774 -0.2858
   59SAPC  H10Y 4539   4.677   4.277   9.296 -0.9740  0.3094 -0.2806
   59SAPC  C311 4540   4.778   4.474   9.293 -0.4173 -0.0120  0.5818
   59SAPC  H11X 4541   4.878   4.469   9.342  1.4671 -2.5856 -3.0352
   59SAPC  H11Y 4542   4.748   4.580   9.308 -0.8863  0.2475 -1.8059
   59SAPC  C312 4543   4.819   4.466   9.143  0.2150  0.8667 -0.6448
   59SAPC  H12X 4544   4.721   4.437   9.098 -0.7150 -0.3578  1.9453
   59SAPC  H12Y 4545   4.888   4.380   9.129 -0.8744 -0.4106  1.4679
   59SAPC  C313 4546   4.896   4.586   9.095 -0.8685  0.1556  0.6784
   59SAPC  H13X 4547   5.000   4.582   9.135 -0.3159 -2.2151 -0.8276
   59SAPC  H13Y 4548   4.846   4.679   9.130  0.8789  1.9751 -1.3509
   59SAPC  C314 4549   4.897   4.584   8.945 -0.1866  0.3408  0.0418
   59SAPC  H14X 4550   4.791   4.585   8.911 -0.5414 -1.3614  0.9897
   59SAPC  H14Y 4551   4.937   4.486   8.912  0.9174  0.4393  1.0436
   59SAPC  C315 4552   4.974   4.700   8.890 -0.5793  0.3667  0.2007
   59SAPC  H15X 4553   5.083   4.695   8.909 -0.8273  1.0515  2.0535
   59SAPC  H15Y 4554   4.942   4.799   8.929  1.8365  1.3679 -0.1818
   59SAPC  C316 4555   4.948   4.717   8.739  0.0862 -0.1517  0.0937
   59SAPC  H16X 4556   4.846   4.761   8.740  0.0428 -0.2071  1.6579
   59SAPC  H16Y 4557   4.957   4.616   8.694  0.3795 -1.3186  2.5889
   59SAPC  C317 4558   5.052   4.807   8.665  0.1749 -0.2585 -0.1973
   59SAPC  H17X 4559   5.014   4.823   8.562  0.1718 -0.4235 -0.2219
   59SAPC  H17Y 4560   5.144   4.745   8.666 -0.0729 -0.6296 -0.1267
   59SAPC  C318 4561   5.090   4.941   8.740  0.4689  0.2111  0.0754
   59SAPC  H18X 4562   4.998   5.003   8.750  1.2988  1.5565 -0.4554
   59SAPC  H18Y 4563   5.152   5.013   8.683 -0.8422  3.9501  2.9582
   59SAPC  H18Z 4564   5.135   4.917   8.839 -1.6685 -0.4144  0.9642
   60SAPC     N 4565   6.157   3.867  10.866 -0.0026 -0.5483  0.4134
   60SAPC   C12 4566   6.171   3.930  10.728 -0.1994 -1.0953 -0.1913
   60SAPC  H12A 4567   6.111   3.868  10.664 -0.4460  1.6403 -2.8709
   60SAPC  H12B 4568   6.274   3.919  10.698  0.6773  1.3482  1.5410
   60SAPC   C13 4569   6.142   3.725  10.850  0.0038  0.0817 -0.9930
   60SAPC  H13A 4570   6.057   3.693  10.791  0.5280 -2.3209 -0.5505
   60SAPC  H13B 4571   6.226   3.684  10.796 -0.2541  1.4929 -2.5553
   60SAPC  H13C 4572   6.142   3.670  10.943  1.6086  0.5291 -0.6953
   60SAPC   C14 4573   6.286   3.892  10.939 -0.8485 -0.3793  0.9337
   60SAPC  H14A 4574   6.309   3.997  10.928 -1.7254 -0.2935 -0.4171
   60SAPC  H14B 4575   6.296   3.855  11.040  2.2432 -4.1094 -0.4953
   60SAPC  H14C 4576   6.358   3.838  10.879  1.4194  1.6465  1.6635
   60SAPC   C15 4577   6.040   3.920  10.942  0.0291 -0.0684  0.0908
   60SAPC  H15A 4578   6.045   4.027  10.930 -2.0856  0.1903  1.0910
   60SAPC  H15B 4579   5.943   3.885  10.911 -2.1636  3.0833  2.7844
   60SAPC  H15C 4580   6.052   3.891  11.045  0.9588 -2.4693 -0.6066
   60SAPC   C11 4581   6.138   4.081  10.716  0.1118  0.2749 -0.0642
   60SAPC  H11A 4582   6.033   4.091  10.752  0.0930 -0.0160 -0.0404
   60SAPC  H11B 4583   6.132   4.127  10.615  0.0690  0.8975  0.2124
   60SAPC     P 4584   6.239   4.304  10.789  0.4755 -0.2047  0.1766
   60SAPC   O13 4585   6.098   4.345  10.819  0.3067 -0.3056  0.4026
   60SAPC   O14 4586   6.350   4.342  10.875  0.1758 -0.0813  0.1752
   60SAPC   O12 4587   6.236   4.150  10.789  0.5970  0.4784 -0.2355
   60SAPC   O11 4588   6.268   4.344  10.636 -0.1437  0.7113  0.0756
   60SAPC    C1 4589   6.398   4.375  10.595  0.4868 -0.8000  0.2607
   60SAPC    HA 4590   6.419   4.483  10.614  0.6349 -0.2447 -2.6328
   60SAPC    HB 4591   6.479   4.332  10.658  2.4264  2.2399  0.0745
   60SAPC    C2 4592   6.415   4.334  10.445 -1.0143  0.1418 -0.6865
   60SAPC    HS 4593   6.521   4.351  10.415 -0.6487  1.8632  1.3007
   60SAPC   O21 4594   6.319   4.401  10.361  0.1561 -0.4691  0.1311
   60SAPC   C21 4595   6.354   4.532  10.348 -0.2590 -0.7624  0.5125
   60SAPC   O22 4596   6.455   4.587  10.382 -0.8333 -0.5722  0.1014
   60SAPC   C22 4597   6.239   4.610  10.282 -0.2251  0.2878 -0.6659
   60SAPC   H2R 4598   6.155   4.538  10.283  0.7027 -0.8495  1.3375
   60SAPC   H2S 4599   6.216   4.684  10.361  1.5001 -1.2190  1.3731
   60SAPC    C3 4600   6.396   4.183  10.420  0.4824 -0.4397  0.1514
   60SAPC    HX 4601   6.303   4.145  10.467 -0.5066 -1.1816 -2.2700
   60SAPC    HY 4602   6.479   4.120  10.459  0.5663  1.1550  2.7874
   60SAPC   O31 4603   6.406   4.163  10.285  0.0023  0.2787  0.6021
   60SAPC   C31 4604   6.307   4.099  10.223 -1.1801  0.1379 -0.4413
   60SAPC   O32 4605   6.195   4.082  10.270 -0.7610 -0.4036 -0.5072
   60SAPC   C32 4606   6.340   4.044  10.081  0.2233 -0.4655  0.1407
   60SAPC   H2X 4607   6.432   3.982  10.075 -1.5110 -3.1842  0.1721
   60SAPC   H2Y 4608   6.365   4.136  10.023 -1.5511 -1.0438 -1.6676
   60SAPC   C23 4609   6.271   4.672  10.143 -0.1571  0.1581  0.3374
   60SAPC   H3R 4610   6.360   4.737  10.156  1.1620 -0.8964 -2.5470
   60SAPC   H3S 4611   6.181   4.725  10.104 -1.8555 -1.2891  2.0870
   60SAPC   C24 4612   6.304   4.572  10.030  0.1706 -0.3565 -0.7773
   60SAPC   H4R 4613   6.409   4.535  10.031  0.0267 -0.8806  1.5265
   60SAPC   H4S 4614   6.300   4.637   9.940  0.7241 -0.8547 -1.1689
   60SAPC   C25 4615   6.226   4.442  10.028 -0.3141  0.5495  0.6779
   60SAPC   H5R 4616   6.220   4.389  10.124 -1.2926 -1.2630 -0.3225
   60SAPC   C26 4617   6.175   4.380   9.917 -0.0492  1.0420 -0.5375
   60SAPC   H6R 4618   6.146   4.275   9.935  1.2847  0.4766 -1.5277
   60SAPC   C27 4619   6.196   4.428   9.776 -0.3960 -0.6036 -0.9080
   60SAPC   H7R 4620   6.276   4.373   9.722 -0.4179  0.4567 -2.0576
   60SAPC   H7S 4621   6.220   4.536   9.766 -0.1799 -0.6872 -1.3015
   60SAPC   C28 4622   6.079   4.405   9.690 -0.2511  0.1493 -0.3413
   60SAPC   H8R 4623   5.994   4.354   9.736 -1.3600  2.2290  0.0405
   60SAPC   C29 4624   6.057   4.429   9.556  0.6032 -0.0167  0.5112
   60SAPC   H9R 4625   5.959   4.424   9.506  0.9920 -0.4964 -0.2221
   60SAPC  C210 4626   6.155   4.504   9.461  0.1937 -0.2158  0.2004
   60SAPC  H10R 4627   6.114   4.486   9.359 -0.7658 -0.0911  0.5445
   60SAPC  H10S 4628   6.255   4.457   9.468  1.2371  2.0830  2.0537
   60SAPC  C211 4629   6.163   4.656   9.490 -0.0165  0.4672  0.8950
   60SAPC  H11R 4630   6.174   4.683   9.596  0.8105 -0.2052  0.9884
   60SAPC  C212 4631   6.168   4.754   9.399  0.5427 -0.5012  0.1134
   60SAPC  H12R 4632   6.166   4.859   9.431 -1.4174 -0.6455  0.5717
   60SAPC  C213 4633   6.178   4.724   9.248 -0.0755 -0.2738  0.4240
   60SAPC  H13R 4634   6.079   4.722   9.197 -0.0496 -0.0488  0.3616
   60SAPC  H13S 4635   6.222   4.623   9.235 -1.2534 -0.7473  0.0023
   60SAPC  C214 4636   6.264   4.828   9.177  0.5125 -0.2778  0.4942
   60SAPC  H14R 4637   6.205   4.906   9.126  0.8943 -0.4346 -0.1957
   60SAPC  C215 4638   6.397   4.831   9.176  0.5765  0.4254 -0.3086
   60SAPC  H15R 4639   6.451   4.914   9.129 -0.1663  2.3391  2.0143
   60SAPC  C216 4640   6.484   4.715   9.232 -0.2356  0.3432  0.7274
   60SAPC  H16R 4641   6.440   4.617   9.205  0.6294 -0.2260  1.3208
   60SAPC  H16S 4642   6.496   4.720   9.342 -0.2761  0.0906  0.7437
   60SAPC  C217 4643   6.628   4.709   9.166  0.4140 -0.1511  0.3567
   60SAPC  H17R 4644   6.697   4.635   9.212 -1.4858 -1.0158  1.9811
   60SAPC  H17S 4645   6.682   4.804   9.182  0.1546 -0.1656  1.3955
   60SAPC  C218 4646   6.621   4.677   9.014 -0.5477  0.2857 -0.3017
   60SAPC  H18R 4647   6.726   4.683   8.979  0.5986 -0.5831  2.6976
   60SAPC  H18S 4648   6.580   4.772   8.973  1.9430  0.9908 -1.3058
   60SAPC  C219 4649   6.551   4.550   8.959  0.2061 -0.4209  0.1332
   60SAPC  H19R 4650   6.441   4.565   8.959  0.3101  0.8261 -2.4494
   60SAPC  H19S 4651   6.588   4.466   9.022  1.6142 -1.9462 -2.5570
   60SAPC  C220 4652   6.602   4.513   8.816  0.3260 -0.2639 -0.6711
   60SAPC  H20R 4653   6.713   4.509   8.819  0.3282 -0.0143 -0.3637
   60SAPC  H20S 4654   6.585   4.600   8.749 -0.3593  0.4896  0.4615
   60SAPC  H20T 4655   6.547   4.423   8.782 -0.5299 -0.5001  1.2073
   60SAPC   C33 4656   6.233   3.952  10.007  0.7148 -0.2404 -0.4745
   60SAPC   H3X 4657   6.132   3.997  10.013  0.0983 -1.5720 -0.7526
   60SAPC   H3Y 4658   6.238   3.868  10.079  0.2095 -0.2228 -0.4194
   60SAPC   C34 4659   6.269   3.909   9.872  0.0496  0.6932  0.5228
   60SAPC   H4X 4660   6.238   3.803   9.879  4.5098 -0.8682 -0.2551
   60SAPC   H4Y 4661   6.379   3.900   9.856 -0.2947 -0.6373 -1.4704
   60SAPC   C35 4662   6.190   3.994   9.763  0.2409 -0.6140  0.2450
   60SAPC   H5X 4663   6.237   4.094   9.771 -0.2257 -0.4650  1.2907
   60SAPC   H5Y 4664   6.081   4.000   9.787 -0.5680 -1.4075 -2.8022
   60SAPC   C36 4665   6.197   3.949   9.614 -0.4090  0.2783 -0.0869
   60SAPC   H6X 4666   6.156   3.846   9.607 -1.0356  0.6261 -2.1714
   60SAPC   H6Y 4667   6.304   3.947   9.585 -0.7019  0.1380 -1.2012
   60SAPC   C37 4668   6.116   4.043   9.529  0.2177 -0.4627  0.3251
   60SAPC   H7X 4669   6.134   4.147   9.562  2.5100 -0.8568  0.5096
   60SAPC   H7Y 4670   6.010   4.022   9.557  0.4097 -1.5797  0.2753
   60SAPC   C38 4671   6.115   4.020   9.374  0.3632  0.1375  0.0318
   60SAPC   H8X 4672   6.121   3.910   9.359  1.6041  0.0213  1.2105
   60SAPC   H8Y 4673   6.205   4.071   9.333  0.3064 -1.4513 -2.2584
   60SAPC   C39 4674   5.988   4.072   9.302  0.3070 -0.9152 -0.1677
   60SAPC   H9X 4675   5.974   4.178   9.330 -1.9751 -1.1288 -0.2969
   60SAPC   H9Y 4676   5.907   4.014   9.351 -0.8558  1.6329  1.0697
   60SAPC  C310 4677   5.980   4.039   9.155  0.1020  0.3465  0.3133
   60SAPC  H10X 4678   5.972   3.930   9.136 -0.9147  0.8623 -2.6469
   60SAPC  H10Y 4679   6.073   4.066   9.100  0.2127 -0.8430 -0.1065
   60SAPC  C311 4680   5.866   4.111   9.086 -0.4035 -1.0697  0.2505
   60SAPC  H11X 4681   5.870   4.217   9.119  3.0814 -0.8314 -0.5289
   60SAPC  H11Y 4682   5.778   4.061   9.132  0.8327 -2.9024  0.7340
   60SAPC  C312 4683   5.864   4.108   8.928 -0.3701  0.4993  0.2769
   60SAPC  H12X 4684   5.858   4.007   8.880  1.9385  1.5711 -2.5698
   60SAPC  H12Y 4685   5.966   4.129   8.890  0.4703 -1.1393  1.4806
   60SAPC  C313 4686   5.758   4.199   8.875  0.2180 -0.1069  0.3472
   60SAPC  H13X 4687   5.778   4.293   8.930 -0.8067  1.2415 -1.4721
   60SAPC  H13Y 4688   5.656   4.163   8.900 -0.2905 -0.2243 -1.7280
   60SAPC  C314 4689   5.762   4.217   8.726  0.5540  0.3599  0.1187
   60SAPC  H14X 4690   5.761   4.115   8.681 -1.0425  0.0598  0.7508
   60SAPC  H14Y 4691   5.849   4.270   8.682  0.6434  0.1318  0.0198
   60SAPC  C315 4692   5.645   4.294   8.673 -0.2749 -0.3195 -0.0356
   60SAPC  H15X 4693   5.548   4.260   8.716 -0.7384  3.0806  2.0383
   60SAPC  H15Y 4694   5.653   4.290   8.563 -0.4639 -0.7636 -0.0324
   60SAPC  C316 4695   5.639   4.445   8.705 -0.2415  0.3700  0.1346
   60SAPC  H16X 4696   5.740   4.489   8.694  0.7784 -2.1977 -1.6788
   60SAPC  H16Y 4697   5.605   4.454   8.810  1.0052 -0.4181  0.6259
   60SAPC  C317 4698   5.540   4.525   8.612 -0.2141 -0.1725 -0.0920
   60SAPC  H17X 4699   5.444   4.472   8.630  1.1875 -3.2406 -0.8325
   60SAPC  H17Y 4700   5.569   4.495   8.509 -3.1009  0.0292 -1.0567
   60SAPC  C318 4701   5.530   4.668   8.644 -0.0204 -0.0183 -0.3545
   60SAPC  H18X 4702   5.461   4.726   8.580  1.0863 -0.1898 -1.7373
   60SAPC  H18Y 4703   5.632   4.712   8.637 -0.1319 -0.0156 -2.6439
   60SAPC  H18Z 4704   5.511   4.670   8.754  2.1561 -0.1564  0.0711
   61SAPC     N 4705   6.151   2.992  11.068  0.3436  0.7146  0.4400
   61SAPC   C12 4706   6.246   2.894  11.008 -0.3451 -1.2821 -0.0110
   61SAPC  H12A 4707   6.319   2.861  11.081 -1.1795  0.8841  1.9165
   61SAPC  H12B 4708   6.290   2.939  10.921 -1.2040 -1.5934 -0.6193
   61SAPC   C13 4709   6.237   3.116  11.104  1.1765  0.8322  0.3829
   61SAPC  H13A 4710   6.173   3.196  11.138 -1.4908 -0.9056 -0.1968
   61SAPC  H13B 4711   6.298   3.096  11.191  1.4015  0.4730  0.1483
   61SAPC  H13C 4712   6.299   3.148  11.023 -0.2249  1.3199 -0.5394
   61SAPC   C14 4713   6.043   3.031  10.972  0.7519  0.2133 -0.4390
   61SAPC  H14A 4714   6.082   3.068  10.878 -0.7852  1.8091 -0.4832
   61SAPC  H14B 4715   5.972   2.953  10.951 -1.0644  1.0830  2.0375
   61SAPC  H14C 4716   5.978   3.103  11.018 -0.1967 -0.3921 -0.8081
   61SAPC   C15 4717   6.104   2.944  11.200 -0.2504  0.5876  0.4377
   61SAPC  H15A 4718   6.043   2.854  11.199  2.3203 -1.2664 -0.0284
   61SAPC  H15B 4719   6.189   2.911  11.259 -1.1781  0.8476  1.9909
   61SAPC  H15C 4720   6.060   3.020  11.263 -1.3835 -0.0169  0.4116
   61SAPC   C11 4721   6.180   2.758  10.966  0.7117 -0.1324 -0.1070
   61SAPC  H11A 4722   6.090   2.779  10.905 -0.3994 -2.3378  0.6663
   61SAPC  H11B 4723   6.151   2.709  11.061 -2.6902  2.3509  0.3291
   61SAPC     P 4724   6.290   2.532  10.903  0.0402 -0.1741  0.1470
   61SAPC   O13 4725   6.379   2.508  11.021  0.0342  0.5739  0.7476
   61SAPC   O14 4726   6.156   2.463  10.921  0.1173 -0.4670 -0.2486
   61SAPC   O12 4727   6.268   2.688  10.875  0.3662  0.1220 -0.2881
   61SAPC   O11 4728   6.347   2.479  10.772  0.0784 -0.5440  0.3559
   61SAPC    C1 4729   6.316   2.555  10.647  0.2063 -0.5556 -0.4376
   61SAPC    HA 4730   6.210   2.588  10.639  0.2026  0.1489  1.8601
   61SAPC    HB 4731   6.377   2.647  10.640  0.3203 -0.3714  1.9890
   61SAPC    C2 4732   6.355   2.460  10.534  0.5962 -0.1926  0.8434
   61SAPC    HS 4733   6.465   2.450  10.523  0.4205 -0.8719 -0.4985
   61SAPC   O21 4734   6.307   2.515  10.407  0.6609  0.4842 -0.0366
   61SAPC   C21 4735   6.383   2.574  10.336  0.2081  0.8379 -0.0866
   61SAPC   O22 4736   6.491   2.623  10.362  0.3565  0.3066  0.5849
   61SAPC   C22 4737   6.320   2.581  10.191  0.5303 -0.4987  0.5025
   61SAPC   H2R 4738   6.220   2.625  10.214 -0.3565 -1.5927 -1.0561
   61SAPC   H2S 4739   6.378   2.661  10.140 -0.7571  1.8811  2.5657
   61SAPC    C3 4740   6.286   2.323  10.553 -0.0161  0.1518  0.7627
   61SAPC    HX 4741   6.177   2.342  10.558 -0.3815 -0.8361 -1.9665
   61SAPC    HY 4742   6.319   2.276  10.649  2.1747  0.5800  0.2842
   61SAPC   O31 4743   6.305   2.232  10.442  0.0043 -0.0774  0.2608
   61SAPC   C31 4744   6.424   2.172  10.445  0.4001 -0.1958 -0.1031
   61SAPC   O32 4745   6.510   2.183  10.529 -0.9869 -0.2497 -0.3943
   61SAPC   C32 4746   6.433   2.097  10.310 -0.1152  0.7792  0.0178
   61SAPC   H2X 4747   6.345   2.123  10.247 -0.6330  1.1317  0.8727
   61SAPC   H2Y 4748   6.428   1.988  10.333  0.0513  0.4221 -1.5489
   61SAPC   C23 4749   6.323   2.449  10.127 -0.6317  0.4021  0.0037
   61SAPC   H3R 4750   6.254   2.382  10.182  0.0037  0.1370  0.4957
   61SAPC   H3S 4751   6.424   2.404  10.130 -1.0896 -0.6169  0.5090
   61SAPC   C24 4752   6.285   2.460   9.985  0.3518  0.4631  0.4442
   61SAPC   H4R 4753   6.298   2.362   9.934  3.7992  1.8724 -1.6755
   61SAPC   H4S 4754   6.339   2.540   9.931  1.2890 -0.3831  0.1079
   61SAPC   C25 4755   6.140   2.494   9.985 -0.3579 -0.1643  0.3884
   61SAPC   H5R 4756   6.086   2.441  10.064 -0.5834  0.5423  0.7165
   61SAPC   C26 4757   6.073   2.572   9.894 -0.5124  0.2369  0.1920
   61SAPC   H6R 4758   5.965   2.586   9.903 -1.0319  0.2471 -4.0329
   61SAPC   C27 4759   6.150   2.646   9.790 -0.7380 -0.0861  0.1293
   61SAPC   H7R 4760   6.168   2.590   9.696 -2.9455 -0.8285  0.1027
   61SAPC   H7S 4761   6.254   2.677   9.816 -0.1895 -1.1709 -0.6828
   61SAPC   C28 4762   6.080   2.774   9.759  0.2131 -0.0872 -0.7175
   61SAPC   H8R 4763   6.059   2.832   9.850 -0.6252  0.8328 -1.4796
   61SAPC   C29 4764   6.064   2.844   9.645 -0.0307  0.3923  0.3659
   61SAPC   H9R 4765   5.997   2.931   9.651 -2.0342 -1.1593  2.0442
   61SAPC  C210 4766   6.109   2.801   9.512 -0.4452 -0.2968  0.5876
   61SAPC  H10R 4767   6.163   2.705   9.502  1.6885  0.6809  1.9598
   61SAPC  H10S 4768   6.182   2.879   9.480 -3.8654  2.8176 -0.3709
   61SAPC  C211 4769   6.002   2.817   9.402 -0.0580 -0.1882 -0.2903
   61SAPC  H11R 4770   5.942   2.909   9.406  0.6768  0.3591 -1.4103
   61SAPC  C212 4771   5.990   2.732   9.299 -0.1924  1.1139  0.2381
   61SAPC  H12R 4772   5.913   2.758   9.224  0.2379  1.0675 -0.2254
   61SAPC  C213 4773   6.077   2.605   9.279 -0.1834  0.2072 -0.3300
   61SAPC  H13R 4774   6.182   2.630   9.306  0.1282  0.1992 -1.5076
   61SAPC  H13S 4775   6.084   2.578   9.172 -0.8278  0.4652 -0.4442
   61SAPC  C214 4776   6.027   2.485   9.353  0.0709 -0.1155 -0.0463
   61SAPC  H14R 4777   5.989   2.503   9.454 -1.3719 -0.7697 -0.4414
   61SAPC  C215 4778   6.035   2.354   9.316 -0.0638 -0.0186  0.3504
   61SAPC  H15R 4779   5.993   2.270   9.374 -1.5176 -1.5479 -2.6967
   61SAPC  C216 4780   6.091   2.296   9.191 -0.6526  0.5662  0.1090
   61SAPC  H16R 4781   6.175   2.228   9.218 -0.1599  1.1111 -0.0321
   61SAPC  H16S 4782   6.148   2.368   9.128  0.6207 -1.2560 -0.9290
   61SAPC  C217 4783   5.997   2.231   9.092  0.6047 -0.4502 -0.4948
   61SAPC  H17R 4784   5.955   2.138   9.137  1.4336  0.0899  1.5146
   61SAPC  H17S 4785   6.060   2.205   9.005  1.2762 -1.3455  0.2361
   61SAPC  C218 4786   5.890   2.320   9.030 -0.0538  0.2297 -0.0697
   61SAPC  H18R 4787   5.933   2.403   8.970 -0.0854  1.3632  1.4100
   61SAPC  H18S 4788   5.831   2.375   9.107  1.2489 -0.4137  1.4526
   61SAPC  C219 4789   5.786   2.232   8.958 -0.3940  0.3238 -0.3264
   61SAPC  H19R 4790   5.692   2.287   8.939  0.1891  2.0030  1.3607
   61SAPC  H19S 4791   5.772   2.142   9.022 -0.1947 -0.5717 -1.5011
   61SAPC  C220 4792   5.827   2.172   8.824 -0.1247  0.4579  0.7026
   61SAPC  H20R 4793   5.854   2.259   8.760 -1.1390  1.6996  1.8824
   61SAPC  H20S 4794   5.743   2.114   8.781 -0.0989  1.4392 -0.7234
   61SAPC  H20T 4795   5.925   2.120   8.828 -0.2733  0.2298  2.3265
   61SAPC   C33 4796   6.566   2.115  10.235  0.2251  0.1751 -0.3659
   61SAPC   H3X 4797   6.650   2.059  10.281  2.0254  2.4328 -0.7907
   61SAPC   H3Y 4798   6.601   2.220  10.234  0.5021  0.0990  0.5571
   61SAPC   C34 4799   6.553   2.090  10.084 -0.0617  0.4667  0.4919
   61SAPC   H4X 4800   6.478   2.169  10.064 -1.1787 -0.9758 -1.4189
   61SAPC   H4Y 4801   6.496   1.996  10.066  1.5273 -0.4442 -0.0429
   61SAPC   C35 4802   6.679   2.109   9.999 -0.0583  0.4514 -0.3603
   61SAPC   H5X 4803   6.738   2.202  10.013  1.3345 -0.2720 -1.1832
   61SAPC   H5Y 4804   6.653   2.104   9.891 -0.6127  2.5115 -0.3737
   61SAPC   C36 4805   6.775   1.996  10.034 -0.4316 -0.2374  0.1285
   61SAPC   H6X 4806   6.740   1.890  10.030  0.5002 -0.6521  1.8850
   61SAPC   H6Y 4807   6.808   2.031  10.134 -2.3814  1.0984  0.3435
   61SAPC   C37 4808   6.903   1.981   9.945  0.0361  0.4192  0.5876
   61SAPC   H7X 4809   6.968   1.903   9.991  0.6365  0.2637 -0.4776
   61SAPC   H7Y 4810   6.963   2.075   9.947 -0.3208  0.6472  2.4321
   61SAPC   C38 4811   6.885   1.943   9.795  0.4793  0.1459 -0.8499
   61SAPC   H8X 4812   6.817   2.019   9.751  2.2435  0.5187 -3.1242
   61SAPC   H8Y 4813   6.836   1.844   9.785  0.2553 -0.0629  1.6122
   61SAPC   C39 4814   7.023   1.929   9.724  0.3263 -0.0104  0.1466
   61SAPC   H9X 4815   7.075   1.847   9.777  2.0228  0.8479 -0.1283
   61SAPC   H9Y 4816   7.079   2.023   9.740  2.1219 -0.5761 -2.2110
   61SAPC  C310 4817   7.017   1.901   9.573 -0.6027 -0.1912  0.4373
   61SAPC  H10X 4818   6.961   1.805   9.565 -0.8544 -0.1250  1.3025
   61SAPC  H10Y 4819   7.119   1.883   9.534 -1.8830 -0.0836 -3.3935
   61SAPC  C311 4820   6.939   2.010   9.489  0.4660 -0.0211  0.1023
   61SAPC  H11X 4821   7.006   2.089   9.450 -0.8279  0.4477 -1.2458
   61SAPC  H11Y 4822   6.849   2.055   9.534  2.0428  2.3759  1.0183
   61SAPC  C312 4823   6.886   1.945   9.361 -0.3738  0.7702  0.7827
   61SAPC  H12X 4824   6.849   1.843   9.382  0.1445 -0.0697 -1.9882
   61SAPC  H12Y 4825   6.964   1.928   9.284 -0.3450  0.2500  0.9249
   61SAPC  C313 4826   6.773   2.034   9.301 -0.1548  0.8193 -0.2831
   61SAPC  H13X 4827   6.818   2.133   9.279  0.4994  0.1625 -2.1157
   61SAPC  H13Y 4828   6.698   2.043   9.383  1.3862 -1.5782  1.5309
   61SAPC  C314 4829   6.711   1.968   9.175  0.1363  0.8135  1.1036
   61SAPC  H14X 4830   6.669   1.867   9.195  0.6468  0.0515 -1.2648
   61SAPC  H14Y 4831   6.790   1.951   9.098 -1.8439  2.4074 -1.4425
   61SAPC  C315 4832   6.600   2.053   9.110  0.5166 -0.9189  0.4321
   61SAPC  H15X 4833   6.639   2.153   9.083  0.6896 -0.3868  2.5072
   61SAPC  H15Y 4834   6.513   2.066   9.178 -0.3466 -0.1618 -0.7953
   61SAPC  C316 4835   6.541   1.999   8.979 -0.0603  0.2330  0.6231
   61SAPC  H16X 4836   6.522   1.890   8.989 -1.0754  0.2820 -0.6028
   61SAPC  H16Y 4837   6.628   2.011   8.912 -0.9173 -0.2088 -0.5929
   61SAPC  C317 4838   6.416   2.076   8.938  0.2871 -0.4114  0.3314
   61SAPC  H17X 4839   6.443   2.183   8.933  1.7121 -0.7512  0.2088
   61SAPC  H17Y 4840   6.342   2.066   9.020 -1.0049 -0.9423 -0.8620
   61SAPC  C318 4841   6.351   2.025   8.806  0.2001  0.4115 -0.1362
   61SAPC  H18X 4842   6.378   2.077   8.712 -3.2005  2.1961 -0.2686
   61SAPC  H18Y 4843   6.240   2.023   8.810  0.0312 -0.6206 -3.0895
   61SAPC  H18Z 4844   6.380   1.918   8.795 -0.1950  0.4657 -1.9518
   62SAPC     N 4845   4.841   2.180  11.029 -0.3061 -0.6583  0.2072
   62SAPC   C12 4846   4.825   2.170  10.888  0.8093  0.2667 -0.0884
   62SAPC  H12A 4847   4.731   2.120  10.870 -0.6252  2.9711 -0.5775
   62SAPC  H12B 4848   4.905   2.104  10.857  2.0462  0.3992  2.5565
   62SAPC   C13 4849   4.811   2.047  11.093  0.7726 -0.0260 -0.1323
   62SAPC  H13A 4850   4.737   1.981  11.051  1.8733 -1.3018 -0.1497
   62SAPC  H13B 4851   4.903   1.990  11.095  1.0464  0.3940 -0.4929
   62SAPC  H13C 4852   4.791   2.054  11.199  1.2895  0.6552 -0.0719
   62SAPC   C14 4853   4.984   2.207  11.054 -0.4586 -0.5529 -0.2533
   62SAPC  H14A 4854   5.050   2.123  11.035  1.0491  0.1805  1.4535
   62SAPC  H14B 4855   5.015   2.282  10.983 -2.0350  0.3729 -0.0023
   62SAPC  H14C 4856   5.013   2.237  11.154  1.9295 -2.2557 -0.3598
   62SAPC   C15 4857   4.764   2.297  11.086 -0.3982 -0.2726  0.3446
   62SAPC  H15A 4858   4.657   2.282  11.079 -0.5089 -1.5266  3.4410
   62SAPC  H15B 4859   4.780   2.314  11.191 -0.9839 -2.4229  0.8369
   62SAPC  H15C 4860   4.798   2.388  11.039  2.7168 -0.5045  1.9180
   62SAPC   C11 4861   4.833   2.295  10.797  0.1123 -0.5498  0.3226
   62SAPC  H11A 4862   4.767   2.374  10.839 -0.9407 -2.2831  2.1411
   62SAPC  H11B 4863   4.799   2.276  10.693  1.7557 -0.7965 -0.1920
   62SAPC     P 4864   5.073   2.266  10.684  0.0461  0.4512 -0.1952
   62SAPC   O13 4865   5.199   2.332  10.704 -0.3661 -0.1867 -0.3107
   62SAPC   O14 4866   5.079   2.118  10.705 -0.0198  0.1934  0.0495
   62SAPC   O12 4867   4.971   2.332  10.784  0.1980 -0.1972 -0.0969
   62SAPC   O11 4868   5.026   2.292  10.537  0.3328 -1.0555  0.9230
   62SAPC    C1 4869   5.006   2.422  10.480 -0.4187  0.5932 -0.0985
   62SAPC    HA 4870   4.982   2.493  10.562  1.1599  1.0591 -0.0038
   62SAPC    HB 4871   5.104   2.444  10.432 -0.5464 -0.3237 -0.7981
   62SAPC    C2 4872   4.889   2.420  10.380 -0.3815  0.3137 -0.0973
   62SAPC    HS 4873   4.802   2.393  10.445  0.2540 -4.0915 -0.7834
   62SAPC   O21 4874   4.921   2.325  10.271  0.3920 -0.6503 -0.0635
   62SAPC   C21 4875   4.816   2.263  10.215 -0.6057  0.0865  0.2131
   62SAPC   O22 4876   4.702   2.266  10.260 -0.2806  0.3035  0.3866
   62SAPC   C22 4877   4.850   2.191  10.085  0.0855 -0.0624 -0.1130
   62SAPC   H2R 4878   4.915   2.262  10.030 -0.0408 -1.1081 -1.6606
   62SAPC   H2S 4879   4.903   2.098  10.116  0.0092 -0.0162  0.1633
   62SAPC    C3 4880   4.849   2.558  10.320  0.1936 -0.3659  0.6162
   62SAPC    HX 4881   4.816   2.635  10.393 -0.0792  0.2258 -0.1045
   62SAPC    HY 4882   4.754   2.536  10.266  0.0129  1.0690  0.3085
   62SAPC   O31 4883   4.951   2.610  10.233 -0.1126  0.0368  0.1208
   62SAPC   C31 4884   4.918   2.732  10.191 -0.3089 -0.2084 -0.0199
   62SAPC   O32 4885   4.828   2.800  10.224  0.4850 -0.4775 -0.2671
   62SAPC   C32 4886   5.031   2.781  10.101  0.1805 -0.2593  0.3787
   62SAPC   H2X 4887   5.005   2.746   9.999 -1.7976  1.0128  0.3994
   62SAPC   H2Y 4888   5.126   2.739  10.141  0.3242  0.0522  0.3638
   62SAPC   C23 4889   4.727   2.140  10.003  0.0329 -0.0115 -0.7570
   62SAPC   H3R 4890   4.659   2.070  10.056 -1.0248  1.9094  0.5248
   62SAPC   H3S 4891   4.763   2.083   9.915 -1.5974 -2.2921 -0.0411
   62SAPC   C24 4892   4.640   2.262   9.945  0.3677 -0.8170 -0.4024
   62SAPC   H4R 4893   4.703   2.333   9.887 -0.6954  0.5934  0.0947
   62SAPC   H4S 4894   4.599   2.330  10.023 -0.0879 -1.5920  0.0352
   62SAPC   C25 4895   4.517   2.216   9.870  0.0924 -0.1947 -0.0751
   62SAPC   H5R 4896   4.454   2.145   9.927  0.0575 -0.1929 -0.1116
   62SAPC   C26 4897   4.501   2.254   9.738  0.6686 -0.1594 -0.1832
   62SAPC   H6R 4898   4.413   2.220   9.682 -0.7410  0.1178  1.7429
   62SAPC   C27 4899   4.573   2.353   9.655  0.1052  0.0949  0.3921
   62SAPC   H7R 4900   4.641   2.413   9.720  0.3622  0.6727 -0.3956
   62SAPC   H7S 4901   4.505   2.430   9.613 -0.1028 -0.1000  0.3751
   62SAPC   C28 4902   4.666   2.277   9.560  0.0516  0.1961  0.0951
   62SAPC   H8R 4903   4.719   2.190   9.601  0.3020 -0.4202 -1.4880
   62SAPC   C29 4904   4.705   2.302   9.431  0.3676  0.6215  0.0580
   62SAPC   H9R 4905   4.772   2.231   9.380 -1.1057 -0.9009  0.1671
   62SAPC  C210 4906   4.641   2.420   9.364  0.1076 -0.5514  0.6672
   62SAPC  H10R 4907   4.681   2.510   9.414 -1.2382  0.4731 -0.0227
   62SAPC  H10S 4908   4.532   2.424   9.387 -0.6241 -2.0435 -2.0811
   62SAPC  C211 4909   4.662   2.416   9.217 -0.0248 -0.6001 -0.2807
   62SAPC  H11R 4910   4.761   2.373   9.200 -0.0800 -1.4894  1.4606
   62SAPC  C212 4911   4.579   2.440   9.115  0.2818 -0.2091 -0.3381
   62SAPC  H12R 4912   4.606   2.428   9.009  0.4617  0.1326 -0.3312
   62SAPC  C213 4913   4.444   2.502   9.132  0.1783  0.0608  0.0044
   62SAPC  H13R 4914   4.459   2.612   9.129  0.4759  0.0109 -2.3977
   62SAPC  H13S 4915   4.396   2.486   9.231  0.6553  1.5348  0.4944
   62SAPC  C214 4916   4.333   2.468   9.033 -0.4845  0.0468  0.6309
   62SAPC  H14R 4917   4.289   2.367   9.042 -0.5524 -0.0796 -0.8054
   62SAPC  C215 4918   4.299   2.539   8.925  0.4464  0.1235 -0.6284
   62SAPC  H15R 4919   4.221   2.500   8.857  0.5610 -1.1214 -0.0733
   62SAPC  C216 4920   4.368   2.669   8.884 -0.2043 -0.0929  0.3061
   62SAPC  H16R 4921   4.394   2.666   8.776  0.7071  0.1229  0.5057
   62SAPC  H16S 4922   4.468   2.668   8.934 -0.2817 -0.2744  0.4610
   62SAPC  C217 4923   4.304   2.800   8.930  0.1854  0.3602 -0.3460
   62SAPC  H17R 4924   4.328   2.819   9.037 -0.1953  3.3902 -0.7304
   62SAPC  H17S 4925   4.194   2.810   8.922 -0.0619 -0.1015  1.9118
   62SAPC  C218 4926   4.361   2.918   8.848  0.4813  0.0962 -0.4473
   62SAPC  H18R 4927   4.312   2.903   8.749 -1.8972 -1.2975  0.8505
   62SAPC  H18S 4928   4.471   2.903   8.849  0.5238  0.4041  1.1694
   62SAPC  C219 4929   4.333   3.044   8.908  0.2798  0.3957  0.5749
   62SAPC  H19R 4930   4.382   3.034   9.007  3.6845 -1.9879 -1.1389
   62SAPC  H19S 4931   4.224   3.060   8.922  0.3650 -0.9449  3.6340
   62SAPC  C220 4932   4.385   3.166   8.825  0.4616  0.5871  0.3028
   62SAPC  H20R 4933   4.493   3.153   8.803  0.0823 -1.8615 -0.4288
   62SAPC  H20S 4934   4.370   3.255   8.891  0.9574 -1.2331  3.0530
   62SAPC  H20T 4935   4.330   3.180   8.730  0.6380 -0.6292  0.0117
   62SAPC   C33 4936   5.039   2.935  10.101  0.2638  0.5797  0.2681
   62SAPC   H3X 4937   5.078   2.972  10.199 -0.0379  2.7369 -0.3898
   62SAPC   H3Y 4938   4.941   2.980  10.075  1.1135  1.2135 -2.1079
   62SAPC   C34 4939   5.135   2.980   9.987 -0.5459 -0.1643  0.3500
   62SAPC   H4X 4940   5.235   2.961  10.032 -0.5868  0.6915  0.8352
   62SAPC   H4Y 4941   5.146   3.089   9.969  0.5376 -0.5983 -1.9939
   62SAPC   C35 4942   5.110   2.923   9.850 -0.5789 -0.2145  0.4418
   62SAPC   H5X 4943   5.011   2.948   9.807 -0.0387 -0.9886 -1.3462
   62SAPC   H5Y 4944   5.115   2.812   9.851  0.1352 -0.1962  2.0049
   62SAPC   C36 4945   5.225   2.977   9.749  0.3847 -0.1037 -0.9028
   62SAPC   H6X 4946   5.313   2.910   9.757  1.7287  1.7813  0.9780
   62SAPC   H6Y 4947   5.260   3.074   9.790  1.2377 -0.0735 -1.6567
   62SAPC   C37 4948   5.183   2.998   9.605  0.2096  0.6179 -0.0877
   62SAPC   H7X 4949   5.126   3.092   9.587  1.6512  1.3868 -0.8631
   62SAPC   H7Y 4950   5.117   2.911   9.585 -2.3759  2.2176  0.9168
   62SAPC   C38 4951   5.292   3.000   9.497 -0.2343  0.1477 -0.0954
   62SAPC   H8X 4952   5.352   2.906   9.498 -1.7043 -0.8325  0.3633
   62SAPC   H8Y 4953   5.363   3.078   9.529 -1.9832  1.4943  0.6801
   62SAPC   C39 4954   5.231   3.009   9.360  0.3359  0.0621  0.3157
   62SAPC   H9X 4955   5.168   3.100   9.359 -0.4358 -0.4563  0.5685
   62SAPC   H9Y 4956   5.158   2.924   9.357  1.2801 -0.7964  0.8986
   62SAPC  C310 4957   5.335   2.979   9.246  0.2020 -0.0315 -0.1060
   62SAPC  H10X 4958   5.373   2.875   9.261 -0.6559 -0.0312  2.3887
   62SAPC  H10Y 4959   5.419   3.051   9.251 -0.6905  1.1115 -0.9210
   62SAPC  C311 4960   5.264   2.999   9.108  0.1834  0.4706  0.2602
   62SAPC  H11X 4961   5.214   3.098   9.121  0.2561  0.5755 -0.2392
   62SAPC  H11Y 4962   5.172   2.938   9.095  0.6229 -0.3588  0.9732
   62SAPC  C312 4963   5.362   2.974   8.998  0.4609 -0.5797  0.2627
   62SAPC  H12X 4964   5.399   2.869   9.006  0.4219 -0.6131  0.0100
   62SAPC  H12Y 4965   5.444   3.048   9.005 -0.6972  0.6456  1.4633
   62SAPC  C313 4966   5.298   2.993   8.862  0.5325  0.0597  1.1980
   62SAPC  H13X 4967   5.201   2.938   8.857  0.6689 -0.1581  0.8954
   62SAPC  H13Y 4968   5.362   2.948   8.784  1.3789  0.7931  1.4509
   62SAPC  C314 4969   5.286   3.146   8.814 -0.0617  0.3994 -0.1425
   62SAPC  H14X 4970   5.368   3.197   8.869 -0.5352 -0.3584  1.3179
   62SAPC  H14Y 4971   5.183   3.183   8.834  0.5354  2.0128  0.0752
   62SAPC  C315 4972   5.305   3.174   8.664 -0.1442  0.1359  0.1057
   62SAPC  H15X 4973   5.406   3.149   8.626 -0.5465 -0.6289 -0.4987
   62SAPC  H15Y 4974   5.297   3.283   8.647 -0.5936 -0.2444 -2.4383
   62SAPC  C316 4975   5.206   3.113   8.563  0.4144  0.2068 -0.2857
   62SAPC  H16X 4976   5.103   3.148   8.582  0.9195  0.8846  1.3401
   62SAPC  H16Y 4977   5.204   3.003   8.576  3.4124  0.1171  0.3093
   62SAPC  C317 4978   5.240   3.126   8.415  0.4680  0.2091  0.1428
   62SAPC  H17X 4979   5.190   3.047   8.355  0.1864  0.8485 -0.4910
   62SAPC  H17Y 4980   5.349   3.113   8.397  0.8372 -1.0812  2.8894
   62SAPC  C318 4981   5.187   3.262   8.353 -0.0271  0.3349  0.2870
   62SAPC  H18X 4982   5.247   3.346   8.394  0.3746  0.9007 -1.4105
   62SAPC  H18Y 4983   5.083   3.288   8.381  0.7074  4.0134  0.1073
   62SAPC  H18Z 4984   5.199   3.264   8.243  0.0354  1.7319  0.3041
   63SAPC     N 4985   3.233   1.353   6.055 -0.2486  0.4064  0.1088
   63SAPC   C12 4986   3.150   1.343   6.182 -0.7857 -0.2180  0.5389
   63SAPC  H12A 4987   3.047   1.329   6.152 -0.5128  1.0399 -1.1392
   63SAPC  H12B 4988   3.141   1.444   6.220 -0.6420  0.2231 -0.5568
   63SAPC   C13 4989   3.176   1.454   5.966  0.4096 -0.4951  0.5731
   63SAPC  H13A 4990   3.229   1.457   5.871 -0.8404  0.7821 -0.1111
   63SAPC  H13B 4991   3.074   1.434   5.936  0.7769 -1.2119 -0.2705
   63SAPC  H13C 4992   3.181   1.549   6.017  0.2798 -0.9530  1.4432
   63SAPC   C14 4993   3.376   1.386   6.090 -0.5725 -0.1142  0.0903
   63SAPC  H14A 4994   3.376   1.484   6.135 -1.5522 -0.5636  1.1256
   63SAPC  H14B 4995   3.422   1.317   6.159 -1.5641  2.1149  3.1686
   63SAPC  H14C 4996   3.441   1.389   6.004 -0.6110 -0.0674  0.0625
   63SAPC   C15 4997   3.230   1.216   5.987  0.2622 -0.2674  0.6887
   63SAPC  H15A 4998   3.239   1.145   6.068 -1.6322  0.6245  1.7343
   63SAPC  H15B 4999   3.142   1.198   5.928  0.7070  0.0955 -0.0992
   63SAPC  H15C 5000   3.320   1.206   5.928  0.1170  1.4877  0.1060
   63SAPC   C11 5001   3.193   1.244   6.291 -0.8929 -0.4373  0.0950
   63SAPC  H11A 5002   3.148   1.275   6.388  0.8549  0.7267  0.5903
   63SAPC  H11B 5003   3.303   1.245   6.306 -1.2255  0.6528  3.0716
   63SAPC     P 5004   3.170   0.985   6.319  0.2225 -0.3057  0.0538
   63SAPC   O13 5005   3.088   0.882   6.255 -0.5790  0.5930 -0.0759
   63SAPC   O14 5006   3.316   0.962   6.324 -0.0627 -0.0440  0.1847
   63SAPC   O12 5007   3.145   1.117   6.247 -0.4960  0.4190  0.9097
   63SAPC   O11 5008   3.112   1.004   6.464  0.4350 -1.0028 -0.4849
   63SAPC    C1 5009   2.967   1.034   6.484 -0.0041 -0.2421  0.4699
   63SAPC    HA 5010   2.932   1.121   6.425  0.0110 -0.3916  0.2405
   63SAPC    HB 5011   2.919   0.948   6.432  1.4116 -0.7149 -0.1064
   63SAPC    C2 5012   2.929   1.057   6.633  0.0201 -0.4460 -0.2845
   63SAPC    HS 5013   2.819   1.040   6.636 -0.0978 -0.0899 -1.8787
   63SAPC   O21 5014   2.962   1.191   6.671  0.3061  0.1532 -0.1071
   63SAPC   C21 5015   2.895   1.292   6.604 -0.3499 -0.1174 -0.7450
   63SAPC   O22 5016   2.790   1.274   6.540  0.4395 -0.3911 -0.4630
   63SAPC   C22 5017   2.976   1.420   6.602 -0.4022 -0.1004  0.7055
   63SAPC   H2R 5018   3.002   1.461   6.702  1.0041  0.5645  0.0909
   63SAPC   H2S 5019   3.077   1.405   6.558 -0.2291 -0.9278  1.3389
   63SAPC    C3 5020   2.997   0.950   6.729  0.2938  0.2714  0.0755
   63SAPC    HX 5021   3.105   0.978   6.729  0.3591  0.0436 -0.7320
   63SAPC    HY 5022   2.988   0.849   6.684  0.7193 -0.0644  0.7372
   63SAPC   O31 5023   2.948   0.951   6.863 -0.5600 -0.5139  0.3266
   63SAPC   C31 5024   2.829   0.904   6.884  0.0342  0.3083  0.2560
   63SAPC   O32 5025   2.748   0.871   6.801  0.0084 -0.1705  0.2443
   63SAPC   C32 5026   2.804   0.890   7.039  0.1723  0.5261 -0.6736
   63SAPC   H2X 5027   2.755   0.791   7.048 -1.1892  1.3398  1.4443
   63SAPC   H2Y 5028   2.725   0.963   7.064 -0.4693  0.2643 -1.8654
   63SAPC   C23 5029   2.892   1.533   6.520 -0.2116 -0.0703 -0.1576
   63SAPC   H3R 5030   2.851   1.490   6.426  0.8670  1.7724 -1.5483
   63SAPC   H3S 5031   2.965   1.611   6.489  0.0644 -0.3303 -0.1606
   63SAPC   C24 5032   2.796   1.606   6.617 -0.2296  0.3216  0.0042
   63SAPC   H4R 5033   2.862   1.666   6.684  1.2419 -1.8563  0.6163
   63SAPC   H4S 5034   2.732   1.547   6.686 -0.5964  1.2090  0.4371
   63SAPC   C25 5035   2.705   1.694   6.549 -0.4734  0.0636 -0.2835
   63SAPC   H5R 5036   2.638   1.652   6.473 -0.2071  0.8308 -0.9614
   63SAPC   C26 5037   2.691   1.822   6.583 -0.5868 -0.4208  0.5002
   63SAPC   H6R 5038   2.628   1.882   6.514 -0.8257 -1.1222  0.0974
   63SAPC   C27 5039   2.774   1.899   6.679 -0.1560 -0.4097 -0.0445
   63SAPC   H7R 5040   2.873   1.912   6.631 -0.5538  0.9575 -0.5481
   63SAPC   H7S 5041   2.796   1.854   6.779  3.0667  1.2814  0.1442
   63SAPC   C28 5042   2.721   2.033   6.706 -0.1161 -0.4813  0.1638
   63SAPC   H8R 5043   2.732   2.098   6.618  0.5500 -0.4336  0.2699
   63SAPC   C29 5044   2.667   2.083   6.820  0.4671 -0.6418 -0.0878
   63SAPC   H9R 5045   2.627   2.185   6.812  2.2092 -0.0090 -1.2192
   63SAPC  C210 5046   2.648   2.007   6.949 -0.1143  0.2836  1.0455
   63SAPC  H10R 5047   2.729   2.020   7.025  1.2446 -1.3033 -0.0543
   63SAPC  H10S 5048   2.666   1.898   6.935  1.5555  0.5265  1.0252
   63SAPC  C211 5049   2.514   2.029   7.019 -0.1344 -0.1353  0.4180
   63SAPC  H11R 5050   2.432   2.085   6.971  0.2810 -0.7936 -1.1370
   63SAPC  C212 5051   2.496   2.002   7.151  0.3384 -0.3304  0.0681
   63SAPC  H12R 5052   2.408   2.028   7.212 -0.8308 -0.8333 -1.3521
   63SAPC  C213 5053   2.601   1.933   7.230  0.5112 -0.5210  0.5410
   63SAPC  H13R 5054   2.657   1.865   7.162 -0.7279 -0.5460 -0.4855
   63SAPC  H13S 5055   2.553   1.863   7.302 -0.6330 -0.0446  0.2678
   63SAPC  C214 5056   2.697   2.026   7.303 -0.1686 -0.7226 -0.0125
   63SAPC  H14R 5057   2.736   2.111   7.244  0.0102 -1.1810 -0.5618
   63SAPC  C215 5058   2.748   2.028   7.430 -0.4153 -0.2683  1.5659
   63SAPC  H15R 5059   2.820   2.103   7.466  0.1230 -0.6188  1.2520
   63SAPC  C216 5060   2.720   1.927   7.540 -0.6715 -0.2279  0.1504
   63SAPC  H16R 5061   2.817   1.911   7.592  0.6241  3.2414 -0.8790
   63SAPC  H16S 5062   2.680   1.828   7.509 -0.0851 -1.6446  3.4800
   63SAPC  C217 5063   2.612   1.994   7.638 -0.3432 -0.6267  0.2469
   63SAPC  H17R 5064   2.521   2.024   7.581 -0.0972 -0.4345 -0.0455
   63SAPC  H17S 5065   2.663   2.082   7.680  0.0059 -0.5338 -0.3666
   63SAPC  C218 5066   2.560   1.903   7.752  0.6186 -0.0576  0.2564
   63SAPC  H18R 5067   2.499   1.825   7.701 -0.5219  1.2269 -0.4310
   63SAPC  H18S 5068   2.487   1.972   7.800  1.2240  0.3440  0.6112
   63SAPC  C219 5069   2.665   1.838   7.841 -0.0401  0.1269 -0.1925
   63SAPC  H19R 5070   2.744   1.914   7.860 -0.5461  1.1565 -1.9602
   63SAPC  H19S 5071   2.713   1.753   7.789  0.6773 -0.9560  2.0993
   63SAPC  C220 5072   2.621   1.782   7.971  0.1534  0.2411  0.5801
   63SAPC  H20R 5073   2.579   1.856   8.043  1.6391  0.1925  1.5586
   63SAPC  H20S 5074   2.713   1.748   8.023 -0.6261 -0.1066  1.7730
   63SAPC  H20T 5075   2.552   1.697   7.953 -0.2042  0.7918 -0.7275
   63SAPC   C33 5076   2.935   0.920   7.117 -0.4069  0.3531  0.0368
   63SAPC   H3X 5077   2.946   1.029   7.101 -1.4506  0.4694  0.0391
   63SAPC   H3Y 5078   3.028   0.876   7.076 -0.2777 -0.6223  1.2959
   63SAPC   C34 5079   2.923   0.888   7.267  0.1101 -0.4050  0.0589
   63SAPC   H4X 5080   2.817   0.896   7.300  0.0826 -0.3084 -0.0535
   63SAPC   H4Y 5081   2.982   0.963   7.324 -1.3176  1.8887 -1.3239
   63SAPC   C35 5082   2.972   0.744   7.289 -0.3998  0.0098 -0.8577
   63SAPC   H5X 5083   3.083   0.743   7.280 -0.3481 -0.3796 -0.2636
   63SAPC   H5Y 5084   2.935   0.674   7.211  0.7115 -1.8381  0.1919
   63SAPC   C36 5085   2.948   0.692   7.434  0.4527 -0.2748  0.5912
   63SAPC   H6X 5086   2.941   0.582   7.439  0.4638 -0.3416 -0.5684
   63SAPC   H6Y 5087   2.849   0.730   7.467 -0.3942 -1.2714 -0.6993
   63SAPC   C37 5088   3.052   0.750   7.527  0.5966 -0.3095  0.0911
   63SAPC   H7X 5089   3.067   0.858   7.509 -1.9176 -0.1093 -1.2878
   63SAPC   H7Y 5090   3.148   0.701   7.501  2.9649  3.7930  0.2355
   63SAPC   C38 5091   3.002   0.722   7.674  0.3073  1.1000  0.2755
   63SAPC   H8X 5092   3.005   0.612   7.688 -1.1187  0.7351 -1.8033
   63SAPC   H8Y 5093   2.893   0.742   7.679  0.1764  0.8424 -1.2604
   63SAPC   C39 5094   3.081   0.801   7.780  0.3378  0.5405 -0.3295
   63SAPC   H9X 5095   3.066   0.909   7.759  0.8052  0.3364 -1.8033
   63SAPC   H9Y 5096   3.188   0.772   7.785  0.0163 -0.5074  2.0630
   63SAPC  C310 5097   3.036   0.776   7.926  0.8652 -0.1456 -0.7495
   63SAPC  H10X 5098   3.026   0.667   7.944 -1.7738  0.4013  2.1513
   63SAPC  H10Y 5099   2.933   0.812   7.950  0.8348 -0.9535  0.4016
   63SAPC  C311 5100   3.128   0.840   8.026 -0.4132 -0.4004 -0.4809
   63SAPC  H11X 5101   3.136   0.950   8.009  1.3186 -0.4168  0.1163
   63SAPC  H11Y 5102   3.231   0.801   8.010  0.4252  2.5602 -3.4366
   63SAPC  C312 5103   3.105   0.826   8.182 -0.1886  0.4183 -0.5276
   63SAPC  H12X 5104   3.192   0.886   8.217  1.9869 -2.2136 -1.0512
   63SAPC  H12Y 5105   3.108   0.722   8.223 -2.1634  0.2110 -0.7927
   63SAPC  C313 5106   2.975   0.888   8.240 -0.4720 -0.4362  0.3294
   63SAPC  H13X 5107   2.892   0.836   8.187 -0.5074 -0.1328  0.0858
   63SAPC  H13Y 5108   2.970   0.994   8.209 -0.5020  0.0798  1.9840
   63SAPC  C314 5109   2.977   0.865   8.388  0.2592  0.0488 -0.2954
   63SAPC  H14X 5110   3.046   0.939   8.434 -0.4636  1.0204 -0.7269
   63SAPC  H14Y 5111   3.006   0.761   8.414 -1.0622 -1.0358 -2.7691
   63SAPC  C315 5112   2.844   0.896   8.467 -0.4371  0.5340 -0.2469
   63SAPC  H15X 5113   2.761   0.839   8.422 -1.1931  1.3492  0.0746
   63SAPC  H15Y 5114   2.826   1.002   8.439 -0.0585  0.0573 -2.4923
   63SAPC  C316 5115   2.863   0.867   8.614 -0.0078 -0.8676  0.3114
   63SAPC  H16X 5116   2.812   0.954   8.661 -0.8659 -1.8806  1.3233
   63SAPC  H16Y 5117   2.970   0.880   8.642 -0.1985  1.6502  0.0645
   63SAPC  C317 5118   2.820   0.731   8.663 -1.2250 -0.0180 -0.6944
   63SAPC  H17X 5119   2.864   0.657   8.592  0.9027  0.6964 -0.1942
   63SAPC  H17Y 5120   2.711   0.716   8.657 -1.5385  1.6720  0.0660
   63SAPC  C318 5121   2.880   0.699   8.804 -0.8454  0.1851 -0.4014
   63SAPC  H18X 5122   2.986   0.665   8.792 -0.4903  1.3816 -0.7698
   63SAPC  H18Y 5123   2.821   0.622   8.858 -0.0957 -0.3413 -0.3013
   63SAPC  H18Z 5124   2.880   0.796   8.858 -0.2022 -0.2358  0.3889
   64SAPC     N 5125   5.026   1.560   5.840  0.8710 -0.0507 -0.1466
   64SAPC   C12 5126   5.071   1.567   5.985 -0.2638  0.0416 -1.0295
   64SAPC  H12A 5127   5.026   1.648   6.039 -0.0711 -2.0574  2.6073
   64SAPC  H12B 5128   5.175   1.597   5.991 -0.2333 -0.1285 -0.6916
   64SAPC   C13 5129   5.035   1.692   5.783 -0.1539 -0.2620  0.1676
   64SAPC  H13A 5130   5.029   1.687   5.675  1.3046  1.0572 -0.0161
   64SAPC  H13B 5131   4.969   1.766   5.826 -0.4816  1.4407 -2.9234
   64SAPC  H13C 5132   5.136   1.728   5.792  0.4532 -1.9399  0.3748
   64SAPC   C14 5133   5.110   1.473   5.752  0.1999  0.4266  0.7043
   64SAPC  H14A 5134   5.057   1.442   5.663  0.4699 -0.7699  0.9398
   64SAPC  H14B 5135   5.201   1.514   5.714  0.5969  0.2632  1.4531
   64SAPC  H14C 5136   5.132   1.375   5.792  1.1812  0.1111 -0.5542
   64SAPC   C15 5137   4.885   1.514   5.822  0.0573  0.0870 -0.2851
   64SAPC  H15A 5138   4.842   1.547   5.728 -2.6189  1.9025  1.4354
   64SAPC  H15B 5139   4.875   1.408   5.835  0.3697  0.0129 -0.6297
   64SAPC  H15C 5140   4.823   1.554   5.900 -2.2469  2.5293 -3.1024
   64SAPC   C11 5141   5.044   1.443   6.074  0.2004 -0.1988 -0.2146
   64SAPC  H11A 5142   4.936   1.420   6.075  0.1662 -0.0917  1.6549
   64SAPC  H11B 5143   5.067   1.461   6.181 -0.9531 -0.0218  0.0159
   64SAPC     P 5144   5.258   1.301   6.052 -0.3701  0.8107 -0.2637
   64SAPC   O13 5145   5.321   1.249   5.931  0.0331 -0.2377 -0.1940
   64SAPC   O14 5146   5.319   1.423   6.113 -0.8246  0.6386 -0.0433
   64SAPC   O12 5147   5.108   1.326   6.026 -0.7152  0.4363  0.1090
   64SAPC   O11 5148   5.264   1.196   6.166  0.2358  0.0686 -0.5031
   64SAPC    C1 5149   5.143   1.154   6.234 -0.6286 -1.2375 -0.2547
   64SAPC    HA 5150   5.100   1.244   6.282  0.0994  0.8410 -3.1939
   64SAPC    HB 5151   5.079   1.119   6.150 -0.9662  2.1274 -1.5342
   64SAPC    C2 5152   5.174   1.034   6.330  0.1995  0.5064  0.2120
   64SAPC    HS 5153   5.222   0.956   6.267  2.5128  1.7491  0.3153
   64SAPC   O21 5154   5.049   0.994   6.394  0.1716 -0.6453  0.1702
   64SAPC   C21 5155   5.035   0.867   6.404  0.1186  0.0140 -0.0924
   64SAPC   O22 5156   5.111   0.783   6.372  0.1937  0.1700  0.0926
   64SAPC   C22 5157   4.893   0.849   6.447  0.5788  0.0995 -0.4411
   64SAPC   H2R 5158   4.854   0.938   6.501  1.0910  0.3118 -0.4096
   64SAPC   H2S 5159   4.832   0.815   6.361  0.5942 -0.4067 -0.2533
   64SAPC    C3 5160   5.277   1.080   6.437 -0.0122 -0.0515  0.5772
   64SAPC    HX 5161   5.248   1.171   6.494 -0.6754 -0.1588  0.4173
   64SAPC    HY 5162   5.371   1.091   6.378 -0.3075 -1.0305 -0.0930
   64SAPC   O31 5163   5.296   0.980   6.543  0.5800  0.3881  0.1837
   64SAPC   C31 5164   5.387   0.887   6.515 -0.2370  0.2512 -0.0995
   64SAPC   O32 5165   5.440   0.877   6.406  0.1360  0.1495 -0.5137
   64SAPC   C32 5166   5.436   0.815   6.649  0.7734  0.0250  0.6864
   64SAPC   H2X 5167   5.501   0.879   6.711  0.8931 -0.5873  1.2121
   64SAPC   H2Y 5168   5.490   0.727   6.608  1.5808  1.4028 -1.3786
   64SAPC   C23 5169   4.870   0.734   6.556 -0.0919  0.1665 -0.5036
   64SAPC   H3R 5170   4.943   0.654   6.531 -1.9238 -2.0179  0.7987
   64SAPC   H3S 5171   4.770   0.688   6.547  0.6597 -1.9622  1.0370
   64SAPC   C24 5172   4.912   0.776   6.694  0.5617 -0.1913  0.4879
   64SAPC   H4R 5173   4.994   0.849   6.676 -0.1182  0.3382 -0.5816
   64SAPC   H4S 5174   4.949   0.687   6.749  1.6475 -0.8611 -1.2538
   64SAPC   C25 5175   4.793   0.849   6.754 -0.0110  0.4635 -0.5814
   64SAPC   H5R 5176   4.744   0.926   6.693 -4.2474 -0.8188  0.8653
   64SAPC   C26 5177   4.741   0.830   6.875  0.1704  0.2887 -0.2160
   64SAPC   H6R 5178   4.643   0.879   6.883 -0.0896 -0.1583 -0.6718
   64SAPC   C27 5179   4.798   0.730   6.978 -0.2240 -0.3482  0.1853
   64SAPC   H7R 5180   4.867   0.784   7.046 -0.7906 -0.2513  0.7030
   64SAPC   H7S 5181   4.842   0.641   6.930  1.4714  0.8105 -0.5164
   64SAPC   C28 5182   4.695   0.661   7.076 -0.2938  0.1783  0.1896
   64SAPC   H8R 5183   4.623   0.587   7.037 -1.6695  0.8430  1.3904
   64SAPC   C29 5184   4.684   0.683   7.211 -0.7096 -0.2340  0.4811
   64SAPC   H9R 5185   4.598   0.638   7.262 -0.5798  0.9022  1.7580
   64SAPC  C210 5186   4.758   0.787   7.297 -0.3790  0.0939  0.1232
   64SAPC  H10R 5187   4.682   0.828   7.366 -0.8492 -0.1278 -0.2586
   64SAPC  H10S 5188   4.793   0.878   7.242  1.7275 -0.2945  0.7168
   64SAPC  C211 5189   4.880   0.734   7.369  0.5004  0.6791  0.3529
   64SAPC  H11R 5190   4.961   0.723   7.295 -0.5563  0.4440 -0.7967
   64SAPC  C212 5191   4.893   0.706   7.502 -0.3641 -0.1688 -0.0645
   64SAPC  H12R 5192   4.984   0.653   7.535 -0.0021  1.0240  0.9483
   64SAPC  C213 5193   4.795   0.725   7.613  1.4955  0.1165 -0.5217
   64SAPC  H13R 5194   4.781   0.631   7.671  1.4164  1.7403  2.2508
   64SAPC  H13S 5195   4.690   0.749   7.586  1.0563  0.5397  1.3832
   64SAPC  C214 5196   4.846   0.828   7.710 -0.0011  0.0566  0.3174
   64SAPC  H14R 5197   4.902   0.912   7.667 -0.6725  0.6689  0.6032
   64SAPC  C215 5198   4.835   0.841   7.841 -0.6219  0.5510 -0.1409
   64SAPC  H15R 5199   4.888   0.926   7.887 -0.2709  0.2647 -0.0160
   64SAPC  C216 5200   4.766   0.747   7.928  0.1804  0.5499  0.4181
   64SAPC  H16R 5201   4.704   0.672   7.875  1.7261  0.3330 -1.1840
   64SAPC  H16S 5202   4.681   0.794   7.982 -1.1563  1.4631 -2.3042
   64SAPC  C217 5203   4.855   0.675   8.019  0.0334  0.1804  0.2696
   64SAPC  H17R 5204   4.938   0.742   8.051  1.7016 -0.9151 -1.5387
   64SAPC  H17S 5205   4.916   0.595   7.972  1.1443  0.9012  0.4468
   64SAPC  C218 5206   4.782   0.604   8.136  0.2848  0.0996  0.2378
   64SAPC  H18R 5207   4.709   0.526   8.103  1.6064 -1.7738  1.5289
   64SAPC  H18S 5208   4.724   0.681   8.190 -0.1842  0.8376 -1.2622
   64SAPC  C219 5209   4.884   0.532   8.231 -0.0237  0.0067  0.1088
   64SAPC  H19R 5210   4.978   0.589   8.219 -0.9913  1.3612 -1.4558
   64SAPC  H19S 5211   4.905   0.428   8.195 -0.7795 -1.0069  2.4414
   64SAPC  C220 5212   4.837   0.526   8.375  0.6055 -0.3200 -0.2825
   64SAPC  H20R 5213   4.732   0.488   8.373  0.8673 -1.1977  0.9558
   64SAPC  H20S 5214   4.835   0.627   8.422  1.3651 -0.4346  0.0096
   64SAPC  H20T 5215   4.906   0.465   8.437 -1.2166 -2.0246  0.1980
   64SAPC   C33 5216   5.315   0.762   6.735 -0.0021 -0.0230  0.0543
   64SAPC   H3X 5217   5.255   0.689   6.677  0.9646 -0.4215 -0.4628
   64SAPC   H3Y 5218   5.248   0.846   6.763 -2.2309 -1.4978 -0.6125
   64SAPC   C34 5219   5.358   0.690   6.864  0.2854 -0.0417  1.1954
   64SAPC   H4X 5220   5.393   0.777   6.923 -1.2415  1.0682  0.5343
   64SAPC   H4Y 5221   5.440   0.618   6.845  0.5323  0.3469  0.7638
   64SAPC   C35 5222   5.250   0.607   6.936  0.5042 -0.2538 -0.1738
   64SAPC   H5X 5223   5.237   0.512   6.881  0.0985 -1.8178  2.4414
   64SAPC   H5Y 5224   5.154   0.663   6.937 -0.1947 -0.8818 -5.1793
   64SAPC   C36 5225   5.287   0.571   7.084 -0.4818  0.0283  0.2038
   64SAPC   H6X 5226   5.393   0.537   7.082 -0.8413 -1.9885  4.8021
   64SAPC   H6Y 5227   5.233   0.480   7.117  1.9342 -1.1789  1.0270
   64SAPC   C37 5228   5.273   0.691   7.187 -0.1164 -0.6366  0.3314
   64SAPC   H7X 5229   5.170   0.733   7.185 -0.8407 -2.3287 -0.8871
   64SAPC   H7Y 5230   5.334   0.774   7.147 -1.4749  0.9008  1.3073
   64SAPC   C38 5231   5.332   0.668   7.327  0.2210 -0.6864  0.4968
   64SAPC   H8X 5232   5.438   0.639   7.307  1.0382  2.6780 -0.6335
   64SAPC   H8Y 5233   5.269   0.587   7.371  0.3756 -0.5906  0.9059
   64SAPC   C39 5234   5.335   0.793   7.418 -1.0562 -0.1359 -0.4504
   64SAPC   H9X 5235   5.227   0.819   7.427 -1.1688 -1.0909  1.3614
   64SAPC   H9Y 5236   5.396   0.874   7.372 -0.6834 -0.9199 -1.3691
   64SAPC  C310 5237   5.396   0.770   7.557 -0.6429 -0.6643  0.4885
   64SAPC  H10X 5238   5.432   0.868   7.594 -0.6224 -0.2100 -0.7053
   64SAPC  H10Y 5239   5.485   0.704   7.544 -1.5336 -1.6885 -0.6489
   64SAPC  C311 5240   5.303   0.709   7.657 -0.1531  0.3185 -0.2187
   64SAPC  H11X 5241   5.278   0.605   7.627 -0.5501  0.2454  0.3552
   64SAPC  H11Y 5242   5.214   0.774   7.652 -0.6447 -0.4429 -2.4529
   64SAPC  C312 5243   5.374   0.700   7.792  0.0528  0.2589 -0.6732
   64SAPC  H12X 5244   5.404   0.804   7.819  0.0491 -0.0322  0.4788
   64SAPC  H12Y 5245   5.466   0.638   7.785 -0.0760  0.2397 -2.7117
   64SAPC  C313 5246   5.292   0.631   7.900 -0.4081  0.3774  0.4838
   64SAPC  H13X 5247   5.254   0.533   7.863 -3.8404  1.5877  0.5047
   64SAPC  H13Y 5248   5.204   0.690   7.932 -1.7681 -1.4435  0.2515
   64SAPC  C314 5249   5.362   0.596   8.030 -0.0791  0.0350 -0.2718
   64SAPC  H14X 5250   5.358   0.686   8.095 -3.3201 -1.1061  1.3639
   64SAPC  H14Y 5251   5.462   0.551   8.016 -0.5356 -1.7457  1.5692
   64SAPC  C315 5252   5.291   0.486   8.118  0.4507 -0.1510  0.6487
   64SAPC  H15X 5253   5.254   0.399   8.060  2.7594  0.3125 -1.6836
   64SAPC  H15Y 5254   5.212   0.547   8.167  0.8587  0.1408  0.9544
   64SAPC  C316 5255   5.390   0.435   8.220  0.2380  0.2862  0.2935
   64SAPC  H16X 5256   5.425   0.528   8.270  1.2687 -0.4068  0.9108
   64SAPC  H16Y 5257   5.480   0.390   8.173  1.6307  2.6648  0.5021
   64SAPC  C317 5258   5.323   0.349   8.327 -0.5056  0.1938  0.2611
   64SAPC  H17X 5259   5.230   0.400   8.361 -0.1117  0.5514  0.8024
   64SAPC  H17Y 5260   5.393   0.338   8.412 -1.1153 -2.1517  0.5376
   64SAPC  C318 5261   5.296   0.208   8.282 -0.1424  0.1465  0.5391
   64SAPC  H18X 5262   5.235   0.212   8.190  0.1984 -2.6652  0.0862
   64SAPC  H18Y 5263   5.229   0.145   8.345 -0.0923  1.6584  2.1872
   64SAPC  H18Z 5264   5.394   0.160   8.260 -0.0562  0.6601 -0.2376
   65SAPC     N 5265   6.400   2.492   6.420 -0.1583  0.0476 -0.2616
   65SAPC   C12 5266   6.296   2.562   6.503  0.2020  0.3671 -0.7427
   65SAPC  H12A 5267   6.327   2.666   6.500  0.7545  0.3267  1.8335
   65SAPC  H12B 5268   6.301   2.534   6.607  0.5024  0.5224 -0.7107
   65SAPC   C13 5269   6.537   2.540   6.466 -0.3430 -0.6802  0.7935
   65SAPC  H13A 5270   6.553   2.506   6.567 -2.5146 -2.0049  0.7564
   65SAPC  H13B 5271   6.620   2.485   6.424  1.9421  1.1928  2.5641
   65SAPC  H13C 5272   6.553   2.645   6.449 -1.5504 -0.5227  0.5568
   65SAPC   C14 5273   6.389   2.346   6.440  0.0326 -0.3169  0.3762
   65SAPC  H14A 5274   6.385   2.317   6.544 -1.4168  0.5044  0.5880
   65SAPC  H14B 5275   6.299   2.306   6.397  0.4773  1.2627 -2.2225
   65SAPC  H14C 5276   6.470   2.288   6.400  0.9856  2.1008 -1.4750
   65SAPC   C15 5277   6.376   2.514   6.276  1.2560  0.6420  0.6563
   65SAPC  H15A 5278   6.278   2.480   6.244  1.4908  2.3498 -2.2483
   65SAPC  H15B 5279   6.378   2.621   6.258  0.3197  0.6381  0.4930
   65SAPC  H15C 5280   6.452   2.469   6.214 -1.8236 -0.6750 -2.5083
   65SAPC   C11 5281   6.148   2.541   6.474  0.3094  0.2471 -0.1176
   65SAPC  H11A 5282   6.088   2.581   6.558  1.0286 -1.7049  1.4009
   65SAPC  H11B 5283   6.121   2.434   6.467 -1.3529  0.6843 -0.8514
   65SAPC     P 5284   6.110   2.762   6.340  0.0496  0.0593  0.0407
   65SAPC   O13 5285   6.248   2.818   6.342 -0.2006 -0.5574  0.1815
   65SAPC   O14 5286   6.030   2.800   6.220  0.2345  0.2572 -0.5483
   65SAPC   O12 5287   6.108   2.604   6.346 -0.3043 -0.0084 -0.4453
   65SAPC   O11 5288   6.035   2.800   6.476 -0.3217  0.0175  0.3857
   65SAPC    C1 5289   5.993   2.937   6.504 -0.4660 -0.4026 -0.0638
   65SAPC    HA 5290   5.999   3.011   6.422  3.2974 -0.3121  0.1512
   65SAPC    HB 5291   5.886   2.938   6.536  0.0220  0.8824  1.6875
   65SAPC    C2 5292   6.057   3.002   6.631  0.2080  0.0125  0.8651
   65SAPC    HS 5293   6.164   3.022   6.609 -0.3171  0.6201 -1.3806
   65SAPC   O21 5294   6.030   2.918   6.747  0.3810  0.2863 -0.2771
   65SAPC   C21 5295   6.126   2.827   6.764 -0.6022 -0.3160 -0.3174
   65SAPC   O22 5296   6.238   2.836   6.720  0.0176 -0.5548 -0.0497
   65SAPC   C22 5297   6.087   2.728   6.872  0.0645  0.0884 -0.4182
   65SAPC   H2R 5298   6.009   2.661   6.829  0.2731  0.0770 -0.7785
   65SAPC   H2S 5299   6.173   2.659   6.887  0.2783  0.6677  1.2373
   65SAPC    C3 5300   5.997   3.150   6.659 -0.3687  1.0916  0.5237
   65SAPC    HX 5301   5.888   3.129   6.667 -0.2442 -0.7514 -1.6281
   65SAPC    HY 5302   6.011   3.210   6.566 -0.2435 -2.4490 -1.9364
   65SAPC   O31 5303   6.065   3.215   6.768  0.8809 -0.4967  0.3497
   65SAPC   C31 5304   5.985   3.247   6.874 -0.3540 -0.5443  0.1514
   65SAPC   O32 5305   5.865   3.256   6.869  0.5422 -0.2006  0.9825
   65SAPC   C32 5306   6.075   3.285   6.996  0.1851 -0.0100  0.6969
   65SAPC   H2X 5307   6.132   3.378   6.974 -0.7479  0.2994 -0.5665
   65SAPC   H2Y 5308   6.156   3.210   7.008 -0.3907 -1.7838 -4.2301
   65SAPC   C23 5309   6.043   2.781   7.008  0.1823  0.4015  0.8324
   65SAPC   H3R 5310   6.043   2.692   7.074 -0.2574 -0.5049 -0.3550
   65SAPC   H3S 5311   5.946   2.833   6.992 -0.1986 -0.0627  1.6064
   65SAPC   C24 5312   6.136   2.885   7.070  0.5122  0.0311  0.0895
   65SAPC   H4R 5313   6.091   2.923   7.164  1.6087 -0.3802  0.7952
   65SAPC   H4S 5314   6.157   2.974   7.007  0.2022  0.1112  0.0989
   65SAPC   C25 5315   6.273   2.829   7.089 -0.0694  0.2341  0.6870
   65SAPC   H5R 5316   6.333   2.808   6.999  0.1194 -0.0106  0.8705
   65SAPC   C26 5317   6.322   2.807   7.214  0.2536 -0.6338 -0.4297
   65SAPC   H6R 5318   6.431   2.795   7.226  0.3274 -0.0956 -0.5343
   65SAPC   C27 5319   6.260   2.836   7.352  0.1934 -0.0741 -0.1821
   65SAPC   H7R 5320   6.153   2.803   7.354  0.0484  0.3980  2.1948
   65SAPC   H7S 5321   6.251   2.946   7.348  0.0913 -0.1143 -1.9236
   65SAPC   C28 5322   6.333   2.780   7.475  0.5886  0.5345  0.6033
   65SAPC   H8R 5323   6.342   2.670   7.477 -0.0900  0.4828  1.8563
   65SAPC   C29 5324   6.342   2.853   7.588 -0.0978  0.1413  0.0555
   65SAPC   H9R 5325   6.391   2.810   7.676  2.0706  1.9029 -0.1885
   65SAPC  C210 5326   6.298   2.993   7.614  0.1379 -0.7689  0.2156
   65SAPC  H10R 5327   6.222   3.015   7.536 -0.3447 -0.1146  0.8545
   65SAPC  H10S 5328   6.388   3.058   7.612 -0.7268  0.5687  1.8459
   65SAPC  C211 5329   6.227   3.018   7.749  0.2760  0.1303 -0.1091
   65SAPC  H11R 5330   6.117   3.027   7.747  0.2313 -0.4705 -1.1443
   65SAPC  C212 5331   6.286   3.042   7.863  0.0574 -0.5209  0.2454
   65SAPC  H12R 5332   6.228   3.045   7.957 -0.8583 -1.1629 -0.2783
   65SAPC  C213 5333   6.433   3.045   7.879 -0.5969 -0.0198  0.0653
   65SAPC  H13R 5334   6.471   3.127   7.815 -2.6060 -0.4213 -1.7409
   65SAPC  H13S 5335   6.481   2.950   7.845  0.9732  0.5229  0.6476
   65SAPC  C214 5336   6.488   3.063   8.019 -0.0966  0.1378  0.3381
   65SAPC  H14R 5337   6.480   3.168   8.049 -0.0797  0.6552 -1.3391
   65SAPC  C215 5338   6.547   2.975   8.102 -0.1451 -0.5714  0.6058
   65SAPC  H15R 5339   6.588   3.001   8.201 -1.2127  0.6199  0.7592
   65SAPC  C216 5340   6.569   2.834   8.059  0.9521  0.1556  0.0323
   65SAPC  H16R 5341   6.672   2.802   8.086  0.4830 -1.4867 -0.0264
   65SAPC  H16S 5342   6.550   2.815   7.952  1.7775  0.9191 -0.2558
   65SAPC  C217 5343   6.473   2.734   8.136  0.4157  0.3778  0.1872
   65SAPC  H17R 5344   6.492   2.631   8.098  1.7934  0.4638  0.5885
   65SAPC  H17S 5345   6.370   2.775   8.123  0.2156  0.1512  1.0158
   65SAPC  C218 5346   6.497   2.715   8.288  0.0923  0.0250 -0.2629
   65SAPC  H18R 5347   6.411   2.661   8.333 -1.0902  0.5611 -1.7810
   65SAPC  H18S 5348   6.502   2.815   8.336 -1.5698  0.5774 -1.1624
   65SAPC  C219 5349   6.632   2.641   8.318  0.6754 -0.1809  0.5355
   65SAPC  H19R 5350   6.719   2.686   8.265 -0.1581 -0.7166 -1.3857
   65SAPC  H19S 5351   6.623   2.539   8.276  0.8747  0.9461 -2.5931
   65SAPC  C220 5352   6.660   2.642   8.470 -0.3059  0.3766 -0.1630
   65SAPC  H20R 5353   6.576   2.608   8.533 -0.4440 -0.9011 -1.0126
   65SAPC  H20S 5354   6.692   2.744   8.501 -2.3107  0.8583  0.4425
   65SAPC  H20T 5355   6.752   2.587   8.498  0.7473  2.4571  0.7159
   65SAPC   C33 5356   5.988   3.303   7.122  0.5027  0.5115  0.1396
   65SAPC   H3X 5357   5.925   3.212   7.136  1.1284  0.0055 -0.2478
   65SAPC   H3Y 5358   5.919   3.390   7.114  0.6503  0.6292  0.1448
   65SAPC   C34 5359   6.076   3.317   7.242 -0.3087 -0.7205 -0.8456
   65SAPC   H4X 5360   6.141   3.406   7.234 -0.9804 -0.1154  0.2198
   65SAPC   H4Y 5361   6.146   3.233   7.261  0.1852 -0.3312 -0.9321
   65SAPC   C35 5362   5.999   3.335   7.368  0.6202 -0.8630 -0.0410
   65SAPC   H5X 5363   5.930   3.248   7.369 -1.7114  0.8992 -1.1142
   65SAPC   H5Y 5364   5.939   3.426   7.348  3.4974  0.9417 -1.1141
   65SAPC   C36 5365   6.078   3.360   7.495 -0.2517  0.0455  0.7548
   65SAPC   H6X 5366   6.148   3.445   7.476  0.4684 -0.7359 -0.2016
   65SAPC   H6Y 5367   6.142   3.270   7.500  0.4183  0.3359 -1.3196
   65SAPC   C37 5368   5.989   3.387   7.614  1.2409  0.0871  0.2400
   65SAPC   H7X 5369   5.914   3.306   7.623  1.1377 -0.0121 -1.3311
   65SAPC   H7Y 5370   5.929   3.480   7.619 -0.7886 -1.2057  3.7708
   65SAPC   C38 5371   6.069   3.390   7.742 -0.2565  0.2356 -0.3186
   65SAPC   H8X 5372   6.135   3.480   7.742 -1.3920  1.1084  0.2251
   65SAPC   H8Y 5373   6.132   3.299   7.750  1.6035  1.4727 -0.3016
   65SAPC   C39 5374   5.982   3.412   7.872  0.2078 -0.0134  0.0514
   65SAPC   H9X 5375   5.912   3.326   7.878 -0.1835  0.1973 -1.1494
   65SAPC   H9Y 5376   5.922   3.506   7.862  1.4050  0.7630  0.0153
   65SAPC  C310 5377   6.053   3.409   8.008 -0.4387  0.6656  0.0510
   65SAPC  H10X 5378   6.007   3.483   8.077  0.1084 -0.0572  1.2321
   65SAPC  H10Y 5379   6.159   3.444   8.006 -0.2423  0.0485 -0.5608
   65SAPC  C311 5380   6.030   3.270   8.076 -0.2846  0.6223 -0.5971
   65SAPC  H11X 5381   6.077   3.194   8.010 -0.7304  0.8366 -1.1678
   65SAPC  H11Y 5382   5.924   3.237   8.072 -0.1838  0.2453 -0.2389
   65SAPC  C312 5383   6.088   3.266   8.218  0.1080  0.6076  0.5311
   65SAPC  H12X 5384   5.996   3.277   8.279 -0.9778  0.9160 -1.1147
   65SAPC  H12Y 5385   6.152   3.356   8.234 -0.7461  1.1894  0.7039
   65SAPC  C313 5386   6.172   3.148   8.255  0.2136  0.4821  0.0089
   65SAPC  H13X 5387   6.255   3.138   8.182  1.6270  0.5324  1.5310
   65SAPC  H13Y 5388   6.119   3.050   8.246  0.3678  0.4085 -0.1110
   65SAPC  C314 5389   6.227   3.164   8.402  0.3417  0.2258  0.5206
   65SAPC  H14X 5390   6.142   3.166   8.474  1.0379  0.8057  1.3386
   65SAPC  H14Y 5391   6.278   3.262   8.410  0.5992  0.1178  0.2219
   65SAPC  C315 5392   6.316   3.048   8.453 -0.7837  0.0583  0.0716
   65SAPC  H15X 5393   6.381   3.025   8.366 -0.9914  1.6648 -0.5556
   65SAPC  H15Y 5394   6.263   2.954   8.479 -3.1929  0.5650 -2.4130
   65SAPC  C316 5395   6.403   3.088   8.579 -0.0816 -0.1102  0.1305
   65SAPC  H16X 5396   6.346   3.135   8.662  0.8284 -1.2387  1.4498
   65SAPC  H16Y 5397   6.482   3.157   8.543  1.0530 -1.3185  0.2538
   65SAPC  C317 5398   6.481   2.962   8.626 -0.0510 -0.6332 -0.5072
   65SAPC  H17X 5399   6.522   2.913   8.535 -0.1036 -3.2711  0.7945
   65SAPC  H17Y 5400   6.401   2.888   8.648  0.7064 -1.3487 -0.1302
   65SAPC  C318 5401   6.590   2.972   8.728 -0.0732 -0.0042  0.0438
   65SAPC  H18X 5402   6.666   2.892   8.729  0.6507  0.6643  1.9794
   65SAPC  H18Y 5403   6.558   2.978   8.834  2.1685  1.1141  0.7317
   65SAPC  H18Z 5404   6.643   3.069   8.712 -0.1781  0.3347  1.6318
   66SAPC     N 5405   1.604   2.050   6.079 -0.1248 -0.2381 -0.0572
   66SAPC   C12 5406   1.689   1.995   6.186 -0.2849 -0.7194  0.3957
   66SAPC  H12A 5407   1.718   1.894   6.162 -0.1961 -0.6087  0.0436
   66SAPC  H12B 5408   1.632   1.997   6.278 -0.6745 -0.4680  0.1508
   66SAPC   C13 5409   1.498   1.943   6.047  0.9763  0.0618 -0.2499
   66SAPC  H13A 5410   1.406   1.950   6.103  1.1952 -0.0760  0.1250
   66SAPC  H13B 5411   1.457   1.960   5.948 -0.3780  0.1636  0.3134
   66SAPC  H13C 5412   1.533   1.841   6.047  2.2939  0.4029 -3.0528
   66SAPC   C14 5413   1.525   2.168   6.117 -0.8821 -0.3364  0.0890
   66SAPC  H14A 5414   1.465   2.151   6.205 -0.3097 -0.9887  0.3641
   66SAPC  H14B 5415   1.594   2.251   6.127 -1.5283  0.2297 -0.0871
   66SAPC  H14C 5416   1.462   2.200   6.035 -2.3717 -0.8545  0.9817
   66SAPC   C15 5417   1.672   2.085   5.946  0.2969  0.6168 -0.4413
   66SAPC  H15A 5418   1.710   2.186   5.953  2.8873 -0.1330 -2.3048
   66SAPC  H15B 5419   1.751   2.015   5.924  2.5239  1.5112  3.6469
   66SAPC  H15C 5420   1.588   2.077   5.878 -0.2135  2.1636 -0.0344
   66SAPC   C11 5421   1.816   2.080   6.212 -0.1746  0.3266  0.4787
   66SAPC  H11A 5422   1.864   2.076   6.312  1.7601  0.9800 -0.3840
   66SAPC  H11B 5423   1.788   2.188   6.213 -0.7444  0.1873  1.6761
   66SAPC     P 5424   1.977   1.918   6.083 -0.3760 -0.2836  0.1229
   66SAPC   O13 5425   1.868   1.830   6.058  0.4557 -0.2252  0.2288
   66SAPC   O14 5426   2.083   1.931   5.979  0.5013  0.6131  0.6234
   66SAPC   O12 5427   1.919   2.063   6.113  0.7451  0.0530 -0.3813
   66SAPC   O11 5428   2.038   1.876   6.224 -0.0278  0.1325 -0.0699
   66SAPC    C1 5429   2.120   1.977   6.296  0.5037  0.3628 -0.2416
   66SAPC    HA 5430   2.146   2.066   6.236 -0.7943  1.1952  0.3778
   66SAPC    HB 5431   2.059   2.030   6.372 -0.6560  0.6811 -1.3543
   66SAPC    C2 5432   2.250   1.911   6.351 -0.4204  0.3116 -0.3526
   66SAPC    HS 5433   2.279   1.825   6.288  0.2727  0.1065  0.2296
   66SAPC   O21 5434   2.217   1.863   6.486  0.3285 -0.1103  0.3763
   66SAPC   C21 5435   2.303   1.779   6.534  0.2038  0.3889 -0.5336
   66SAPC   O22 5436   2.399   1.736   6.483 -0.0584  0.5638 -0.1997
   66SAPC   C22 5437   2.253   1.742   6.676 -1.1229  0.1222 -0.6069
   66SAPC   H2R 5438   2.210   1.835   6.718  0.5449  0.2604  0.9293
   66SAPC   H2S 5439   2.162   1.678   6.668 -0.9552 -0.0884 -0.8549
   66SAPC    C3 5440   2.368   2.014   6.351 -0.0396 -0.1835 -0.0027
   66SAPC    HX 5441   2.375   2.054   6.248  2.0660  0.7377  0.4555
   66SAPC    HY 5442   2.462   1.961   6.377 -0.9426 -1.6875  0.3233
   66SAPC   O31 5443   2.338   2.124   6.443 -0.3472 -0.0568 -0.1152
   66SAPC   C31 5444   2.435   2.209   6.465  0.6503 -0.1268 -0.0971
   66SAPC   O32 5445   2.547   2.209   6.416 -0.3794 -0.2012 -0.0911
   66SAPC   C32 5446   2.384   2.311   6.566 -0.3991 -0.3375  0.7711
   66SAPC   H2X 5447   2.329   2.254   6.644 -1.2241 -0.1902  0.3093
   66SAPC   H2Y 5448   2.307   2.372   6.515  0.5876  0.0695 -0.2858
   66SAPC   C23 5449   2.358   1.683   6.773 -0.1409  0.1815  0.0111
   66SAPC   H3R 5450   2.420   1.757   6.827  0.9129 -1.0682  0.5647
   66SAPC   H3S 5451   2.421   1.607   6.722 -0.5749 -0.5134  0.4922
   66SAPC   C24 5452   2.285   1.607   6.887 -0.4010 -0.2575 -0.2893
   66SAPC   H4R 5453   2.364   1.561   6.951  0.9072  1.1301 -0.8391
   66SAPC   H4S 5454   2.233   1.520   6.841  0.0492  0.0138 -1.3267
   66SAPC   C25 5455   2.190   1.688   6.968 -0.1308 -0.3314 -0.1843
   66SAPC   H5R 5456   2.109   1.740   6.915 -0.5322  1.2738  1.8556
   66SAPC   C26 5457   2.196   1.704   7.099 -0.2682  1.2449  1.4170
   66SAPC   H6R 5458   2.109   1.753   7.146 -2.5136 -1.4820  0.4056
   66SAPC   C27 5459   2.300   1.651   7.196  0.1712  0.1176 -0.0510
   66SAPC   H7R 5460   2.326   1.730   7.269 -0.5117  0.4638 -0.1777
   66SAPC   H7S 5461   2.397   1.630   7.145 -0.8616  0.1709 -2.1548
   66SAPC   C28 5462   2.258   1.527   7.266  1.1468  0.0687  0.3203
   66SAPC   H8R 5463   2.176   1.477   7.213  0.0710  1.1057  0.9348
   66SAPC   C29 5464   2.318   1.476   7.377  0.1436  0.5124  0.0739
   66SAPC   H9R 5465   2.272   1.383   7.414  0.2606  0.8980  1.2298
   66SAPC  C210 5466   2.438   1.534   7.443 -0.2093 -0.0848  0.3993
   66SAPC  H10R 5467   2.430   1.645   7.447 -0.5818 -0.0661 -0.6720
   66SAPC  H10S 5468   2.526   1.509   7.380  0.7392 -1.3676  2.1550
   66SAPC  C211 5469   2.486   1.484   7.580 -0.2643  0.0342 -0.2932
   66SAPC  H11R 5470   2.415   1.429   7.644  0.6724 -0.2389  0.5241
   66SAPC  C212 5471   2.613   1.493   7.630 -0.0987  0.2440  0.1994
   66SAPC  H12R 5472   2.650   1.454   7.725  1.3610  1.3189  0.1027
   66SAPC  C213 5473   2.724   1.560   7.553 -0.1382 -0.0626 -0.4076
   66SAPC  H13R 5474   2.740   1.662   7.594 -0.7110 -0.4751  0.9013
   66SAPC  H13S 5475   2.697   1.590   7.449  0.7716 -1.2005 -0.9865
   66SAPC  C214 5476   2.861   1.484   7.530  0.8642 -0.1160  0.2927
   66SAPC  H14R 5477   2.947   1.516   7.589  1.1836 -0.4342  0.0076
   66SAPC  C215 5478   2.888   1.410   7.422 -0.0258 -0.2660 -0.0842
   66SAPC  H15R 5479   2.987   1.365   7.408 -0.3826 -1.1923  0.2452
   66SAPC  C216 5480   2.794   1.378   7.308 -0.5994 -0.5505  0.3692
   66SAPC  H16R 5481   2.706   1.446   7.304 -0.7555 -0.7817 -0.2191
   66SAPC  H16S 5482   2.751   1.279   7.333 -1.9687  0.7731  3.8186
   66SAPC  C217 5483   2.866   1.364   7.170  0.2187  0.0314 -0.8576
   66SAPC  H17R 5484   2.796   1.315   7.099  0.6245 -2.2667  0.2660
   66SAPC  H17S 5485   2.953   1.297   7.185  2.2480  2.4679 -0.9028
   66SAPC  C218 5486   2.914   1.496   7.111 -0.6542 -0.4607  0.2256
   66SAPC  H18R 5487   2.952   1.475   7.008  0.3852  0.9789  0.2773
   66SAPC  H18S 5488   3.000   1.519   7.177 -0.6116 -0.3994  0.1505
   66SAPC  C219 5489   2.815   1.609   7.099 -0.8993 -0.3112  0.1907
   66SAPC  H19R 5490   2.870   1.699   7.065  1.1853 -1.1877  1.0980
   66SAPC  H19S 5491   2.779   1.640   7.200  2.1753  0.3706  1.1799
   66SAPC  C220 5492   2.692   1.569   7.013  0.5009  0.4031  0.2373
   66SAPC  H20R 5493   2.626   1.656   7.000 -0.2527  0.0101  1.2789
   66SAPC  H20S 5494   2.629   1.490   7.061 -0.6009 -0.5017 -2.5051
   66SAPC  H20T 5495   2.721   1.539   6.910  0.5452  1.4795 -0.0705
   66SAPC   C33 5496   2.502   2.413   6.609  0.8781  0.3369  0.5271
   66SAPC   H3X 5497   2.542   2.458   6.516 -2.9771  0.4287 -1.3074
   66SAPC   H3Y 5498   2.582   2.361   6.666  0.3023 -1.9138 -0.5892
   66SAPC   C34 5499   2.446   2.523   6.694  0.2632  0.4887 -0.8805
   66SAPC   H4X 5500   2.354   2.571   6.655 -0.9236 -1.2619 -0.3244
   66SAPC   H4Y 5501   2.520   2.605   6.705  4.5718 -3.1180 -0.1469
   66SAPC   C35 5502   2.421   2.486   6.844  0.8633 -0.5503 -1.0887
   66SAPC   H5X 5503   2.384   2.383   6.862 -0.4195  0.2412  1.3173
   66SAPC   H5Y 5504   2.348   2.560   6.883  1.5053 -1.0179  1.1630
   66SAPC   C36 5505   2.555   2.505   6.919 -0.0016 -0.2223  0.4074
   66SAPC   H6X 5506   2.578   2.614   6.912 -0.4772  0.0870  2.6574
   66SAPC   H6Y 5507   2.641   2.466   6.861 -1.0736 -1.3474 -0.4615
   66SAPC   C37 5508   2.547   2.493   7.074 -0.1468 -0.9856  0.1968
   66SAPC   H7X 5509   2.462   2.551   7.115 -0.9007 -2.4939  0.8743
   66SAPC   H7Y 5510   2.643   2.531   7.115 -1.7443  0.1393  3.2509
   66SAPC   C38 5511   2.534   2.358   7.138  0.5301  0.1514  0.2386
   66SAPC   H8X 5512   2.630   2.305   7.157 -0.0689 -0.8551  0.5373
   66SAPC   H8Y 5513   2.470   2.296   7.072  1.0686  1.9855 -2.1020
   66SAPC   C39 5514   2.453   2.368   7.281 -0.5080  0.0542 -0.1772
   66SAPC   H9X 5515   2.424   2.265   7.310  0.9972 -1.2856 -3.0761
   66SAPC   H9Y 5516   2.357   2.423   7.284  0.7765  2.4313  1.3855
   66SAPC  C310 5517   2.547   2.412   7.400  0.8736 -0.4189  0.3688
   66SAPC  H10X 5518   2.545   2.522   7.411 -0.0398 -0.3188 -0.5859
   66SAPC  H10Y 5519   2.652   2.388   7.375  1.1337 -1.1085  2.0357
   66SAPC  C311 5520   2.500   2.352   7.529  0.2177  0.1344 -0.1719
   66SAPC  H11X 5521   2.536   2.248   7.545  1.3032  0.5848  0.4180
   66SAPC  H11Y 5522   2.391   2.351   7.551  0.6419 -1.4462  2.3380
   66SAPC  C312 5523   2.582   2.421   7.644  0.4663  0.1044  0.2276
   66SAPC  H12X 5524   2.603   2.526   7.614  0.3261 -0.4521 -1.9965
   66SAPC  H12Y 5525   2.681   2.371   7.654  0.4115  0.2746  1.7694
   66SAPC  C313 5526   2.507   2.431   7.783 -0.7415  0.2387  0.1683
   66SAPC  H13X 5527   2.485   2.324   7.805  1.0187 -0.7229 -2.3570
   66SAPC  H13Y 5528   2.406   2.476   7.771  0.2385  2.4746 -0.3241
   66SAPC  C314 5529   2.591   2.500   7.893 -0.0807  0.0113  0.0675
   66SAPC  H14X 5530   2.561   2.607   7.891 -3.8758 -0.8942  1.1025
   66SAPC  H14Y 5531   2.699   2.484   7.870  0.6843 -0.0187  3.2274
   66SAPC  C315 5532   2.563   2.445   8.036 -0.4483 -0.0375 -0.3535
   66SAPC  H15X 5533   2.602   2.343   8.053 -0.4714  0.0616  0.3161
   66SAPC  H15Y 5534   2.452   2.440   8.048 -0.3909 -2.2325 -0.3227
   66SAPC  C316 5535   2.625   2.537   8.140  0.4618  0.5249 -0.1353
   66SAPC  H16X 5536   2.609   2.643   8.110  0.4227  0.2214 -1.2198
   66SAPC  H16Y 5537   2.734   2.518   8.126  0.4323  0.2601 -0.0120
   66SAPC  C317 5538   2.594   2.510   8.293  0.7243  0.0108 -0.2192
   66SAPC  H17X 5539   2.614   2.406   8.327 -0.6541  0.2866  1.5679
   66SAPC  H17Y 5540   2.489   2.525   8.325  1.3353  3.3225  0.6321
   66SAPC  C318 5541   2.662   2.618   8.384  0.5369 -0.8751  0.2679
   66SAPC  H18X 5542   2.627   2.722   8.364 -0.2527 -1.0418  0.7024
   66SAPC  H18Y 5543   2.772   2.614   8.374  0.4447 -0.0015 -1.5619
   66SAPC  H18Z 5544   2.639   2.595   8.490 -1.2327  0.2177  0.1664
   67SAPC     N 5545   0.240   4.624   6.235 -0.6269 -0.1070 -0.3839
   67SAPC   C12 5546   0.134   4.687   6.322  0.2315 -0.3314 -0.4054
   67SAPC  H12A 5547   0.154   4.664   6.425  1.2349 -0.5821 -0.6457
   67SAPC  H12B 5548   0.040   4.643   6.295 -0.2847  1.1966 -1.2360
   67SAPC   C13 5549   0.199   4.644   6.095 -0.3774  0.1767  1.0630
   67SAPC  H13A 5550   0.199   4.747   6.062 -2.8642  0.6141  2.2279
   67SAPC  H13B 5551   0.271   4.592   6.032  1.4178  0.3207  2.8754
   67SAPC  H13C 5552   0.100   4.603   6.081 -0.7100  0.5657  2.1842
   67SAPC   C14 5553   0.376   4.675   6.271  0.3680  0.4703 -0.2901
   67SAPC  H14A 5554   0.401   4.662   6.376 -0.2541  0.9053 -0.0845
   67SAPC  H14B 5555   0.450   4.622   6.212  1.2364 -0.9690  1.9301
   67SAPC  H14C 5556   0.383   4.775   6.233  1.2427 -0.0575 -1.5962
   67SAPC   C15 5557   0.248   4.475   6.258  0.5187  0.5433  0.1511
   67SAPC  H15A 5558   0.283   4.441   6.354 -0.7859 -1.1524  0.0668
   67SAPC  H15B 5559   0.148   4.436   6.245  0.3866  0.9178  0.0308
   67SAPC  H15C 5560   0.314   4.432   6.184  0.4757  3.5039 -1.7661
   67SAPC   C11 5561   0.129   4.844   6.323  0.2269 -0.1875  0.5753
   67SAPC  H11A 5562   0.108   4.882   6.221  1.2523 -0.9218  0.0679
   67SAPC  H11B 5563   0.224   4.897   6.348 -1.1741  2.6494  0.2688
   67SAPC     P 5564   0.037   4.909   6.567 -0.1577 -0.3798 -0.3128
   67SAPC   O13 5565   0.132   5.024   6.577 -0.0957  0.5254 -0.4633
   67SAPC   O14 5566  -0.096   4.930   6.634 -0.9532 -0.0997  0.0002
   67SAPC   O12 5567   0.020   4.885   6.408  0.1106 -0.2932 -0.4741
   67SAPC   O11 5568   0.105   4.770   6.607  0.1558  0.0720  0.2870
   67SAPC    C1 5569   0.034   4.665   6.672 -0.3329 -1.2890 -0.0366
   67SAPC    HA 5570  -0.077   4.667   6.672 -0.3812 -2.6728 -0.5329
   67SAPC    HB 5571   0.071   4.572   6.623 -0.1728 -0.6561 -1.1609
   67SAPC    C2 5572   0.077   4.652   6.824 -0.0949 -0.1808  0.3652
   67SAPC    HS 5573   0.045   4.550   6.851 -0.0128 -0.5949 -1.0141
   67SAPC   O21 5574   0.016   4.746   6.915  0.4399 -0.1363  0.5363
   67SAPC   C21 5575  -0.114   4.719   6.931  0.5041 -0.1394 -0.0604
   67SAPC   O22 5576  -0.183   4.631   6.880  0.1477  0.0982 -0.2268
   67SAPC   C22 5577  -0.170   4.834   7.024  0.4186 -0.3430  0.2246
   67SAPC   H2R 5578  -0.133   4.930   6.983 -2.6771  0.0192 -2.0982
   67SAPC   H2S 5579  -0.279   4.843   7.007  0.4972  0.7943  0.2683
   67SAPC    C3 5580   0.229   4.667   6.835 -0.4205 -0.5236 -0.4048
   67SAPC    HX 5581   0.248   4.776   6.851 -0.0301 -0.9366  2.4239
   67SAPC    HY 5582   0.273   4.651   6.733 -0.4935  1.6665 -0.8375
   67SAPC   O31 5583   0.290   4.589   6.942 -0.1088  0.9009  0.0498
   67SAPC   C31 5584   0.381   4.499   6.910  0.4246 -0.6420 -0.0085
   67SAPC   O32 5585   0.441   4.494   6.803 -0.0311  0.3406 -0.8856
   67SAPC   C32 5586   0.407   4.416   7.039 -0.2308  0.3459  0.1002
   67SAPC   H2X 5587   0.308   4.382   7.077 -0.0360 -3.5634 -2.4023
   67SAPC   H2Y 5588   0.452   4.485   7.113 -0.4534 -0.1734  0.7282
   67SAPC   C23 5589  -0.136   4.827   7.176  0.7484  0.4155 -0.0204
   67SAPC   H3R 5590  -0.030   4.858   7.187  0.9202 -0.8135  2.5325
   67SAPC   H3S 5591  -0.141   4.723   7.215  2.5357  0.2649 -0.1363
   67SAPC   C24 5592  -0.243   4.921   7.242  0.4574  0.0300 -0.4378
   67SAPC   H4R 5593  -0.231   5.017   7.187  0.7712 -1.2134 -2.6514
   67SAPC   H4S 5594  -0.207   4.938   7.346  0.3527  0.9495 -0.5435
   67SAPC   C25 5595  -0.390   4.887   7.253  0.0508 -0.4237  0.6153
   67SAPC   H5R 5596  -0.448   4.925   7.168  1.3869 -0.9747 -0.5923
   67SAPC   C26 5597  -0.460   4.822   7.343  0.8261  0.4823  0.1145
   67SAPC   H6R 5598  -0.566   4.812   7.318  0.9006 -0.3933  0.1130
   67SAPC   C27 5599  -0.400   4.765   7.471 -0.2081  0.6822  0.1421
   67SAPC   H7R 5600  -0.309   4.820   7.503  0.4550 -0.5830  0.4774
   67SAPC   H7S 5601  -0.353   4.670   7.437  1.1951  1.9607 -1.6849
   67SAPC   C28 5602  -0.492   4.740   7.587  0.0087  0.5939  1.1129
   67SAPC   H8R 5603  -0.592   4.698   7.568  0.8598 -0.7491 -0.7387
   67SAPC   C29 5604  -0.460   4.765   7.714  0.1443 -0.1939 -0.2305
   67SAPC   H9R 5605  -0.529   4.746   7.797 -0.8000  0.2588 -0.8883
   67SAPC  C210 5606  -0.330   4.801   7.770 -0.1143  0.1335 -0.8292
   67SAPC  H10R 5607  -0.256   4.821   7.689  1.7183  0.3041  0.8092
   67SAPC  H10S 5608  -0.292   4.708   7.817 -0.4246  0.4254  0.0076
   67SAPC  C211 5609  -0.344   4.911   7.876 -0.2126  0.3072 -0.4819
   67SAPC  H11R 5610  -0.374   5.009   7.835 -1.4146  0.0549 -0.2367
   67SAPC  C212 5611  -0.333   4.904   8.009 -0.0196  0.2659 -0.4240
   67SAPC  H12R 5612  -0.351   4.992   8.072  0.2138 -0.9621  1.4035
   67SAPC  C213 5613  -0.301   4.778   8.088 -0.1442 -0.2276 -0.1797
   67SAPC  H13R 5614  -0.235   4.710   8.029 -1.2360  0.0004 -1.7421
   67SAPC  H13S 5615  -0.391   4.721   8.120  0.6903 -2.0880 -1.0217
   67SAPC  C214 5616  -0.238   4.833   8.217  0.8510  0.2984 -0.1520
   67SAPC  H14R 5617  -0.130   4.848   8.207  0.8019  0.4078 -0.5519
   67SAPC  C215 5618  -0.303   4.860   8.336 -0.2847  0.5448  0.0086
   67SAPC  H15R 5619  -0.245   4.888   8.425 -1.3366 -1.1810  1.3019
   67SAPC  C216 5620  -0.447   4.825   8.377 -0.1532 -0.1060 -0.3744
   67SAPC  H16R 5621  -0.492   4.777   8.288 -0.2835 -0.9727  0.1528
   67SAPC  H16S 5622  -0.504   4.920   8.390 -1.3575 -1.0710  1.8894
   67SAPC  C217 5623  -0.469   4.734   8.492  0.6012  0.6077  0.7823
   67SAPC  H17R 5624  -0.424   4.634   8.471  1.5871  1.2320 -0.1989
   67SAPC  H17S 5625  -0.578   4.723   8.513  0.5950  1.9848  1.5606
   67SAPC  C218 5626  -0.413   4.767   8.629 -0.4368  0.2214 -0.1494
   67SAPC  H18R 5627  -0.302   4.764   8.621 -0.4228 -1.9172  0.2561
   67SAPC  H18S 5628  -0.448   4.683   8.692  1.2154 -1.0028 -0.7877
   67SAPC  C219 5629  -0.472   4.902   8.681 -0.1117 -0.0571  0.2668
   67SAPC  H19R 5630  -0.583   4.892   8.677 -0.4095  1.8559  2.0188
   67SAPC  H19S 5631  -0.456   4.987   8.611 -2.8678 -0.1704 -0.6560
   67SAPC  C220 5632  -0.429   4.934   8.816 -0.2988 -0.5108 -0.1712
   67SAPC  H20R 5633  -0.493   5.017   8.851 -0.3502 -0.3221 -0.7019
   67SAPC  H20S 5634  -0.323   4.960   8.832 -1.0838  1.9107  1.6455
   67SAPC  H20T 5635  -0.447   4.848   8.884 -1.5765 -1.1065 -1.2106
   67SAPC   C33 5636   0.509   4.305   7.032 -0.3351 -0.3451  0.7661
   67SAPC   H3X 5637   0.596   4.338   6.972 -1.0833  1.1569  0.4503
   67SAPC   H3Y 5638   0.471   4.215   6.978  1.1681 -1.4588  1.5067
   67SAPC   C34 5639   0.545   4.247   7.163  1.0486 -0.7471  0.3725
   67SAPC   H4X 5640   0.605   4.331   7.204 -0.7282  1.2449 -0.8860
   67SAPC   H4Y 5641   0.600   4.152   7.147  2.1672 -0.1582  0.6180
   67SAPC   C35 5642   0.421   4.223   7.257  0.8264  0.7425  0.0641
   67SAPC   H5X 5643   0.346   4.150   7.219  0.8308  0.8244 -0.1013
   67SAPC   H5Y 5644   0.371   4.317   7.287 -1.3309 -0.3746  0.1596
   67SAPC   C36 5645   0.468   4.161   7.387 -0.4121  0.3738  0.5870
   67SAPC   H6X 5646   0.556   4.213   7.431 -1.3911  1.6577  1.0734
   67SAPC   H6Y 5647   0.496   4.054   7.375 -2.2261 -0.2160  1.3934
   67SAPC   C37 5648   0.372   4.175   7.505 -0.4477 -0.1536  0.0874
   67SAPC   H7X 5649   0.267   4.144   7.487 -1.0263 -0.2385  3.0659
   67SAPC   H7Y 5650   0.371   4.280   7.541  3.0902  1.0867 -2.8622
   67SAPC   C38 5651   0.427   4.097   7.627  0.3743 -0.0597  0.3698
   67SAPC   H8X 5652   0.525   4.139   7.659  0.7895  0.6457 -1.6655
   67SAPC   H8Y 5653   0.440   3.989   7.607 -1.8709 -0.2322 -0.4258
   67SAPC   C39 5654   0.322   4.104   7.744  0.3098  0.3597 -1.3725
   67SAPC   H9X 5655   0.223   4.063   7.715 -1.1420  1.3853  1.7908
   67SAPC   H9Y 5656   0.304   4.209   7.774  1.8362 -0.1740  1.8234
   67SAPC  C310 5657   0.370   4.025   7.870  0.3688 -0.5412 -0.1984
   67SAPC  H10X 5658   0.459   4.071   7.919  0.5383  1.1310 -1.9498
   67SAPC  H10Y 5659   0.403   3.923   7.843  1.0939 -0.9314  1.9516
   67SAPC  C311 5660   0.251   4.013   7.975  0.1089 -0.1874 -0.1813
   67SAPC  H11X 5661   0.169   3.947   7.940  1.5300 -2.3343  0.3304
   67SAPC  H11Y 5662   0.215   4.117   7.987 -1.0106 -0.4475 -1.1548
   67SAPC  C312 5663   0.291   3.951   8.108 -0.1805 -0.0866  0.6189
   67SAPC  H12X 5664   0.386   3.996   8.143  0.2059 -1.8377  1.9143
   67SAPC  H12Y 5665   0.308   3.843   8.093  0.5033 -0.2376  2.3023
   67SAPC  C313 5666   0.183   3.966   8.221 -1.0247 -0.0797  0.1924
   67SAPC  H13X 5667   0.095   3.900   8.207 -0.9642 -0.2951  0.8092
   67SAPC  H13Y 5668   0.136   4.066   8.234  0.2650  0.8924 -2.0189
   67SAPC  C314 5669   0.238   3.919   8.356 -0.3754 -0.2528  0.4666
   67SAPC  H14X 5670   0.312   3.839   8.332  0.6416  0.5921  0.6954
   67SAPC  H14Y 5671   0.154   3.865   8.404 -0.6242  0.0524  0.3711
   67SAPC  C315 5672   0.292   4.034   8.436  0.3238  0.8261 -0.1984
   67SAPC  H15X 5673   0.207   4.104   8.452 -0.2850  0.8402 -3.0951
   67SAPC  H15Y 5674   0.373   4.095   8.391  0.1640  0.8584 -0.4401
   67SAPC  C316 5675   0.357   3.994   8.577  0.3394 -0.0301  0.1390
   67SAPC  H16X 5676   0.461   3.965   8.553 -0.2824 -1.0877 -1.4372
   67SAPC  H16Y 5677   0.293   3.906   8.605  1.1319 -0.7677 -0.3284
   67SAPC  C317 5678   0.362   4.104   8.684 -0.3170 -0.3528  0.0362
   67SAPC  H17X 5679   0.260   4.143   8.705  0.0120  1.0021 -0.8030
   67SAPC  H17Y 5680   0.418   4.181   8.628 -0.8557 -1.0675 -1.5675
   67SAPC  C318 5681   0.435   4.055   8.811  0.2875  0.5603 -0.4769
   67SAPC  H18X 5682   0.535   4.011   8.787 -0.1533 -0.1143 -1.1254
   67SAPC  H18Y 5683   0.367   3.985   8.864  0.2924 -0.4914 -1.7959
   67SAPC  H18Z 5684   0.441   4.147   8.874  1.2335 -1.4245  2.5516
   68SAPC     N 5685   3.603   3.512   5.817  0.0896  0.2545  0.3661
   68SAPC   C12 5686   3.651   3.521   5.962  0.9581  0.5805  0.3219
   68SAPC  H12A 5687   3.581   3.479   6.033  1.2311 -1.4393 -0.5146
   68SAPC  H12B 5688   3.654   3.625   5.991  0.1693  0.6015  0.3557
   68SAPC   C13 5689   3.482   3.604   5.791  0.1151  0.7122 -0.0333
   68SAPC  H13A 5690   3.433   3.599   5.695 -1.1409 -3.0633  0.6201
   68SAPC  H13B 5691   3.410   3.568   5.864 -0.1606 -0.5776 -0.9063
   68SAPC  H13C 5692   3.498   3.709   5.810 -0.3094  1.1648 -1.9805
   68SAPC   C14 5693   3.708   3.551   5.724 -0.2266 -0.4293  0.1032
   68SAPC  H14A 5694   3.741   3.654   5.723  1.4685 -0.9537 -0.1186
   68SAPC  H14B 5695   3.798   3.496   5.747  0.3504  0.7329  0.6908
   68SAPC  H14C 5696   3.666   3.525   5.628  0.0771  0.8119 -0.3847
   68SAPC   C15 5697   3.571   3.371   5.784 -0.1296 -0.1834 -0.5947
   68SAPC  H15A 5698   3.500   3.336   5.857  0.1413 -1.6635 -1.0069
   68SAPC  H15B 5699   3.537   3.350   5.683  1.8102  1.2291 -1.6159
   68SAPC  H15C 5700   3.659   3.312   5.807  1.2679  1.8091 -0.5843
   68SAPC   C11 5701   3.787   3.454   5.999  0.0985 -0.1130 -0.0795
   68SAPC  H11A 5702   3.819   3.484   6.101 -0.4359 -1.6238  0.5549
   68SAPC  H11B 5703   3.863   3.490   5.926  0.3286 -0.4312  0.0034
   68SAPC     P 5704   3.698   3.242   6.105  0.5234 -0.4898 -0.2321
   68SAPC   O13 5705   3.556   3.229   6.057 -0.1515  0.0644  0.0738
   68SAPC   O14 5706   3.764   3.114   6.131  0.3963 -0.2467  0.1626
   68SAPC   O12 5707   3.781   3.315   5.990  0.3064 -0.5933 -0.4224
   68SAPC   O11 5708   3.684   3.335   6.237 -0.1829  0.0811 -0.1959
   68SAPC    C1 5709   3.786   3.331   6.335 -0.0789 -0.0719  0.2457
   68SAPC    HA 5710   3.885   3.312   6.289 -1.1550  1.2410 -2.8804
   68SAPC    HB 5711   3.808   3.429   6.383  1.1144  0.5261 -1.4317
   68SAPC    C2 5712   3.753   3.218   6.441  0.2350 -0.4648 -0.3765
   68SAPC    HS 5713   3.750   3.119   6.390  1.5537 -0.9727  0.4787
   68SAPC   O21 5714   3.637   3.258   6.515 -0.4636  0.3533  0.1785
   68SAPC   C21 5715   3.553   3.159   6.541 -0.2446  0.1294 -0.6423
   68SAPC   O22 5716   3.551   3.045   6.493  0.0029  0.4345  0.1520
   68SAPC   C22 5717   3.459   3.204   6.653  0.3689 -0.2871  0.0637
   68SAPC   H2R 5718   3.503   3.276   6.725 -3.2358  2.6424 -0.3512
   68SAPC   H2S 5719   3.376   3.262   6.607  1.6853  0.6871 -1.1407
   68SAPC    C3 5720   3.874   3.204   6.533  0.3652  0.6791  0.0993
   68SAPC    HX 5721   3.860   3.301   6.586 -3.0284 -1.0330  2.8198
   68SAPC    HY 5722   3.971   3.189   6.481  0.1497  0.4368 -0.2403
   68SAPC   O31 5723   3.836   3.100   6.625 -0.4849  0.2127  0.3676
   68SAPC   C31 5724   3.918   3.071   6.711 -0.1712 -0.3660  0.2321
   68SAPC   O32 5725   4.026   3.124   6.743 -0.0658  0.0612 -0.1874
   68SAPC   C32 5726   3.857   2.953   6.781 -0.3260 -0.0992 -1.1643
   68SAPC   H2X 5727   3.838   2.867   6.713  1.7610 -2.1983  0.7459
   68SAPC   H2Y 5728   3.755   2.981   6.815 -0.5002  0.4656 -2.1099
   68SAPC   C23 5729   3.405   3.085   6.733  0.4014 -0.3725  0.0111
   68SAPC   H3R 5730   3.487   3.042   6.795  2.3043  1.4528 -1.1108
   68SAPC   H3S 5731   3.356   3.017   6.660 -1.6787  0.8780  0.1886
   68SAPC   C24 5732   3.288   3.143   6.821 -0.0361  0.1510 -0.5242
   68SAPC   H4R 5733   3.242   3.054   6.869 -1.3955  0.1209 -1.8040
   68SAPC   H4S 5734   3.208   3.183   6.755 -1.8048 -0.6022  1.0699
   68SAPC   C25 5735   3.323   3.239   6.927 -0.3388 -0.9056 -0.5759
   68SAPC   H5R 5736   3.275   3.337   6.914  0.3910 -0.4609  0.0156
   68SAPC   C26 5737   3.369   3.203   7.045 -0.1847  0.5787  0.0292
   68SAPC   H6R 5738   3.410   3.280   7.113  0.0131 -1.7213  2.6685
   68SAPC   C27 5739   3.402   3.059   7.093  0.2679 -0.1202  0.5564
   68SAPC   H7R 5740   3.395   2.992   7.005  3.2220 -2.0991  1.6808
   68SAPC   H7S 5741   3.320   3.039   7.165  0.7663 -2.3104  0.5779
   68SAPC   C28 5742   3.531   3.025   7.161 -0.4008  0.2217  0.0302
   68SAPC   H8R 5743   3.622   3.059   7.108 -0.6376  0.5317 -0.1757
   68SAPC   C29 5744   3.550   2.956   7.274 -0.5152 -0.2942 -0.2073
   68SAPC   H9R 5745   3.650   2.929   7.312 -0.9402  0.0296  1.2024
   68SAPC  C210 5746   3.447   2.900   7.367 -0.2069  0.1621  0.2999
   68SAPC  H10R 5747   3.486   2.805   7.409  0.1396 -0.1426 -0.6847
   68SAPC  H10S 5748   3.350   2.864   7.328 -0.3020 -0.0151  0.6892
   68SAPC  C211 5749   3.433   3.007   7.477 -0.2785  0.5345 -0.6999
   68SAPC  H11R 5750   3.356   3.082   7.455 -0.5685  0.0881 -1.2401
   68SAPC  C212 5751   3.501   3.011   7.597 -0.7477 -0.3145  0.5956
   68SAPC  H12R 5752   3.481   3.097   7.662  0.3663 -0.2023  0.8006
   68SAPC  C213 5753   3.596   2.905   7.638  0.0588  0.5084  0.1194
   68SAPC  H13R 5754   3.691   2.919   7.581 -1.4223 -1.4276 -3.1190
   68SAPC  H13S 5755   3.552   2.811   7.597 -0.4683  0.4378  0.8330
   68SAPC  C214 5756   3.604   2.900   7.785 -0.0635 -0.5275 -0.2680
   68SAPC  H14R 5757   3.644   2.988   7.837 -0.3481 -1.7244  2.1316
   68SAPC  C215 5758   3.567   2.800   7.868  0.2832  0.0514 -0.1947
   68SAPC  H15R 5759   3.570   2.804   7.978  4.3131 -0.4216 -0.1394
   68SAPC  C216 5760   3.507   2.670   7.822  0.3895 -0.2104  1.0176
   68SAPC  H16R 5761   3.591   2.599   7.836  0.0727 -1.1106 -1.1849
   68SAPC  H16S 5762   3.479   2.668   7.715  0.0826 -2.9728  1.0682
   68SAPC  C217 5763   3.375   2.619   7.887 -0.3827 -0.2292  0.5329
   68SAPC  H17R 5764   3.337   2.545   7.813  0.5490  0.8985 -1.1199
   68SAPC  H17S 5765   3.299   2.699   7.895  1.3800  1.7328 -1.0353
   68SAPC  C218 5766   3.382   2.523   8.011  0.5484  0.0676  0.0472
   68SAPC  H18R 5767   3.279   2.520   8.052  0.6909  0.0632  0.4037
   68SAPC  H18S 5768   3.452   2.575   8.080 -0.5199 -0.8052  1.8451
   68SAPC  C219 5769   3.438   2.388   7.986  0.7364 -0.2652  0.5353
   68SAPC  H19R 5770   3.539   2.394   7.941  0.9197  0.5299  1.0311
   68SAPC  H19S 5771   3.376   2.351   7.901 -0.4682  1.6184  0.5225
   68SAPC  C220 5772   3.433   2.302   8.115  0.0039  0.3144 -1.4009
   68SAPC  H20R 5773   3.465   2.197   8.095 -1.2890 -0.3899 -0.0077
   68SAPC  H20S 5774   3.329   2.297   8.154  0.2009 -0.2710 -0.9303
   68SAPC  H20T 5775   3.500   2.333   8.198  0.0064 -3.8426  0.4258
   68SAPC   C33 5776   3.946   2.902   6.895 -0.0031 -0.4933 -0.5603
   68SAPC   H3X 5777   3.984   2.988   6.954  1.1378 -2.1241  1.1931
   68SAPC   H3Y 5778   4.038   2.861   6.847  0.9561  2.3002 -1.2930
   68SAPC   C34 5779   3.881   2.807   6.992  0.2838 -0.1699  0.0345
   68SAPC   H4X 5780   3.874   2.705   6.949 -0.5900 -0.0119 -0.2083
   68SAPC   H4Y 5781   3.777   2.845   6.989 -0.1777 -1.4304 -1.0400
   68SAPC   C35 5782   3.942   2.822   7.130  0.2123  1.0449 -0.4498
   68SAPC   H5X 5783   3.910   2.916   7.180 -0.6055  1.3434 -1.5020
   68SAPC   H5Y 5784   4.053   2.823   7.138  0.2228  0.0929 -0.3600
   68SAPC   C36 5785   3.883   2.712   7.227 -0.1502 -0.6362 -0.0364
   68SAPC   H6X 5786   3.886   2.612   7.178 -2.4875 -0.8082  0.0759
   68SAPC   H6Y 5787   3.775   2.732   7.245 -0.0378  1.8652 -1.6782
   68SAPC   C37 5788   3.949   2.731   7.363 -0.1656  0.8320 -0.6418
   68SAPC   H7X 5789   3.932   2.838   7.392  0.5552  1.1169 -1.2328
   68SAPC   H7Y 5790   4.059   2.721   7.377 -0.2852  1.0181  0.5592
   68SAPC   C38 5791   3.877   2.641   7.469 -0.8188  0.2544 -0.2376
   68SAPC   H8X 5792   3.887   2.537   7.431 -2.2843 -1.1929  2.9025
   68SAPC   H8Y 5793   3.770   2.672   7.468 -0.7501  0.4743 -0.5022
   68SAPC   C39 5794   3.928   2.663   7.613  0.1781  0.6121  0.1240
   68SAPC   H9X 5795   3.900   2.766   7.645  2.4514  2.0236 -2.0318
   68SAPC   H9Y 5796   4.036   2.645   7.629 -0.1317 -1.2463  0.3317
   68SAPC  C310 5797   3.842   2.568   7.705  0.0634 -0.0079  0.2117
   68SAPC  H10X 5798   3.875   2.472   7.660 -0.1950 -0.8214  1.6880
   68SAPC  H10Y 5799   3.735   2.593   7.686  1.1742  2.9292 -3.4525
   68SAPC  C311 5800   3.879   2.571   7.855  0.4707 -0.1850  0.2571
   68SAPC  H11X 5801   3.850   2.669   7.899  1.8151  0.6954 -0.7471
   68SAPC  H11Y 5802   3.990   2.572   7.864  0.3629  0.9470  1.9032
   68SAPC  C312 5803   3.835   2.453   7.946 -0.3426  0.7697  0.2544
   68SAPC  H12X 5804   3.869   2.354   7.909 -0.9122  1.1448 -1.3844
   68SAPC  H12Y 5805   3.726   2.437   7.952  0.1833 -3.8676  0.7472
   68SAPC  C313 5806   3.893   2.477   8.088  0.4750 -0.7381  0.1538
   68SAPC  H13X 5807   3.859   2.574   8.129  1.7589 -0.0674 -0.3402
   68SAPC  H13Y 5808   4.003   2.481   8.077  0.3765  0.7691 -0.5012
   68SAPC  C314 5809   3.847   2.369   8.182  0.8674 -0.0424 -0.0381
   68SAPC  H14X 5810   3.891   2.269   8.164 -0.1575 -0.3359 -1.0498
   68SAPC  H14Y 5811   3.738   2.348   8.179  0.8809 -0.0673 -0.3542
   68SAPC  C315 5812   3.884   2.421   8.324  0.3820  0.6312 -0.1501
   68SAPC  H15X 5813   3.805   2.383   8.392 -0.9239  0.7885 -1.5182
   68SAPC  H15Y 5814   3.871   2.531   8.334 -1.4437  0.2679  2.3741
   68SAPC  C316 5815   4.020   2.375   8.368  0.1027 -0.0372 -0.0612
   68SAPC  H16X 5816   4.099   2.404   8.296 -0.6875 -1.4600 -1.5633
   68SAPC  H16Y 5817   4.020   2.265   8.380  0.9793  0.0906  1.3853
   68SAPC  C317 5818   4.053   2.438   8.506 -0.5991 -0.2739  0.7953
   68SAPC  H17X 5819   4.031   2.546   8.505  1.6749  0.2427  0.9846
   68SAPC  H17Y 5820   4.163   2.424   8.515 -0.2382 -0.7616 -2.7812
   68SAPC  C318 5821   3.982   2.378   8.621  0.0084  0.7651  0.7324
   68SAPC  H18X 5822   4.001   2.269   8.625  1.5869  0.9017 -1.3685
   68SAPC  H18Y 5823   3.873   2.394   8.623  0.2426  3.7289 -1.9888
   68SAPC  H18Z 5824   4.033   2.427   8.707  2.2793 -1.6160  0.8668
   69SLPC     N 5825   0.944   1.676  10.975 -0.1053  0.1881  0.0200
   69SLPC   C13 5826   0.804   1.671  11.033  0.3046 -0.8576  0.6686
   69SLPC  H13A 5827   0.741   1.729  10.968 -0.8305 -2.8937 -0.1237
   69SLPC  H13B 5828   0.772   1.569  11.049 -1.2072 -0.5296 -0.0614
   69SLPC  H13C 5829   0.808   1.722  11.129  0.0489 -0.7760  0.6360
   69SLPC   C14 5830   0.932   1.639  10.826 -0.2854 -0.7443 -0.0050
   69SLPC  H14A 5831   1.025   1.666  10.780  0.0587 -1.8155  0.0256
   69SLPC  H14B 5832   0.925   1.532  10.814 -2.8229 -0.6199 -0.3354
   69SLPC  H14C 5833   0.849   1.684  10.773  1.0596 -0.3229 -1.8220
   69SLPC   C15 5834   1.028   1.567  11.038  0.1394 -0.5899 -0.5530
   69SLPC  H15A 5835   1.128   1.558  10.997  2.1024  2.1009  3.0229
   69SLPC  H15B 5836   1.046   1.575  11.144 -0.5530 -0.2546 -0.4601
   69SLPC  H15C 5837   0.985   1.469  11.022 -2.1590  0.4501 -1.1492
   69SLPC   C12 5838   1.004   1.814  10.984 -0.6292 -0.0397 -0.3008
   69SLPC  H12A 5839   0.932   1.886  10.947  2.6630  3.7095 -0.0960
   69SLPC  H12B 5840   1.090   1.830  10.921 -1.7561  2.5291 -1.3148
   69SLPC   C11 5841   1.049   1.857  11.135 -0.6975 -0.1322  0.0378
   69SLPC  H11A 5842   1.110   1.949  11.124 -1.4828  1.4335  5.6185
   69SLPC  H11B 5843   1.114   1.785  11.190 -1.1248  0.7409  1.7428
   69SLPC     P 5844   0.838   2.021  11.186 -0.4737  0.3595  0.1212
   69SLPC   O13 5845   0.709   1.961  11.190 -0.1063 -0.3392 -0.8073
   69SLPC   O14 5846   0.860   2.140  11.277  0.5488  0.1480  0.6315
   69SLPC   O12 5847   0.945   1.901  11.219  0.2657 -0.3712 -0.1175
   69SLPC   O11 5848   0.871   2.062  11.040  0.5295 -0.4957 -0.5900
   69SLPC    C1 5849   0.798   2.168  10.977 -0.0899 -0.3516 -0.0817
   69SLPC    HA 5850   0.709   2.116  10.935  0.2564 -1.1957  0.1991
   69SLPC    HB 5851   0.782   2.253  11.047 -2.8362  0.2379 -1.2906
   69SLPC    C2 5852   0.868   2.234  10.858 -0.7928  0.5831  0.7872
   69SLPC    HS 5853   0.800   2.312  10.817  2.2284  2.1456 -1.6705
   69SLPC   O21 5854   0.900   2.136  10.754  0.2326 -0.1449 -0.0989
   69SLPC   C21 5855   0.808   2.112  10.672  0.1845  0.1025 -0.1788
   69SLPC   O22 5856   0.700   2.169  10.664  0.0880 -0.2129  0.2378
   69SLPC   C22 5857   0.847   2.004  10.569  0.7288 -0.4886 -0.3355
   69SLPC   H2R 5858   0.841   1.904  10.617 -0.9254 -0.1086  0.3125
   69SLPC   H2S 5859   0.769   2.014  10.490  2.7501 -0.5716 -2.4302
   69SLPC    C3 5860   0.997   2.300  10.903 -0.4857  0.0569  0.1498
   69SLPC    HX 5861   1.067   2.221  10.939  2.4482  2.3164 -0.2359
   69SLPC    HY 5862   0.974   2.371  10.985  0.2693  1.4101 -0.7709
   69SLPC   O31 5863   1.052   2.365  10.788 -0.5769 -0.7570  0.3628
   69SLPC   C31 5864   1.043   2.500  10.786 -0.0440 -0.2167 -0.0639
   69SLPC   O32 5865   1.007   2.562  10.888 -0.0273 -0.6451  0.3780
   69SLPC   C32 5866   1.102   2.551  10.659  1.0045  0.1777 -0.6577
   69SLPC   H2X 5867   1.193   2.495  10.630  1.0590  1.1769 -2.5884
   69SLPC   H2Y 5868   1.131   2.657  10.676 -1.1248  0.9915 -1.6588
   69SLPC   C23 5869   0.988   2.034  10.511  1.3991 -0.2730  0.3544
   69SLPC   H3R 5870   1.063   2.044  10.593 -0.9717  0.1779  2.5978
   69SLPC   H3S 5871   1.002   2.124  10.447  1.1100 -1.0885 -0.8923
   69SLPC   C24 5872   1.030   1.912  10.427 -0.4641  0.4171  0.3372
   69SLPC   H4R 5873   0.986   1.824  10.477 -1.8498  1.1502  0.4572
   69SLPC   H4S 5874   1.140   1.904  10.440 -0.4014  1.4621  0.5303
   69SLPC   C25 5875   0.991   1.928  10.275  0.2389  0.2418  0.3280
   69SLPC   H5R 5876   1.061   2.006  10.240 -0.3835  0.8868  0.4950
   69SLPC   H5S 5877   0.887   1.968  10.272  0.1026  0.0086  1.6162
   69SLPC   C26 5878   0.996   1.800  10.188  0.8569 -0.1620 -0.1792
   69SLPC   H6R 5879   1.074   1.732  10.227  0.4929  0.0766  1.0101
   69SLPC   H6S 5880   1.003   1.812  10.078  2.2975 -0.5510 -0.1508
   69SLPC   C27 5881   0.861   1.728  10.201 -0.5087  0.5621 -0.0156
   69SLPC   H7R 5882   0.778   1.796  10.229 -1.9810 -1.3056  0.3960
   69SLPC   H7S 5883   0.877   1.677  10.298  1.9274  1.8044  0.3043
   69SLPC   C28 5884   0.839   1.616  10.095  0.6870 -0.2494 -0.5096
   69SLPC   H8R 5885   0.806   1.530  10.157  0.0231  0.5012  0.2076
   69SLPC   H8S 5886   0.939   1.589  10.055  0.5361 -0.1014 -0.9954
   69SLPC   C29 5887   0.734   1.653   9.988  0.2805  0.1227 -0.1029
   69SLPC   H9R 5888   0.655   1.719  10.025  0.7522  1.5028 -1.4623
   69SLPC  C210 5889   0.734   1.618   9.856  0.6733 -0.3605  0.2952
   69SLPC  H10R 5890   0.651   1.637   9.786  0.9552 -1.3629 -0.3414
   69SLPC  C211 5891   0.847   1.543   9.791  0.3031  0.0752 -0.2163
   69SLPC  H11R 5892   0.814   1.438   9.769  4.0881 -1.7458  1.8711
   69SLPC  H11S 5893   0.922   1.503   9.862 -0.5900 -0.3664  0.5023
   69SLPC  C212 5894   0.925   1.598   9.677  0.8613  0.5916  0.1919
   69SLPC  H12R 5895   1.018   1.642   9.715  1.3791 -0.9444  0.7958
   69SLPC  C213 5896   0.884   1.627   9.558 -0.0932  0.4094  0.2158
   69SLPC  H13R 5897   0.965   1.647   9.487 -0.4914  0.9869 -0.0822
   69SLPC  C214 5898   0.745   1.607   9.498  1.1613 -0.1641 -0.4395
   69SLPC  H14R 5899   0.701   1.703   9.465  1.9138  0.8842  1.4556
   69SLPC  H14S 5900   0.677   1.562   9.573 -0.4523 -0.2606 -1.8879
   69SLPC  C215 5901   0.747   1.520   9.376 -0.3794  0.2854 -0.0021
   69SLPC  H15R 5902   0.642   1.491   9.355 -0.0508 -0.9835  0.0089
   69SLPC  H15S 5903   0.799   1.423   9.388 -2.8475 -1.5108 -2.5985
   69SLPC  C216 5904   0.810   1.595   9.256  0.6846 -0.3242 -0.2919
   69SLPC  H16R 5905   0.915   1.615   9.287  0.9730  2.5798 -2.6751
   69SLPC  H16S 5906   0.765   1.697   9.254  1.4027 -0.0111 -1.3549
   69SLPC  C217 5907   0.791   1.522   9.126  0.2078 -0.7196  0.0667
   69SLPC  H17R 5908   0.790   1.601   9.049  1.0278  1.9288  2.5792
   69SLPC  H17S 5909   0.695   1.467   9.125 -0.2104 -0.0130  0.7713
   69SLPC  C218 5910   0.903   1.416   9.099  0.4477  0.0815 -0.4858
   69SLPC  H18R 5911   0.996   1.465   9.136 -1.6088  1.8833  2.7067
   69SLPC  H18S 5912   0.901   1.393   8.991 -1.3492 -0.2485 -0.4147
   69SLPC  H18T 5913   0.885   1.322   9.156 -1.6928  0.3422 -0.6489
   69SLPC   C33 5914   1.000   2.535  10.546  0.6545  0.3230 -0.1196
   69SLPC   H3X 5915   0.903   2.578  10.580 -0.3932 -1.2698 -0.9810
   69SLPC   H3Y 5916   0.986   2.425  10.541 -0.4434  0.4013  0.8218
   69SLPC   C34 5917   1.032   2.600  10.414  0.0828 -0.5906  0.1217
   69SLPC   H4X 5918   0.983   2.542  10.333  0.9594 -0.6410 -0.3840
   69SLPC   H4Y 5919   1.142   2.595  10.399 -0.0389 -0.9338 -0.7238
   69SLPC   C35 5920   0.987   2.743  10.393 -0.1766 -0.3436 -0.0980
   69SLPC   H5X 5921   1.056   2.808  10.452  0.5659 -1.2765  0.0953
   69SLPC   H5Y 5922   0.884   2.762  10.428 -0.2157  0.8186 -0.7899
   69SLPC   C36 5923   0.986   2.787  10.246 -0.1886 -0.3123  0.1702
   69SLPC   H6X 5924   0.895   2.760  10.188  0.3636 -1.8081 -0.0411
   69SLPC   H6Y 5925   1.069   2.727  10.203  0.1543 -0.8578  1.5450
   69SLPC   C37 5926   1.013   2.937  10.224  0.1496 -0.2592  0.1175
   69SLPC   H7X 5927   1.119   2.953  10.255 -0.4623  0.6303  1.8565
   69SLPC   H7Y 5928   0.945   2.997  10.287  2.5382  2.1325  0.5649
   69SLPC   C38 5929   0.997   2.976  10.076 -0.4328  0.5148 -0.6333
   69SLPC   H8X 5930   1.031   3.081  10.069 -0.0096  0.5768  1.6112
   69SLPC   H8Y 5931   0.886   2.975  10.065 -0.6975 -0.7631  1.5208
   69SLPC   C39 5932   1.056   2.885   9.974  0.5066 -0.6362 -0.1071
   69SLPC   H9X 5933   1.009   2.786   9.992  0.7732 -1.1617 -2.0196
   69SLPC   H9Y 5934   1.166   2.876   9.985  0.4067 -1.9105  0.0453
   69SLPC  C310 5935   1.026   2.932   9.829 -0.2518 -0.3486 -0.5552
   69SLPC  H10X 5936   1.074   3.031   9.813  1.3585 -1.1274 -0.7694
   69SLPC  H10Y 5937   0.918   2.926   9.805  0.3421 -4.3318 -3.2044
   69SLPC  C311 5938   1.088   2.845   9.717  0.8711 -0.9269  0.0830
   69SLPC  H11X 5939   1.037   2.747   9.726 -1.1700  0.1369  0.7250
   69SLPC  H11Y 5940   1.195   2.822   9.735  1.1500 -0.0454 -0.3693
   69SLPC  C312 5941   1.071   2.908   9.572  0.0709 -0.3115  0.4768
   69SLPC  H12X 5942   1.113   3.011   9.576  0.3532 -0.4451  0.9879
   69SLPC  H12Y 5943   0.963   2.929   9.556 -0.3898 -0.5444  2.8921
   69SLPC  C313 5944   1.137   2.817   9.468  0.1549  0.9251  0.2137
   69SLPC  H13X 5945   1.088   2.718   9.480  0.0148  0.6465 -2.1518
   69SLPC  H13Y 5946   1.241   2.809   9.504 -0.2821 -0.5388  1.2871
   69SLPC  C314 5947   1.119   2.838   9.321  0.0029 -0.1196 -0.8425
   69SLPC  H14X 5948   1.020   2.885   9.303  1.0600  3.0501  0.7399
   69SLPC  H14Y 5949   1.123   2.742   9.265 -2.1132 -1.9985  1.9476
   69SLPC  C315 5950   1.222   2.932   9.260 -0.5267 -0.0662  0.0671
   69SLPC  H15X 5951   1.324   2.901   9.292 -0.0015 -1.1130 -2.4038
   69SLPC  H15Y 5952   1.213   3.034   9.302  0.7482 -0.3557  1.1440
   69SLPC  C316 5953   1.227   2.935   9.109  0.4195  0.0950 -0.4544
   69SLPC  H16X 5954   1.122   2.957   9.082 -1.0122 -2.1472  2.6330
   69SLPC  H16Y 5955   1.250   2.834   9.069 -0.4274 -0.7314  1.0252
   69SLPC  C317 5956   1.343   3.028   9.063 -0.9026 -0.3484  0.3096
   69SLPC  H17X 5957   1.434   2.974   9.098  0.3509  0.8173 -1.0685
   69SLPC  H17Y 5958   1.326   3.133   9.097  2.0453  1.5022 -3.2167
   69SLPC  C318 5959   1.342   3.036   8.916 -0.1853  0.1899 -0.2001
   69SLPC  H18X 5960   1.426   3.099   8.880 -2.0369  1.8692 -1.8734
   69SLPC  H18Y 5961   1.250   3.076   8.866 -0.3672  0.3393  0.2510
   69SLPC  H18Z 5962   1.363   2.938   8.869  2.1232 -0.6811  2.4002
   70SLPC     N 5963   1.342   4.933  11.346  0.3215  0.2107 -0.1933
   70SLPC   C13 5964   1.416   5.058  11.302 -0.3084 -0.0657 -0.4235
   70SLPC  H13A 5965   1.470   5.037  11.211  0.3040 -2.2986  0.3832
   70SLPC  H13B 5966   1.356   5.147  11.293 -0.1670  0.0552 -0.1835
   70SLPC  H13C 5967   1.483   5.093  11.380 -0.5312  1.7362 -1.0120
   70SLPC   C14 5968   1.227   4.981  11.423 -0.2513  0.4273 -0.3612
   70SLPC  H14A 5969   1.244   5.017  11.523 -2.5768 -1.3251  0.7624
   70SLPC  H14B 5970   1.177   5.053  11.360  0.9899 -0.2853 -2.2900
   70SLPC  H14C 5971   1.156   4.903  11.447 -1.5092  2.3456  2.6527
   70SLPC   C15 5972   1.431   4.848  11.427 -0.1684 -0.2789 -0.5295
   70SLPC  H15A 5973   1.454   4.894  11.522 -3.4680 -1.7647  1.1537
   70SLPC  H15B 5974   1.379   4.755  11.442 -1.9756  0.6068 -0.9557
   70SLPC  H15C 5975   1.528   4.832  11.383 -0.6262 -2.1432 -0.9282
   70SLPC   C12 5976   1.296   4.855  11.222  0.5121 -0.1292  0.3850
   70SLPC  H12A 5977   1.223   4.912  11.166  1.6681  0.0127 -1.0692
   70SLPC  H12B 5978   1.243   4.766  11.251 -0.9880  0.8620  0.7663
   70SLPC   C11 5979   1.394   4.807  11.122  0.2483  1.1056 -0.6527
   70SLPC  H11A 5980   1.368   4.723  11.054  2.5163  0.3319 -0.6400
   70SLPC  H11B 5981   1.477   4.769  11.186  0.5351  4.6184  1.3096
   70SLPC     P 5982   1.386   4.982  10.930  0.2697 -0.1727 -0.2451
   70SLPC   O13 5983   1.256   5.031  10.981 -0.4614  0.1212  0.3350
   70SLPC   O14 5984   1.478   5.077  10.869 -0.2005 -0.9700  0.0079
   70SLPC   O12 5985   1.464   4.913  11.055  0.0891 -0.0006  0.8240
   70SLPC   O11 5986   1.349   4.865  10.832 -0.3234  0.0379 -0.6580
   70SLPC    C1 5987   1.448   4.777  10.776  0.6082  0.1364  0.7333
   70SLPC    HA 5988   1.535   4.772  10.845  2.4781 -0.2381 -1.5176
   70SLPC    HB 5989   1.405   4.678  10.748  2.0040 -0.1993 -0.3274
   70SLPC    C2 5990   1.502   4.850  10.644 -0.4458  0.9459  0.0413
   70SLPC    HS 5991   1.526   4.954  10.675  0.9976  1.6312 -3.0520
   70SLPC   O21 5992   1.409   4.840  10.534  0.2033 -0.4761 -0.4638
   70SLPC   C21 5993   1.400   4.946  10.461  1.2186 -0.4794 -0.3678
   70SLPC   O22 5994   1.454   5.051  10.487 -0.6606  0.2035  0.9382
   70SLPC   C22 5995   1.334   4.909  10.322 -1.0479 -0.0007 -0.3359
   70SLPC   H2R 5996   1.412   4.858  10.262 -1.0030  0.5959 -0.7971
   70SLPC   H2S 5997   1.255   4.836  10.350  0.5319 -1.5237  0.3493
   70SLPC    C3 5998   1.636   4.801  10.586 -0.2289 -0.2263  0.3550
   70SLPC    HX 5999   1.610   4.706  10.534 -0.8451  0.2632 -0.2549
   70SLPC    HY 6000   1.710   4.772  10.663  1.6210  0.5057 -1.0853
   70SLPC   O31 6001   1.687   4.891  10.488  0.1002 -0.5713  0.0489
   70SLPC   C31 6002   1.770   4.987  10.526 -0.1718 -0.0831 -0.2340
   70SLPC   O32 6003   1.798   5.010  10.641 -0.1387  0.7004  0.2529
   70SLPC   C32 6004   1.837   5.058  10.404  0.0335  0.5530 -0.7709
   70SLPC   H2X 6005   1.925   4.991  10.398 -1.0494 -1.1396  1.0627
   70SLPC   H2Y 6006   1.855   5.160  10.445  2.5963 -0.2589  0.3880
   70SLPC   C23 6007   1.286   5.027  10.237  0.1635 -0.1565 -0.6716
   70SLPC   H3R 6008   1.366   5.068  10.172 -0.6022  0.9860 -0.9432
   70SLPC   H3S 6009   1.248   5.107  10.303  0.4982 -1.0235  0.6023
   70SLPC   C24 6010   1.173   4.987  10.147 -0.2008 -0.1080 -0.4499
   70SLPC   H4R 6011   1.096   5.065  10.129 -1.8090 -1.9920 -2.1364
   70SLPC   H4S 6012   1.107   4.913  10.197 -0.6600  1.0349  0.6746
   70SLPC   C25 6013   1.219   4.918  10.013  0.1818 -0.0962 -1.1702
   70SLPC   H5R 6014   1.321   4.875  10.019 -0.3612 -1.3171  0.1002
   70SLPC   H5S 6015   1.222   5.001   9.940  0.3117  0.0421 -1.0056
   70SLPC   C26 6016   1.127   4.809   9.953  0.5972 -0.1571 -0.3247
   70SLPC   H6R 6017   1.022   4.843   9.944 -0.0588 -2.1854 -0.7725
   70SLPC   H6S 6018   1.124   4.723  10.024  2.0802  0.0771  0.0612
   70SLPC   C27 6019   1.163   4.766   9.807  0.1068  0.2893  0.3462
   70SLPC   H7R 6020   1.255   4.705   9.800  0.2282  0.6283 -1.7603
   70SLPC   H7S 6021   1.187   4.858   9.751 -0.6749  0.4003  0.1732
   70SLPC   C28 6022   1.051   4.692   9.730 -0.1181 -0.6046 -0.4666
   70SLPC   H8R 6023   0.991   4.773   9.683  1.3684  0.8372  0.0484
   70SLPC   H8S 6024   0.994   4.648   9.815  1.4675 -2.0009 -0.0927
   70SLPC   C29 6025   1.097   4.588   9.634 -0.7964  0.6691  0.0112
   70SLPC   H9R 6026   1.157   4.510   9.683 -1.8168  0.0157  0.2587
   70SLPC  C210 6027   1.060   4.582   9.502 -0.2428  0.1926  0.0355
   70SLPC  H10R 6028   1.114   4.509   9.440  3.1451  1.7544  0.9002
   70SLPC  C211 6029   0.969   4.675   9.434 -0.1951 -0.3094 -0.0501
   70SLPC  H11R 6030   0.880   4.680   9.501 -0.3005  1.8672 -0.2953
   70SLPC  H11S 6031   0.900   4.638   9.355 -1.3308 -0.0187  0.7842
   70SLPC  C212 6032   1.026   4.807   9.388 -0.7070  0.0084 -0.0152
   70SLPC  H12R 6033   1.030   4.876   9.474  1.5685 -0.6758  0.4949
   70SLPC  C213 6034   1.105   4.830   9.277  0.7359  0.5998  0.7617
   70SLPC  H13R 6035   1.140   4.932   9.255  0.1859  0.5610 -0.3550
   70SLPC  C214 6036   1.126   4.727   9.165 -0.4950 -0.0410 -0.6549
   70SLPC  H14R 6037   1.048   4.734   9.086 -2.1819 -2.7947  0.5889
   70SLPC  H14S 6038   1.111   4.624   9.206 -0.0332 -0.1645 -0.8003
   70SLPC  C215 6039   1.269   4.733   9.116  0.8408  0.5411  0.3413
   70SLPC  H15R 6040   1.337   4.736   9.204  0.3384 -3.2177  1.0305
   70SLPC  H15S 6041   1.262   4.825   9.054 -0.5686  0.2308  0.0169
   70SLPC  C216 6042   1.315   4.606   9.042  0.3432  0.8308  0.4944
   70SLPC  H16R 6043   1.235   4.572   8.973  1.6676 -0.4563 -0.4840
   70SLPC  H16S 6044   1.318   4.527   9.119 -0.9286 -1.4189 -1.6304
   70SLPC  C217 6045   1.433   4.624   8.954  0.1673 -0.1496  1.4974
   70SLPC  H17R 6046   1.520   4.650   9.018  1.6844  1.0199 -0.8798
   70SLPC  H17S 6047   1.419   4.716   8.893  0.0283 -0.9143  0.3430
   70SLPC  C218 6048   1.446   4.496   8.874 -0.3037  0.6780 -0.1822
   70SLPC  H18R 6049   1.457   4.412   8.945  1.2843 -0.2589 -1.4598
   70SLPC  H18S 6050   1.538   4.499   8.812 -1.3727 -0.1198 -1.8861
   70SLPC  H18T 6051   1.358   4.480   8.809 -1.9580  0.6230  1.9622
   70SLPC   C33 6052   1.754   5.063  10.269 -0.7165 -0.5657 -0.7760
   70SLPC   H3X 6053   1.805   5.134  10.201 -1.3471  0.4605 -0.2003
   70SLPC   H3Y 6054   1.651   5.100  10.290 -0.4480 -0.0111 -0.4335
   70SLPC   C34 6055   1.756   4.934  10.192  0.2592 -0.6675  0.1631
   70SLPC   H4X 6056   1.704   4.855  10.250  2.9280 -1.5321  1.5099
   70SLPC   H4Y 6057   1.861   4.899  10.184 -0.2153 -1.9670 -0.7888
   70SLPC   C35 6058   1.699   4.938  10.045 -0.1463 -0.1154  0.4691
   70SLPC   H5X 6059   1.751   5.008   9.977  0.7789 -0.4040  0.8555
   70SLPC   H5Y 6060   1.591   4.962  10.057  0.3440  1.6569  1.6208
   70SLPC   C36 6061   1.706   4.797   9.982  0.0918  0.6465  0.1803
   70SLPC   H6X 6062   1.680   4.727  10.064  2.2577  1.2224  1.4231
   70SLPC   H6Y 6063   1.808   4.770   9.947 -1.3706 -0.3593 -3.9292
   70SLPC   C37 6064   1.616   4.791   9.859  0.0474  0.1492 -1.5573
   70SLPC   H7X 6065   1.635   4.885   9.803  0.4767  0.9024 -0.2042
   70SLPC   H7Y 6066   1.511   4.803   9.892  1.1240  0.8549  2.0352
   70SLPC   C38 6067   1.644   4.674   9.766  1.0207 -0.3029  0.7328
   70SLPC   H8X 6068   1.631   4.580   9.825  0.6303  0.9923  2.8282
   70SLPC   H8Y 6069   1.753   4.675   9.743  1.3523  0.6663  2.2409
   70SLPC   C39 6070   1.559   4.675   9.642  0.4744  0.2053 -0.0873
   70SLPC   H9X 6071   1.574   4.775   9.596  0.7664  1.4429  2.5243
   70SLPC   H9Y 6072   1.450   4.663   9.664  0.2302 -1.2818 -1.8373
   70SLPC  C310 6073   1.609   4.574   9.535 -0.5328 -0.7251  0.2322
   70SLPC  H10X 6074   1.626   4.474   9.580  1.3638 -0.9279 -0.8105
   70SLPC  H10Y 6075   1.701   4.614   9.487 -0.4331 -1.5099 -0.2487
   70SLPC  C311 6076   1.508   4.555   9.425 -0.3762 -0.6034  0.2334
   70SLPC  H11X 6077   1.507   4.647   9.362 -2.6223  0.9398  2.3316
   70SLPC  H11Y 6078   1.410   4.541   9.476 -1.7528 -1.5803 -2.5035
   70SLPC  C312 6079   1.533   4.435   9.329  0.1547  0.2078  0.1266
   70SLPC  H12X 6080   1.445   4.428   9.263  1.4202 -1.3697 -1.4828
   70SLPC  H12Y 6081   1.521   4.345   9.392 -2.7515 -1.2085 -2.2214
   70SLPC  C313 6082   1.664   4.438   9.247  0.7585 -0.3490  0.2309
   70SLPC  H13X 6083   1.743   4.461   9.321 -0.4941  0.1109  1.4726
   70SLPC  H13Y 6084   1.654   4.528   9.183  1.4341  0.3757  1.1182
   70SLPC  C314 6085   1.687   4.311   9.168 -0.6838  0.6140  0.0751
   70SLPC  H14X 6086   1.601   4.280   9.105 -0.3199 -0.2500 -0.0038
   70SLPC  H14Y 6087   1.718   4.232   9.239 -0.4946  1.1320  0.5733
   70SLPC  C315 6088   1.801   4.323   9.061  0.7466 -0.6061 -0.4897
   70SLPC  H15X 6089   1.894   4.360   9.108  0.1972 -1.5215  1.4167
   70SLPC  H15Y 6090   1.768   4.414   9.007 -0.6571  0.1918  1.5717
   70SLPC  C316 6091   1.807   4.202   8.964  0.0937  0.8787 -0.2361
   70SLPC  H16X 6092   1.707   4.174   8.923 -0.5789  2.6811  0.0987
   70SLPC  H16Y 6093   1.836   4.109   9.017 -1.0024 -0.5019 -1.9204
   70SLPC  C317 6094   1.885   4.226   8.838 -0.1420  0.6732 -0.2970
   70SLPC  H17X 6095   1.992   4.237   8.869  0.6407  0.8023 -2.8054
   70SLPC  H17Y 6096   1.843   4.318   8.792  0.1177 -0.4354 -2.9557
   70SLPC  C318 6097   1.869   4.105   8.740  0.3810 -0.1738  0.0446
   70SLPC  H18X 6098   1.921   4.015   8.779 -0.8674 -0.5403  0.9172
   70SLPC  H18Y 6099   1.920   4.139   8.648  2.1014  1.0442  1.3818
   70SLPC  H18Z 6100   1.763   4.076   8.722  0.6085 -1.1298  0.1922
   71SLPC     N 6101   1.898   3.330  10.513  0.3875  0.3336 -0.3291
   71SLPC   C13 6102   1.978   3.217  10.574 -0.1113  0.3483  0.5259
   71SLPC  H13A 6103   1.921   3.135  10.617  1.4426 -2.3603 -2.1895
   71SLPC  H13B 6104   2.046   3.175  10.502 -0.3742 -3.1485  2.0953
   71SLPC  H13C 6105   2.049   3.253  10.647  0.7704  0.0987 -0.1878
   71SLPC   C14 6106   1.817   3.396  10.623 -0.3492 -0.1709 -0.0741
   71SLPC  H14A 6107   1.884   3.419  10.705 -0.0047  0.9293 -0.6503
   71SLPC  H14B 6108   1.760   3.483  10.594  1.4350  1.3025  0.6137
   71SLPC  H14C 6109   1.745   3.330  10.669  0.7222 -0.5795  1.0963
   71SLPC   C15 6110   1.805   3.291  10.401 -0.1411  0.3023  0.0216
   71SLPC  H15A 6111   1.723   3.227  10.429  0.5655 -0.7779 -0.3471
   71SLPC  H15B 6112   1.763   3.383  10.363  2.8034  1.4581 -0.7656
   71SLPC  H15C 6113   1.856   3.247  10.317  0.8423  1.6451 -0.1226
   71SLPC   C12 6114   1.995   3.441  10.465  0.3648 -0.5130 -0.2646
   71SLPC  H12A 6115   2.056   3.403  10.385  0.2538 -0.3330 -0.4375
   71SLPC  H12B 6116   2.053   3.474  10.550 -1.5162 -1.0587  1.3285
   71SLPC   C11 6117   1.932   3.575  10.415 -0.4984  0.1987 -1.1284
   71SLPC  H11A 6118   1.872   3.563  10.322  2.5483 -1.9146 -3.0411
   71SLPC  H11B 6119   2.021   3.635  10.385  1.6451 -2.5867 -0.8124
   71SLPC     P 6120   1.933   3.738  10.626 -0.1375  0.2283  0.1548
   71SLPC   O13 6121   1.860   3.718  10.748 -0.0181  0.2100 -0.1559
   71SLPC   O14 6122   2.073   3.689  10.634  0.3164 -0.3023 -0.0302
   71SLPC   O12 6123   1.857   3.656  10.509  0.2824  0.0019  1.1987
   71SLPC   O11 6124   1.937   3.890  10.585  0.2554 -0.3090  0.3528
   71SLPC    C1 6125   1.813   3.960  10.566 -0.4832 -0.1045  0.7052
   71SLPC    HA 6126   1.735   3.924  10.637  0.2420 -0.5570  1.2906
   71SLPC    HB 6127   1.832   4.067  10.590 -0.9190  0.1427 -0.0060
   71SLPC    C2 6128   1.767   3.952  10.425  0.7327 -0.1758  0.3900
   71SLPC    HS 6129   1.726   3.854  10.394 -0.1504  0.4833 -0.6142
   71SLPC   O21 6130   1.873   4.000  10.340  0.3562 -0.2891 -0.4656
   71SLPC   C21 6131   1.893   3.926  10.233 -0.0834 -0.6046 -0.0145
   71SLPC   O22 6132   1.814   3.851  10.174  0.5061  0.1865 -0.1699
   71SLPC   C22 6133   2.041   3.947  10.199 -0.1058 -0.1074  0.1281
   71SLPC   H2R 6134   2.058   4.056  10.200  0.4359 -0.1953  0.9263
   71SLPC   H2S 6135   2.095   3.902  10.284 -0.6845  0.1836  0.6560
   71SLPC    C3 6136   1.641   4.043  10.400 -0.4575 -0.0133 -0.5565
   71SLPC    HX 6137   1.673   4.142  10.438 -2.4864  0.0740  1.0770
   71SLPC    HY 6138   1.556   4.020  10.468 -0.4486  2.5340  0.4079
   71SLPC   O31 6139   1.597   4.053  10.264 -0.6847 -0.6394 -0.0177
   71SLPC   C31 6140   1.529   3.961  10.217  0.4667 -0.4134  0.1304
   71SLPC   O32 6141   1.485   3.863  10.277  0.6681 -0.3207  0.2332
   71SLPC   C32 6142   1.496   4.002  10.078  0.6425 -0.3910 -0.3387
   71SLPC   H2X 6143   1.512   4.112  10.070  0.0641 -0.4428 -3.3764
   71SLPC   H2Y 6144   1.388   3.979  10.063  0.7835 -1.7465  0.5465
   71SLPC   C23 6145   2.076   3.879  10.059 -0.4588  0.1888 -0.9240
   71SLPC   H3R 6146   2.009   3.910   9.976 -0.5273 -2.3612 -1.9092
   71SLPC   H3S 6147   2.045   3.773  10.071  2.7849 -0.8406 -0.6000
   71SLPC   C24 6148   2.223   3.893  10.016  0.1023 -0.1184  0.2105
   71SLPC   H4R 6149   2.294   3.877  10.100  1.6485  0.9134 -0.8361
   71SLPC   H4S 6150   2.238   3.998   9.985 -0.3292 -0.2340 -0.4052
   71SLPC   C25 6151   2.244   3.809   9.894  0.4559  0.5971 -0.1448
   71SLPC   H5R 6152   2.210   3.703   9.894 -1.9443  1.2984 -1.4083
   71SLPC   H5S 6153   2.354   3.812   9.877  0.4839 -1.5586 -0.7418
   71SLPC   C26 6154   2.183   3.874   9.765  0.3239 -0.0091  0.2277
   71SLPC   H6R 6155   2.223   3.976   9.783  1.3220 -0.6534  1.8919
   71SLPC   H6S 6156   2.072   3.874   9.774  0.2984 -1.1245  0.0719
   71SLPC   C27 6157   2.237   3.808   9.639  0.0648 -0.8648 -0.2786
   71SLPC   H7R 6158   2.234   3.697   9.636  1.3851 -0.9275  0.1186
   71SLPC   H7S 6159   2.347   3.824   9.648 -0.0629  0.5461 -0.8426
   71SLPC   C28 6160   2.202   3.887   9.506  0.6154 -0.7045  0.0253
   71SLPC   H8R 6161   2.299   3.912   9.459  0.9231 -1.3155  0.3209
   71SLPC   H8S 6162   2.157   3.986   9.528  0.6142 -0.3896 -1.3095
   71SLPC   C29 6163   2.101   3.817   9.412 -0.0467  0.1440  0.3538
   71SLPC   H9R 6164   1.998   3.808   9.448  0.7524 -2.0241  2.2774
   71SLPC  C210 6165   2.126   3.758   9.293 -0.4907 -0.2781  0.2747
   71SLPC  H10R 6166   2.041   3.720   9.234 -0.6019  0.1067  0.1838
   71SLPC  C211 6167   2.265   3.746   9.230  0.4499  0.2381  0.0613
   71SLPC  H11R 6168   2.264   3.658   9.163  0.6497 -1.5904  2.3017
   71SLPC  H11S 6169   2.322   3.717   9.321 -2.9164 -0.7100  2.0707
   71SLPC  C212 6170   2.326   3.863   9.164  0.7042 -0.9188 -0.4334
   71SLPC  H12R 6171   2.351   3.945   9.232  0.7572 -0.4108 -1.0574
   71SLPC  C213 6172   2.377   3.882   9.038  1.0196 -0.0326 -0.2930
   71SLPC  H13R 6173   2.396   3.988   9.019  0.8395  0.2090  0.7986
   71SLPC  C214 6174   2.378   3.780   8.927  0.3521 -0.2298 -0.4938
   71SLPC  H14R 6175   2.408   3.680   8.966  1.3702  0.5917  0.9477
   71SLPC  H14S 6176   2.442   3.806   8.840  1.4602  0.0097  0.3560
   71SLPC  C215 6177   2.239   3.780   8.864  0.0090  0.0940  0.3420
   71SLPC  H15R 6178   2.227   3.874   8.806 -0.4332 -1.0410 -1.5146
   71SLPC  H15S 6179   2.169   3.771   8.949 -0.3333 -2.8102 -0.1352
   71SLPC  C216 6180   2.214   3.658   8.772 -0.1509 -0.3458  0.0779
   71SLPC  H16R 6181   2.234   3.561   8.823 -0.3064 -0.9999 -1.0662
   71SLPC  H16S 6182   2.298   3.663   8.700 -0.3070  0.3536 -0.0623
   71SLPC  C217 6183   2.075   3.666   8.714  0.7689  0.1654  1.2868
   71SLPC  H17R 6184   2.003   3.675   8.798 -0.9519  0.0977 -0.1060
   71SLPC  H17S 6185   2.047   3.571   8.664 -1.2102  0.7101  1.2870
   71SLPC  C218 6186   2.026   3.782   8.630 -0.4256 -0.2359  0.1252
   71SLPC  H18R 6187   2.064   3.876   8.677  1.0201 -0.9659  0.4749
   71SLPC  H18S 6188   1.916   3.785   8.615 -0.4974  0.1458  0.6899
   71SLPC  H18T 6189   2.060   3.769   8.525  0.3744 -0.5729  0.4151
   71SLPC   C33 6190   1.573   3.930   9.973 -0.1755  0.0966 -0.0330
   71SLPC   H3X 6191   1.552   3.821   9.971 -1.5459  0.2174  2.5444
   71SLPC   H3Y 6192   1.681   3.942   9.996  0.0489 -0.9838 -0.4824
   71SLPC   C34 6193   1.548   3.982   9.833  0.0126  0.6998 -0.6399
   71SLPC   H4X 6194   1.532   4.091   9.841  1.8642  0.9471  0.2868
   71SLPC   H4Y 6195   1.450   3.936   9.807  1.3800 -0.5112 -4.1834
   71SLPC   C35 6196   1.655   3.943   9.738 -0.1315 -0.9080 -0.1967
   71SLPC   H5X 6197   1.657   3.833   9.729 -1.9338 -0.8798 -1.5279
   71SLPC   H5Y 6198   1.755   3.977   9.773  1.2528 -0.8612 -3.7762
   71SLPC   C36 6199   1.631   4.003   9.596 -0.7175  0.0035 -0.3229
   71SLPC   H6X 6200   1.640   4.114   9.600 -1.3360  0.0436  3.1514
   71SLPC   H6Y 6201   1.526   3.981   9.566 -1.0928 -0.5206  1.2703
   71SLPC   C37 6202   1.719   3.935   9.492  0.5182 -0.3966 -0.5505
   71SLPC   H7X 6203   1.732   3.829   9.520 -1.3418 -0.2657  1.0709
   71SLPC   H7Y 6204   1.819   3.983   9.499  0.1889  0.1988  0.2984
   71SLPC   C38 6205   1.665   3.933   9.350 -1.0133 -0.2607  0.4495
   71SLPC   H8X 6206   1.658   4.035   9.308  0.9077 -0.9751 -1.8794
   71SLPC   H8Y 6207   1.563   3.890   9.354 -0.9130 -0.4259  1.2676
   71SLPC   C39 6208   1.767   3.865   9.255  0.5167  0.3142  0.7940
   71SLPC   H9X 6209   1.800   3.771   9.302  1.4504  1.9289  3.5619
   71SLPC   H9Y 6210   1.858   3.928   9.261  1.2451 -0.7433  1.1467
   71SLPC  C310 6211   1.731   3.871   9.105  0.4369  0.0951 -0.0546
   71SLPC  H10X 6212   1.815   3.903   9.040 -1.6914 -1.0044 -3.6283
   71SLPC  H10Y 6213   1.663   3.957   9.091  0.4177  0.7006  3.1620
   71SLPC  C311 6214   1.659   3.746   9.057 -0.3237  0.5305  0.9875
   71SLPC  H11X 6215   1.559   3.735   9.104 -0.7297 -0.2052 -0.0208
   71SLPC  H11Y 6216   1.713   3.660   9.104 -0.7053  0.5161  1.4071
   71SLPC  C312 6217   1.662   3.730   8.904  0.6078 -0.1878 -0.0311
   71SLPC  H12X 6218   1.650   3.625   8.870  1.3475 -0.0891 -0.6383
   71SLPC  H12Y 6219   1.752   3.774   8.857 -0.0686  1.9672  0.5805
   71SLPC  C313 6220   1.543   3.804   8.834 -0.0221  0.3598 -0.0904
   71SLPC  H13X 6221   1.559   3.914   8.835  0.8705  0.2410  0.9742
   71SLPC  H13Y 6222   1.456   3.770   8.894 -0.5867  1.6689 -0.1378
   71SLPC  C314 6223   1.524   3.764   8.688  1.1712 -0.1108 -0.2903
   71SLPC  H14X 6224   1.507   3.655   8.691 -0.2483  0.0745 -0.6849
   71SLPC  H14Y 6225   1.608   3.781   8.618 -0.1457 -2.7434 -2.7269
   71SLPC  C315 6226   1.407   3.830   8.621  0.8213 -0.2309 -0.8555
   71SLPC  H15X 6227   1.432   3.935   8.593 -0.4576  0.3788  0.2137
   71SLPC  H15Y 6228   1.331   3.818   8.701  2.3587  0.5945  0.8145
   71SLPC  C316 6229   1.356   3.761   8.486 -0.4129  1.0402  0.4786
   71SLPC  H16X 6230   1.322   3.660   8.519  1.7839  0.1732  0.2539
   71SLPC  H16Y 6231   1.443   3.758   8.417  1.0071  0.8856  2.2289
   71SLPC  C317 6232   1.240   3.842   8.430 -0.5224 -0.4803 -0.3163
   71SLPC  H17X 6233   1.266   3.940   8.385 -0.4234 -0.4379 -0.1663
   71SLPC  H17Y 6234   1.169   3.862   8.512  0.2963  1.5568 -0.0637
   71SLPC  C318 6235   1.148   3.770   8.321 -0.4330 -0.4758  0.4860
   71SLPC  H18X 6236   1.132   3.663   8.348 -1.6325 -0.8833 -1.6292
   71SLPC  H18Y 6237   1.203   3.778   8.225  0.4621  0.7148  1.0658
   71SLPC  H18Z 6238   1.054   3.827   8.311 -0.2633 -0.4235 -0.9419
   72SLPC     N 6239   2.329   1.877  11.151 -0.8518  0.1423  0.3762
   72SLPC   C13 6240   2.475   1.887  11.180 -0.4553 -0.3814 -0.2440
   72SLPC  H13A 6241   2.535   1.893  11.090  0.0458 -1.0055  0.0414
   72SLPC  H13B 6242   2.506   1.963  11.250 -0.2986 -0.1314 -0.5852
   72SLPC  H13C 6243   2.521   1.801  11.227 -0.6617  0.4495  1.5826
   72SLPC   C14 6244   2.263   1.850  11.274  0.0098  0.3076 -0.4636
   72SLPC  H14A 6245   2.303   1.762  11.324 -2.0267 -1.5944 -1.9742
   72SLPC  H14B 6246   2.282   1.935  11.338  0.4818  0.9847 -1.4676
   72SLPC  H14C 6247   2.159   1.826  11.262  0.3899 -2.3648  0.9012
   72SLPC   C15 6248   2.318   1.770  11.048  0.4337  0.0902  0.2270
   72SLPC  H15A 6249   2.372   1.794  10.957  2.5160  0.2238  1.4324
   72SLPC  H15B 6250   2.374   1.685  11.084  0.4682  0.6658  1.5944
   72SLPC  H15C 6251   2.218   1.739  11.022  0.0943 -0.1709  1.7537
   72SLPC   C12 6252   2.266   2.001  11.094 -0.0553  0.0272 -0.7703
   72SLPC  H12A 6253   2.329   2.031  11.011  0.8158  0.5923  0.0793
   72SLPC  H12B 6254   2.268   2.084  11.163 -2.3742 -0.6339  0.1965
   72SLPC   C11 6255   2.115   1.982  11.041 -0.0303 -0.3424 -0.9486
   72SLPC  H11A 6256   2.068   2.083  11.036  1.3894  0.3842 -0.3406
   72SLPC  H11B 6257   2.054   1.910  11.101  0.3304 -1.6587 -2.1228
   72SLPC     P 6258   2.136   2.012  10.775 -0.1554  0.2442  0.1305
   72SLPC   O13 6259   2.168   2.151  10.802 -0.0530 -0.1293  0.2336
   72SLPC   O14 6260   2.234   1.938  10.692  0.0260 -0.3132  0.0190
   72SLPC   O12 6261   2.112   1.934  10.904 -0.3328  0.8234  0.1000
   72SLPC   O11 6262   1.994   2.008  10.710  0.8387 -0.1248  0.2705
   72SLPC    C1 6263   1.957   2.103  10.613 -0.2965 -0.3833  0.0784
   72SLPC    HA 6264   1.879   2.173  10.651  0.8064  1.1991 -0.4576
   72SLPC    HB 6265   2.045   2.163  10.580 -0.4099  0.1503  0.7146
   72SLPC    C2 6266   1.896   2.041  10.494  0.1963  0.5786  0.6345
   72SLPC    HS 6267   1.826   1.967  10.536  3.0951 -1.2691  2.5672
   72SLPC   O21 6268   2.001   1.981  10.415  0.2531  0.0351  0.2079
   72SLPC   C21 6269   1.977   1.867  10.362  1.1294  0.9743 -0.1927
   72SLPC   O22 6270   1.875   1.799  10.366  0.2315  0.5209  0.5797
   72SLPC   C22 6271   2.102   1.818  10.291  0.1947 -0.3201 -0.4428
   72SLPC   H2R 6272   2.160   1.902  10.247  2.4684 -0.4794  2.0377
   72SLPC   H2S 6273   2.168   1.771  10.367  0.4596 -1.2042 -1.1994
   72SLPC    C3 6274   1.813   2.144  10.411  0.1803  0.2898 -0.0419
   72SLPC    HX 6275   1.887   2.219  10.376 -1.6704  0.7385 -3.4425
   72SLPC    HY 6276   1.734   2.200  10.464 -1.6006 -2.5702  0.5658
   72SLPC   O31 6277   1.759   2.086  10.287 -0.5583 -0.3066 -0.4831
   72SLPC   C31 6278   1.655   2.001  10.301 -0.3579  0.3833  0.1420
   72SLPC   O32 6279   1.588   1.991  10.403 -0.0675  0.4318  0.1992
   72SLPC   C32 6280   1.630   1.919  10.174  0.0223  0.0022 -0.2097
   72SLPC   H2X 6281   1.645   1.813  10.202  1.3606 -0.0555 -1.0650
   72SLPC   H2Y 6282   1.702   1.951  10.095 -1.1722 -1.8263 -2.1212
   72SLPC   C23 6283   2.070   1.717  10.179 -0.3515 -0.9034 -0.2202
   72SLPC   H3R 6284   1.963   1.687  10.191 -0.1577 -0.7482  2.4508
   72SLPC   H3S 6285   2.138   1.634  10.207 -1.1630 -0.7943  2.3332
   72SLPC   C24 6286   2.106   1.770  10.035 -0.0317  1.0126  0.4056
   72SLPC   H4R 6287   2.086   1.679   9.974  2.2399  0.2094  0.7696
   72SLPC   H4S 6288   2.211   1.801  10.017  0.6569 -1.9604 -1.2707
   72SLPC   C25 6289   2.019   1.889   9.989 -0.4370 -0.3861  0.9614
   72SLPC   H5R 6290   2.035   1.977  10.054  0.2000 -0.5544  1.0327
   72SLPC   H5S 6291   1.909   1.871   9.995 -0.6814  1.2111  1.6589
   72SLPC   C26 6292   2.037   1.931   9.845 -0.1242 -0.6939  0.3988
   72SLPC   H6R 6293   2.144   1.957   9.829 -0.7525  4.7776  2.7555
   72SLPC   H6S 6294   1.993   2.031   9.825  0.4192 -1.0129 -3.0415
   72SLPC   C27 6295   1.970   1.835   9.746  0.2711  0.5899 -0.4122
   72SLPC   H7R 6296   1.863   1.832   9.775  0.9246 -0.5601  2.1574
   72SLPC   H7S 6297   1.999   1.730   9.767 -3.3301 -0.0936  2.0282
   72SLPC   C28 6298   1.986   1.884   9.599 -0.2875  0.4540  0.1725
   72SLPC   H8R 6299   1.940   1.982   9.579 -0.6337  0.2127 -0.2271
   72SLPC   H8S 6300   1.925   1.816   9.535  0.4811 -0.8368  0.7751
   72SLPC   C29 6301   2.132   1.889   9.544 -0.8793 -0.0365 -0.5454
   72SLPC   H9R 6302   2.207   1.849   9.614 -1.3479  0.7616  0.4347
   72SLPC  C210 6303   2.164   1.936   9.426 -0.0927 -0.6153  0.3631
   72SLPC  H10R 6304   2.269   1.925   9.397  0.5692  2.7740  1.0818
   72SLPC  C211 6305   2.065   1.982   9.319  0.1984  0.4676 -0.3138
   72SLPC  H11R 6306   2.060   2.093   9.323  0.1262  0.4397  0.7185
   72SLPC  H11S 6307   1.960   1.953   9.343 -0.3079  3.7929  2.2824
   72SLPC  C212 6308   2.100   1.921   9.181  0.2757  0.1848 -1.1012
   72SLPC  H12R 6309   2.120   1.813   9.184 -0.7988 -0.0523 -1.7987
   72SLPC  C213 6310   2.090   1.986   9.065  0.6379  0.4879  0.0561
   72SLPC  H13R 6311   2.125   1.934   8.975 -1.4223 -2.9081  1.0334
   72SLPC  C214 6312   2.054   2.127   9.055 -0.6156 -0.6296 -0.1282
   72SLPC  H14R 6313   2.001   2.160   9.147 -0.1129 -1.7854  0.6046
   72SLPC  H14S 6314   1.976   2.133   8.976 -0.2499 -0.4038 -0.4778
   72SLPC  C215 6315   2.170   2.227   9.033 -0.0653  0.0744  0.3682
   72SLPC  H15R 6316   2.238   2.220   9.121  1.3366  1.1081 -0.5766
   72SLPC  H15S 6317   2.122   2.327   9.041 -0.4196 -0.2386  2.9224
   72SLPC  C216 6318   2.257   2.204   8.904  0.0197  0.3409 -0.3114
   72SLPC  H16R 6319   2.325   2.119   8.928  0.8198  1.0954  0.1405
   72SLPC  H16S 6320   2.315   2.296   8.881 -0.4428  1.3258  2.1719
   72SLPC  C217 6321   2.173   2.170   8.781 -0.1136  0.4758  0.2551
   72SLPC  H17R 6322   2.107   2.257   8.760  0.3241  0.6827 -0.2916
   72SLPC  H17S 6323   2.117   2.076   8.798  0.3942 -0.0684 -0.9787
   72SLPC  C218 6324   2.259   2.155   8.655 -0.4919 -0.2898  0.0986
   72SLPC  H18R 6325   2.322   2.063   8.658  0.5825  0.2703 -2.5285
   72SLPC  H18S 6326   2.330   2.237   8.631  0.1763 -0.6237  0.8559
   72SLPC  H18T 6327   2.196   2.132   8.567  1.8597  0.3722 -1.8770
   72SLPC   C33 6328   1.493   1.934  10.114 -0.0203 -0.6947 -0.5238
   72SLPC   H3X 6329   1.479   2.039  10.081  0.5049 -0.0522  1.2246
   72SLPC   H3Y 6330   1.420   1.892  10.186  1.4621 -0.2147  1.3134
   72SLPC   C34 6331   1.488   1.849   9.988  0.2564  1.0647  0.1776
   72SLPC   H4X 6332   1.551   1.759  10.006 -0.2899 -0.0782 -2.9684
   72SLPC   H4Y 6333   1.528   1.903   9.899 -4.4207  0.5592 -2.5800
   72SLPC   C35 6334   1.346   1.811   9.935 -0.0709  0.3801  0.0565
   72SLPC   H5X 6335   1.286   1.903   9.918 -1.9797 -1.0769 -1.3689
   72SLPC   H5Y 6336   1.296   1.745  10.009 -2.5325  1.2676 -0.7501
   72SLPC   C36 6337   1.339   1.751   9.794  0.0967  0.1847 -0.1001
   72SLPC   H6X 6338   1.237   1.711   9.779  0.1299 -0.4145  1.0904
   72SLPC   H6Y 6339   1.401   1.658   9.798 -1.9433 -1.2154  0.9184
   72SLPC   C37 6340   1.386   1.846   9.684  0.0075  0.6916  0.0013
   72SLPC   H7X 6341   1.494   1.867   9.702  0.6754  1.2291 -3.7674
   72SLPC   H7Y 6342   1.338   1.946   9.684 -1.5276 -0.0002  1.4342
   72SLPC   C38 6343   1.379   1.783   9.541 -0.3366 -0.4876 -0.2111
   72SLPC   H8X 6344   1.382   1.673   9.554  0.3910 -0.6346 -1.4980
   72SLPC   H8Y 6345   1.466   1.820   9.484  0.1402 -0.1766  0.6987
   72SLPC   C39 6346   1.264   1.831   9.455  0.4233 -0.2731  0.3216
   72SLPC   H9X 6347   1.257   1.941   9.455 -4.2486 -0.3689  0.4631
   72SLPC   H9Y 6348   1.175   1.797   9.513  0.5389 -0.5436  0.3461
   72SLPC  C310 6349   1.265   1.785   9.303 -0.2765 -0.0925  0.1936
   72SLPC  H10X 6350   1.265   1.675   9.288 -0.0879  0.0209 -0.7212
   72SLPC  H10Y 6351   1.342   1.835   9.240  0.2775 -0.5000  0.5379
   72SLPC  C311 6352   1.133   1.835   9.244 -0.1577 -0.2963 -0.4932
   72SLPC  H11X 6353   1.134   1.944   9.264  1.9467  0.3907 -3.6872
   72SLPC  H11Y 6354   1.046   1.791   9.298 -0.7215  1.5086  0.1592
   72SLPC  C312 6355   1.119   1.816   9.094 -0.0080  0.6503 -0.1443
   72SLPC  H12X 6356   1.110   1.706   9.080  0.4691  0.5222  0.5304
   72SLPC  H12Y 6357   1.208   1.838   9.032  0.5973  1.9582  1.1320
   72SLPC  C313 6358   0.995   1.880   9.040 -0.4366 -0.7754  0.3186
   72SLPC  H13X 6359   0.994   1.991   9.032  0.8589 -0.4628  3.0968
   72SLPC  H13Y 6360   0.916   1.867   9.116  1.1791 -1.8996  1.8988
   72SLPC  C314 6361   0.964   1.829   8.896 -0.2854 -0.2841 -0.5689
   72SLPC  H14X 6362   0.910   1.731   8.902  0.4567 -0.7170 -0.8679
   72SLPC  H14Y 6363   1.061   1.814   8.844 -0.4838 -1.2269 -0.6923
   72SLPC  C315 6364   0.859   1.920   8.825  0.9437 -0.3349 -0.3015
   72SLPC  H15X 6365   0.894   2.025   8.822  0.0717 -0.0502 -0.9901
   72SLPC  H15Y 6366   0.770   1.920   8.892 -0.5698 -1.9244 -2.1738
   72SLPC  C316 6367   0.812   1.893   8.684 -0.2734 -0.2444 -0.0256
   72SLPC  H16X 6368   0.744   1.806   8.680  0.7130 -1.0606 -4.3683
   72SLPC  H16Y 6369   0.895   1.873   8.613  0.5895 -0.0054  0.8943
   72SLPC  C317 6370   0.740   2.022   8.629  0.6850  0.3399 -0.2113
   72SLPC  H17X 6371   0.800   2.115   8.643 -1.2275  2.3513 -3.8955
   72SLPC  H17Y 6372   0.648   2.035   8.690 -0.6588  0.8093 -2.2509
   72SLPC  C318 6373   0.710   1.999   8.483  0.2980  0.4247 -0.5591
   72SLPC  H18X 6374   0.802   1.966   8.429 -1.1443 -1.9933 -1.7116
   72SLPC  H18Y 6375   0.666   2.087   8.431 -0.9404 -0.0360 -0.3034
   72SLPC  H18Z 6376   0.623   1.930   8.484 -0.3093  1.0841  2.7090
   73SLPC     N 6377   3.366   1.405  11.101 -0.1213  0.6931  0.1267
   73SLPC   C13 6378   3.360   1.285  11.199 -0.3854  0.4275 -0.0782
   73SLPC  H13A 6379   3.444   1.218  11.188 -0.4836  0.4823 -1.3151
   73SLPC  H13B 6380   3.362   1.316  11.302  1.0102 -1.1047  0.3987
   73SLPC  H13C 6381   3.270   1.233  11.168  0.3855 -0.2563 -1.2452
   73SLPC   C14 6382   3.480   1.493  11.147 -0.5204  1.2103 -0.2224
   73SLPC  H14A 6383   3.507   1.574  11.080 -1.5577  0.8917 -1.0492
   73SLPC  H14B 6384   3.459   1.523  11.249 -0.7346 -1.9178  0.7603
   73SLPC  H14C 6385   3.570   1.433  11.153 -1.6624 -0.5588 -0.1099
   73SLPC   C15 6386   3.237   1.477  11.115  0.4961  0.8887  0.6958
   73SLPC  H15A 6387   3.227   1.570  11.062 -2.0257 -0.1342 -0.8134
   73SLPC  H15B 6388   3.151   1.424  11.077  0.6694  0.1492  1.2997
   73SLPC  H15C 6389   3.223   1.478  11.222  1.3575 -0.6653  0.8503
   73SLPC   C12 6390   3.391   1.360  10.956  0.4436 -0.1513  0.1536
   73SLPC  H12A 6391   3.397   1.446  10.890  3.5087 -0.0066  0.4456
   73SLPC  H12B 6392   3.306   1.297  10.932 -0.5146 -0.2151  3.3564
   73SLPC   C11 6393   3.519   1.280  10.926 -0.1468  0.3297  0.2472
   73SLPC  H11A 6394   3.600   1.328  10.986 -1.5644  0.1641  2.3775
   73SLPC  H11B 6395   3.538   1.303  10.818 -0.6114 -1.2517 -0.1931
   73SLPC     P 6396   3.468   1.043  10.846 -0.1472 -0.4556 -0.0558
   73SLPC   O13 6397   3.579   1.034  10.750  0.2280  0.0806 -0.1821
   73SLPC   O14 6398   3.423   0.916  10.907  0.1837 -0.1796  0.0197
   73SLPC   O12 6399   3.509   1.144  10.965 -0.1575 -0.1384  0.4659
   73SLPC   O11 6400   3.346   1.115  10.782  0.0973 -0.3976  0.2897
   73SLPC    C1 6401   3.276   1.050  10.669  0.6006 -0.0689 -0.9714
   73SLPC    HA 6402   3.338   0.968  10.627  0.7699  0.1718 -1.2020
   73SLPC    HB 6403   3.183   0.999  10.702  0.1120  1.0227 -0.6295
   73SLPC    C2 6404   3.244   1.141  10.551 -0.7175 -0.4163  0.3245
   73SLPC    HS 6405   3.212   1.242  10.588  2.1244  0.7986 -0.2737
   73SLPC   O21 6406   3.149   1.082  10.460  0.2091  0.0337 -0.5866
   73SLPC   C21 6407   3.023   1.109  10.476 -0.2200  0.0668 -0.5348
   73SLPC   O22 6408   2.979   1.182  10.567 -0.8141  0.5207 -0.2932
   73SLPC   C22 6409   2.941   1.041  10.366 -0.4132  0.0983 -0.1763
   73SLPC   H2R 6410   3.005   1.025  10.277  0.0071 -1.0259  0.3081
   73SLPC   H2S 6411   2.926   0.941  10.412  0.4712  0.1832  0.3032
   73SLPC    C3 6412   3.379   1.174  10.476 -0.8313 -0.7400  0.7215
   73SLPC    HX 6413   3.433   1.078  10.472  0.0906 -0.2143  0.2156
   73SLPC    HY 6414   3.440   1.241  10.541 -2.2590  0.0021  1.3510
   73SLPC   O31 6415   3.365   1.242  10.346  0.4444 -0.4381  0.0530
   73SLPC   C31 6416   3.378   1.155  10.240 -0.9114  0.1419 -1.3673
   73SLPC   O32 6417   3.405   1.039  10.249 -0.0526  0.3832 -0.0559
   73SLPC   C32 6418   3.341   1.227  10.118  0.8757  0.1199 -0.1590
   73SLPC   H2X 6419   3.426   1.288  10.080  0.2719 -0.2775 -2.2331
   73SLPC   H2Y 6420   3.253   1.290  10.144 -0.1909 -1.1858 -0.5407
   73SLPC   C23 6421   2.799   1.096  10.347 -0.2835 -0.7003  0.4020
   73SLPC   H3R 6422   2.808   1.191  10.290 -1.8447  0.1116  1.4069
   73SLPC   H3S 6423   2.760   1.130  10.445 -2.0853  0.7332 -0.7432
   73SLPC   C24 6424   2.701   1.005  10.281 -0.6262  0.4953  0.5165
   73SLPC   H4R 6425   2.604   1.059  10.273 -2.0716 -2.0035  0.1611
   73SLPC   H4S 6426   2.685   0.910  10.335  0.0609  0.3195  0.4220
   73SLPC   C25 6427   2.748   0.975  10.138 -0.4943 -0.1998  0.6162
   73SLPC   H5R 6428   2.846   0.922  10.137 -1.1058 -1.4369 -2.0250
   73SLPC   H5S 6429   2.755   1.073  10.088 -0.7178  0.1473  1.2471
   73SLPC   C26 6430   2.640   0.899  10.064 -0.2503 -0.0670 -0.9705
   73SLPC   H6R 6431   2.546   0.894  10.123  1.9659  1.0545  3.0061
   73SLPC   H6S 6432   2.683   0.797  10.052  3.4333  1.4330 -1.5226
   73SLPC   C27 6433   2.618   0.966   9.928  0.5937 -0.3692  0.1569
   73SLPC   H7R 6434   2.717   0.980   9.880 -0.3156 -0.6392 -1.9201
   73SLPC   H7S 6435   2.571   1.067   9.934 -0.8085 -1.0469  1.1852
   73SLPC   C28 6436   2.530   0.881   9.829 -0.0977 -0.4937  0.0369
   73SLPC   H8R 6437   2.487   0.951   9.754  0.7638  1.0432  0.9233
   73SLPC   H8S 6438   2.434   0.846   9.871  0.7275 -0.6900  1.8479
   73SLPC   C29 6439   2.595   0.758   9.763 -0.4531 -0.0250  0.2989
   73SLPC   H9R 6440   2.581   0.664   9.818 -1.3558 -0.1452 -0.1253
   73SLPC  C210 6441   2.655   0.763   9.641 -0.1272 -0.4941  0.0960
   73SLPC  H10R 6442   2.696   0.666   9.609  0.6380  0.0075 -0.4903
   73SLPC  C211 6443   2.662   0.883   9.552  0.3594 -0.2515 -0.2524
   73SLPC  H11R 6444   2.756   0.881   9.494  0.8117 -0.6388  0.4746
   73SLPC  H11S 6445   2.687   0.972   9.613  3.2879 -0.7961 -0.5112
   73SLPC  C212 6446   2.540   0.913   9.462  0.0276  0.0716 -0.3365
   73SLPC  H12R 6447   2.483   1.003   9.492  1.4273  0.9980 -0.3466
   73SLPC  C213 6448   2.510   0.848   9.347  0.0385  0.3217 -0.2026
   73SLPC  H13R 6449   2.418   0.863   9.289 -0.3708  0.4610  0.4723
   73SLPC  C214 6450   2.595   0.733   9.298 -0.1262 -0.0967  0.2712
   73SLPC  H14R 6451   2.531   0.643   9.288  0.3558 -0.2830 -1.6692
   73SLPC  H14S 6452   2.678   0.703   9.365  0.9631  0.5316 -0.7585
   73SLPC  C215 6453   2.662   0.762   9.158 -0.3520 -0.0467 -0.6362
   73SLPC  H15R 6454   2.721   0.670   9.139  0.9962  0.5991  0.3197
   73SLPC  H15S 6455   2.724   0.855   9.158 -1.0438  0.4266  0.0260
   73SLPC  C216 6456   2.572   0.779   9.033 -0.5026 -0.3122  0.0198
   73SLPC  H16R 6457   2.639   0.774   8.944 -0.6342 -1.2588 -0.0398
   73SLPC  H16S 6458   2.524   0.879   9.044 -0.6685 -0.5423  1.6418
   73SLPC  C217 6459   2.462   0.674   9.029  0.2186 -0.2914  0.9403
   73SLPC  H17R 6460   2.407   0.671   9.126  0.2000  0.8371  0.9850
   73SLPC  H17S 6461   2.510   0.576   9.009  2.3143  0.5851  1.4072
   73SLPC  C218 6462   2.360   0.713   8.923 -0.8037  0.0181 -0.3953
   73SLPC  H18R 6463   2.404   0.725   8.822 -0.4848  0.7635 -0.1758
   73SLPC  H18S 6464   2.327   0.817   8.944  0.2037  0.4439 -0.8883
   73SLPC  H18T 6465   2.272   0.644   8.921 -1.1430  0.4530 -0.6077
   73SLPC   C33 6466   3.303   1.124  10.004  0.0097 -0.4378 -0.2899
   73SLPC   H3X 6467   3.209   1.073  10.036 -0.2331  0.5703  0.6416
   73SLPC   H3Y 6468   3.384   1.050   9.984 -0.3613 -0.5800 -1.3796
   73SLPC   C34 6469   3.282   1.203   9.872 -0.2253 -0.2056 -0.5123
   73SLPC   H4X 6470   3.360   1.282   9.865  0.3802 -0.3281  2.9606
   73SLPC   H4Y 6471   3.189   1.263   9.886 -1.8728 -2.9805  1.4469
   73SLPC   C35 6472   3.253   1.133   9.738  0.1458 -0.3898 -0.1503
   73SLPC   H5X 6473   3.333   1.061   9.711  0.0254  0.1468 -2.0819
   73SLPC   H5Y 6474   3.247   1.219   9.668 -2.5969 -1.5567 -1.4824
   73SLPC   C36 6475   3.117   1.065   9.739 -0.4641 -0.2229  1.0681
   73SLPC   H6X 6476   3.035   1.138   9.750  0.5781  1.0994  0.3338
   73SLPC   H6Y 6477   3.126   0.995   9.825  0.6653  1.3903  2.3146
   73SLPC   C37 6478   3.101   0.994   9.606 -0.8315 -0.7120  0.1544
   73SLPC   H7X 6479   3.005   0.937   9.603 -2.2083  1.4373  0.6727
   73SLPC   H7Y 6480   3.184   0.921   9.595 -1.1803 -0.8517 -2.0247
   73SLPC   C38 6481   3.081   1.099   9.487 -0.3701 -0.3941  0.1657
   73SLPC   H8X 6482   3.177   1.153   9.476 -1.0068  0.7045 -0.2008
   73SLPC   H8Y 6483   3.008   1.176   9.520 -0.0553  0.2815 -0.6959
   73SLPC   C39 6484   3.027   1.038   9.359  0.8782  0.1452  0.0704
   73SLPC   H9X 6485   3.008   1.116   9.283 -0.2236 -0.1667  0.0056
   73SLPC   H9Y 6486   2.929   0.993   9.388  0.4028  2.2285  2.0073
   73SLPC  C310 6487   3.119   0.933   9.296 -0.0377  0.7316  0.6313
   73SLPC  H10X 6488   3.114   0.839   9.356  0.6757  0.2121 -0.1030
   73SLPC  H10Y 6489   3.223   0.970   9.312  0.0719 -0.3238  2.9272
   73SLPC  C311 6490   3.074   0.902   9.153  0.3606 -0.3660  0.0176
   73SLPC  H11X 6491   2.964   0.910   9.140  0.3556 -2.2477 -1.4587
   73SLPC  H11Y 6492   3.111   0.802   9.123  2.8822  0.8392 -1.2491
   73SLPC  C312 6493   3.141   1.005   9.057  0.1053  0.2451  0.2469
   73SLPC  H12X 6494   3.249   0.980   9.059  0.0782  0.1777  0.9116
   73SLPC  H12Y 6495   3.119   1.100   9.111 -1.0273 -0.0874  0.3800
   73SLPC  C313 6496   3.096   1.013   8.908 -0.2776  0.1797 -0.0708
   73SLPC  H13X 6497   2.993   1.054   8.904 -0.1862  0.4220  0.0758
   73SLPC  H13Y 6498   3.094   0.916   8.853 -0.9560  1.2323 -1.9889
   73SLPC  C314 6499   3.189   1.111   8.833 -0.0563  0.3093  0.1053
   73SLPC  H14X 6500   3.286   1.057   8.823  0.1673  0.7654 -0.2364
   73SLPC  H14Y 6501   3.200   1.199   8.901 -2.2769 -0.8038  2.0390
   73SLPC  C315 6502   3.138   1.145   8.692  0.3926  0.7336 -0.6104
   73SLPC  H15X 6503   3.031   1.165   8.713  0.8506  2.3108  0.3899
   73SLPC  H15Y 6504   3.134   1.050   8.635 -0.1932 -1.3866  2.7228
   73SLPC  C316 6505   3.203   1.255   8.610 -0.0260 -0.2791  0.2389
   73SLPC  H16X 6506   3.301   1.214   8.579  0.6958 -0.1565  2.2089
   73SLPC  H16Y 6507   3.200   1.349   8.668  1.8648 -1.7816  3.0082
   73SLPC  C317 6508   3.140   1.284   8.473  0.4835 -0.0837 -0.3882
   73SLPC  H17X 6509   3.033   1.305   8.495  0.0083 -3.1486  0.7581
   73SLPC  H17Y 6510   3.124   1.189   8.419  0.5687 -1.0203  1.1681
   73SLPC  C318 6511   3.194   1.398   8.377  0.4421  1.0372 -0.7515
   73SLPC  H18X 6512   3.302   1.382   8.360  0.3329  0.4842 -0.9518
   73SLPC  H18Y 6513   3.179   1.497   8.425  0.6099  1.9457 -2.5160
   73SLPC  H18Z 6514   3.142   1.381   8.280  1.7991  0.5839 -1.4141
   74SLPC     N 6515   2.633   2.538  10.921 -0.2075 -0.6061 -0.5862
   74SLPC   C13 6516   2.565   2.550  11.052 -0.0289 -0.1019  0.2160
   74SLPC  H13A 6517   2.467   2.505  11.046 -0.2575  0.3622  0.4004
   74SLPC  H13B 6518   2.613   2.494  11.131 -0.9847 -0.7686  0.3406
   74SLPC  H13C 6519   2.549   2.653  11.080  0.2423 -0.2082  0.7924
   74SLPC   C14 6520   2.626   2.389  10.892  0.2633 -0.0994 -0.2655
   74SLPC  H14A 6521   2.706   2.368  10.822  0.5821 -1.4165  0.4611
   74SLPC  H14B 6522   2.648   2.326  10.976 -0.6296 -1.4223 -0.9945
   74SLPC  H14C 6523   2.531   2.360  10.851  0.7050 -1.1648 -0.5630
   74SLPC   C15 6524   2.773   2.583  10.940  0.7683  0.5999 -0.7485
   74SLPC  H15A 6525   2.780   2.689  10.964  0.7585  0.5229 -0.3920
   74SLPC  H15B 6526   2.824   2.533  11.021 -1.3923 -1.4119 -0.5207
   74SLPC  H15C 6527   2.828   2.566  10.849  0.2320 -2.3872 -0.6055
   74SLPC   C12 6528   2.569   2.624  10.813 -0.0101 -0.4281  0.1036
   74SLPC  H12A 6529   2.612   2.721  10.831  3.1696 -1.6707 -0.1055
   74SLPC  H12B 6530   2.462   2.636  10.828  0.4728  1.3736  2.6211
   74SLPC   C11 6531   2.608   2.587  10.668 -0.1109  0.3649 -0.4575
   74SLPC  H11A 6532   2.546   2.659  10.610  0.3296  1.2101  0.1132
   74SLPC  H11B 6533   2.570   2.487  10.639  0.7702 -0.5351  1.3374
   74SLPC     P 6534   2.788   2.763  10.602 -0.2051 -0.1681  0.3180
   74SLPC   O13 6535   2.674   2.855  10.613 -0.5412 -0.0032  0.1128
   74SLPC   O14 6536   2.913   2.795  10.685  0.4932  0.6210 -0.0463
   74SLPC   O12 6537   2.739   2.615  10.638 -0.7852 -0.2116 -0.3661
   74SLPC   O11 6538   2.834   2.744  10.451  0.1615  0.2606  0.0108
   74SLPC    C1 6539   2.766   2.662  10.358 -0.2647  0.0820 -0.0060
   74SLPC    HA 6540   2.661   2.631  10.381 -0.0897 -0.7977 -0.3674
   74SLPC    HB 6541   2.760   2.717  10.262 -0.9741 -1.4703 -0.9061
   74SLPC    C2 6542   2.843   2.526  10.322 -0.1150  0.8084  0.2597
   74SLPC    HS 6543   2.866   2.475  10.418 -1.7794  1.6692  1.1649
   74SLPC   O21 6544   2.954   2.562  10.241 -0.2615  0.2838 -0.3383
   74SLPC   C21 6545   3.054   2.467  10.224  0.1817 -0.0322  1.0835
   74SLPC   O22 6546   3.047   2.359  10.271  0.2042 -0.1346 -0.1827
   74SLPC   C22 6547   3.176   2.527  10.158  0.0740  0.2813 -0.4318
   74SLPC   H2R 6548   3.205   2.622  10.208  0.7345  0.2635 -0.7750
   74SLPC   H2S 6549   3.255   2.451  10.178 -1.6503 -2.1184 -2.1899
   74SLPC    C3 6550   2.744   2.441  10.238 -0.4583 -0.7096  0.0948
   74SLPC    HX 6551   2.753   2.477  10.133 -1.6731 -1.1254 -0.1772
   74SLPC    HY 6552   2.641   2.464  10.273 -0.4762 -0.2172 -0.2625
   74SLPC   O31 6553   2.764   2.301  10.239  0.4759 -0.0852  0.2877
   74SLPC   C31 6554   2.716   2.230  10.342 -0.0262 -0.3180 -0.4390
   74SLPC   O32 6555   2.688   2.280  10.450  0.5061 -0.4230 -0.0660
   74SLPC   C32 6556   2.710   2.080  10.303  0.3395 -0.1967 -0.9924
   74SLPC   H2X 6557   2.800   2.032  10.346 -1.0935 -0.8657  1.4091
   74SLPC   H2Y 6558   2.709   2.079  10.192 -1.5744  1.2264 -1.0571
   74SLPC   C23 6559   3.159   2.552  10.005  0.3972  0.3314  0.3232
   74SLPC   H3R 6560   3.087   2.634   9.985  0.5381  0.3664 -0.0401
   74SLPC   H3S 6561   3.111   2.457   9.973  1.6656 -0.3325  0.3483
   74SLPC   C24 6562   3.282   2.573   9.917 -0.8721  0.0109 -0.5846
   74SLPC   H4R 6563   3.363   2.504   9.949 -0.2151 -0.1509 -2.4671
   74SLPC   H4S 6564   3.333   2.672   9.916  1.2716 -1.0245 -1.5764
   74SLPC   C25 6565   3.255   2.527   9.776 -0.2350  0.5332  0.5176
   74SLPC   H5R 6566   3.188   2.604   9.733 -0.4810 -0.0130 -0.1076
   74SLPC   H5S 6567   3.210   2.426   9.766 -0.8453  0.8939 -0.5301
   74SLPC   C26 6568   3.383   2.524   9.691  0.0369  0.3564  0.0381
   74SLPC   H6R 6569   3.475   2.473   9.729  0.2801 -0.6702 -1.8124
   74SLPC   H6S 6570   3.429   2.625   9.693 -1.0757  0.8730  0.6428
   74SLPC   C27 6571   3.357   2.479   9.548  0.4003 -0.9652 -0.3569
   74SLPC   H7R 6572   3.284   2.556   9.516  0.8919 -0.4764 -0.3178
   74SLPC   H7S 6573   3.324   2.374   9.537  0.8629 -0.9285 -2.6216
   74SLPC   C28 6574   3.482   2.494   9.451 -0.5649  0.2169 -1.2150
   74SLPC   H8R 6575   3.575   2.456   9.499  0.1051  2.1675 -0.8622
   74SLPC   H8S 6576   3.492   2.600   9.418  2.5895  0.5334  0.3659
   74SLPC   C29 6577   3.459   2.422   9.330  0.2009 -0.0562  0.1454
   74SLPC   H9R 6578   3.456   2.312   9.340  2.3309 -0.1364  0.5241
   74SLPC  C210 6579   3.437   2.470   9.210 -0.0509  0.4656  0.1556
   74SLPC  H10R 6580   3.424   2.392   9.134 -0.3055  0.0583  0.6162
   74SLPC  C211 6581   3.428   2.613   9.169  0.4364 -0.3798  0.6887
   74SLPC  H11R 6582   3.528   2.660   9.163  0.5074 -0.5377  0.6280
   74SLPC  H11S 6583   3.377   2.676   9.245 -0.3009  0.8945 -0.8169
   74SLPC  C212 6584   3.359   2.622   9.039 -0.0433 -0.2693  1.3687
   74SLPC  H12R 6585   3.250   2.631   9.050 -0.2898 -1.7788  0.4900
   74SLPC  C213 6586   3.417   2.641   8.916 -0.2287  0.4321  0.2570
   74SLPC  H13R 6587   3.345   2.628   8.833  1.1094  0.6202 -0.9597
   74SLPC  C214 6588   3.565   2.649   8.893  0.3343 -0.4627  0.4074
   74SLPC  H14R 6589   3.621   2.555   8.872 -0.9278 -1.0067 -0.6475
   74SLPC  H14S 6590   3.619   2.682   8.985 -0.3831  2.2944 -0.0643
   74SLPC  C215 6591   3.588   2.763   8.784  0.1139 -0.5114 -0.6786
   74SLPC  H15R 6592   3.694   2.793   8.775 -0.4291  1.3695 -1.4520
   74SLPC  H15S 6593   3.532   2.856   8.812  0.3304 -1.1339  2.0958
   74SLPC  C216 6594   3.535   2.734   8.647  0.8230 -0.2033  0.0578
   74SLPC  H16R 6595   3.425   2.724   8.651  0.8293  0.1822  1.5073
   74SLPC  H16S 6596   3.576   2.634   8.621  0.4683 -0.6446  1.1864
   74SLPC  C217 6597   3.575   2.845   8.545  0.2334 -0.6257  0.5379
   74SLPC  H17R 6598   3.682   2.873   8.549  0.1681 -0.3217  0.2875
   74SLPC  H17S 6599   3.524   2.936   8.585 -1.7710 -1.4353 -0.0198
   74SLPC  C218 6600   3.539   2.824   8.399 -0.1913  0.2228  0.9170
   74SLPC  H18R 6601   3.431   2.797   8.399 -0.3380  0.7964  0.8551
   74SLPC  H18S 6602   3.597   2.746   8.345  0.7396  0.3607  1.7114
   74SLPC  H18T 6603   3.565   2.914   8.338  2.6492  0.0914  1.7908
   74SLPC   C33 6604   2.581   2.012  10.360 -0.4609  0.3850  0.1538
   74SLPC   H3X 6605   2.491   2.062  10.317  0.2603  1.8803  0.2913
   74SLPC   H3Y 6606   2.588   2.025  10.470  2.6962  2.6516 -0.1652
   74SLPC   C34 6607   2.559   1.866  10.324 -0.1294  0.5762  0.1563
   74SLPC   H4X 6608   2.472   1.829  10.382 -0.6868 -0.4336 -1.2463
   74SLPC   H4Y 6609   2.650   1.809  10.348  0.4858  1.0519 -0.9587
   74SLPC   C35 6610   2.549   1.836  10.170  0.4485 -0.2763 -0.5650
   74SLPC   H5X 6611   2.648   1.868  10.133  0.2294  0.0739 -0.8521
   74SLPC   H5Y 6612   2.469   1.900  10.127  0.9518 -0.2627 -1.5113
   74SLPC   C36 6613   2.539   1.688  10.141  0.4258  0.1717 -0.8459
   74SLPC   H6X 6614   2.460   1.650  10.209 -0.2958 -0.3185 -1.9283
   74SLPC   H6Y 6615   2.642   1.647  10.147  0.0701 -0.7329 -0.8275
   74SLPC   C37 6616   2.506   1.653   9.996  0.1240  0.0357 -0.8862
   74SLPC   H7X 6617   2.406   1.697   9.971 -0.6332  0.4714  2.3709
   74SLPC   H7Y 6618   2.491   1.546   9.972 -2.8214  0.3457 -0.7828
   74SLPC   C38 6619   2.614   1.700   9.897  0.4008  1.2597 -0.2016
   74SLPC   H8X 6620   2.705   1.637   9.907 -2.3665 -3.8202 -2.8135
   74SLPC   H8Y 6621   2.638   1.807   9.911  0.6775  1.5749 -2.5471
   74SLPC   C39 6622   2.565   1.698   9.750  0.4560  0.1323  0.4742
   74SLPC   H9X 6623   2.468   1.753   9.750 -0.8818 -1.8168 -3.3979
   74SLPC   H9Y 6624   2.548   1.596   9.707 -0.2150  0.7259 -0.7251
   74SLPC  C310 6625   2.677   1.765   9.658 -0.4546  0.5564  0.1470
   74SLPC  H10X 6626   2.764   1.698   9.639  0.6498  2.0983 -0.3919
   74SLPC  H10Y 6627   2.720   1.852   9.712  2.7602 -0.8831  0.1677
   74SLPC  C311 6628   2.614   1.814   9.535  0.0723 -0.4711 -0.1135
   74SLPC  H11X 6629   2.524   1.875   9.557  1.3161  1.0347  1.0732
   74SLPC  H11Y 6630   2.575   1.735   9.468 -1.4318 -0.7045  0.9939
   74SLPC  C312 6631   2.710   1.913   9.461  0.4550 -0.7376  0.0661
   74SLPC  H12X 6632   2.805   1.862   9.435  2.0524  2.0180  0.0541
   74SLPC  H12Y 6633   2.717   1.994   9.537  1.9108 -0.5851 -0.2018
   74SLPC  C313 6634   2.651   1.966   9.328 -0.2846  0.8350 -0.2306
   74SLPC  H13X 6635   2.733   2.019   9.275 -0.1521  0.1755 -0.6834
   74SLPC  H13Y 6636   2.575   2.045   9.348  1.9759  3.3039 -0.6536
   74SLPC  C314 6637   2.609   1.867   9.230 -0.2401  0.6931  0.7412
   74SLPC  H14X 6638   2.517   1.815   9.264  1.2352 -0.4214  3.3626
   74SLPC  H14Y 6639   2.685   1.787   9.212 -1.4981  0.0544 -2.4683
   74SLPC  C315 6640   2.581   1.936   9.091 -0.4987  0.7025 -0.0711
   74SLPC  H15X 6641   2.673   1.997   9.077 -0.1411  0.1493 -0.1992
   74SLPC  H15Y 6642   2.495   2.006   9.088 -0.8370  0.2858 -0.3156
   74SLPC  C316 6643   2.577   1.828   8.979 -0.0001  0.3405  0.0023
   74SLPC  H16X 6644   2.480   1.774   8.980  1.2241 -2.0358  2.0726
   74SLPC  H16Y 6645   2.650   1.744   8.972 -1.7347 -1.2867  0.6159
   74SLPC  C317 6646   2.574   1.896   8.844 -0.4196 -0.3919  0.3210
   74SLPC  H17X 6647   2.653   1.974   8.835  0.0586 -0.7786  0.9905
   74SLPC  H17Y 6648   2.477   1.949   8.835  0.3226  0.7055 -1.9965
   74SLPC  C318 6649   2.591   1.781   8.738  0.3296 -0.0902 -0.2078
   74SLPC  H18X 6650   2.582   1.824   8.636  1.1583  0.2860 -0.1349
   74SLPC  H18Y 6651   2.516   1.700   8.744  1.2946 -1.0123 -0.3999
   74SLPC  H18Z 6652   2.695   1.744   8.752  0.5885  0.7061  0.0413
   75SLPC     N 6653   1.389   6.484   6.585  0.5445  0.5598 -0.6815
   75SLPC   C13 6654   1.414   6.615   6.652  0.2578 -0.3288 -1.0915
   75SLPC  H13A 6655   1.320   6.664   6.670 -1.1248 -3.1862  0.0917
   75SLPC  H13B 6656   1.460   6.597   6.748  0.9353 -1.8826 -1.6765
   75SLPC  H13C 6657   1.470   6.680   6.586  3.1845 -1.5613 -0.0075
   75SLPC   C14 6658   1.505   6.414   6.529  0.3643  0.3900  0.1636
   75SLPC  H14A 6659   1.568   6.390   6.614 -1.0013 -1.3172  0.7697
   75SLPC  H14B 6660   1.484   6.320   6.481  0.0597  0.7467 -0.4106
   75SLPC  H14C 6661   1.550   6.475   6.452 -3.6445  3.1091 -0.3647
   75SLPC   C15 6662   1.296   6.512   6.466  0.2933  0.5696  0.5944
   75SLPC  H15A 6663   1.200   6.554   6.493 -0.3675 -0.0420 -0.7184
   75SLPC  H15B 6664   1.340   6.576   6.391  0.4992  1.1874  1.2308
   75SLPC  H15C 6665   1.272   6.416   6.424 -2.0947  0.3548  2.2222
   75SLPC   C12 6666   1.309   6.397   6.683  0.1450  0.1872 -0.2051
   75SLPC  H12A 6667   1.278   6.304   6.637 -2.8762  0.0166  1.8674
   75SLPC  H12B 6668   1.218   6.446   6.714 -0.8250 -1.8868  0.4765
   75SLPC   C11 6669   1.385   6.348   6.805 -0.4928 -0.6469 -0.1885
   75SLPC  H11A 6670   1.319   6.301   6.881  1.7255 -1.4745  1.3025
   75SLPC  H11B 6671   1.427   6.440   6.850  3.4439 -2.2469 -0.2470
   75SLPC     P 6672   1.461   6.115   6.729  0.2148 -0.3200 -0.4756
   75SLPC   O13 6673   1.317   6.097   6.705 -0.2169 -0.0804  0.0090
   75SLPC   O14 6674   1.551   6.080   6.619  0.0080 -0.2296  0.4126
   75SLPC   O12 6675   1.496   6.263   6.784  0.5350 -0.0900 -0.0133
   75SLPC   O11 6676   1.495   6.023   6.850  0.0055 -0.2735 -0.1247
   75SLPC    C1 6677   1.573   6.059   6.958  1.3156 -0.2150 -0.0191
   75SLPC    HA 6678   1.651   6.134   6.932  2.4628 -0.8866  1.3596
   75SLPC    HB 6679   1.502   6.113   7.025  0.6795  2.2962 -2.5098
   75SLPC    C2 6680   1.646   5.945   7.029 -0.3060 -0.8285  0.6347
   75SLPC    HS 6681   1.698   5.899   6.942 -0.2037  1.7628 -0.7704
   75SLPC   O21 6682   1.547   5.856   7.085 -0.5765  0.0013  0.6415
   75SLPC   C21 6683   1.583   5.744   7.131  0.3424  0.6235  0.6191
   75SLPC   O22 6684   1.697   5.704   7.141  0.5814  0.1343 -0.0679
   75SLPC   C22 6685   1.452   5.674   7.157 -0.5125 -0.0310 -0.0133
   75SLPC   H2R 6686   1.372   5.750   7.143 -0.3973  0.1986  0.5280
   75SLPC   H2S 6687   1.434   5.594   7.083  1.3947 -0.7471  0.2468
   75SLPC    C3 6688   1.761   6.001   7.127  0.5654  0.2180  0.2931
   75SLPC    HX 6689   1.834   6.064   7.073  1.6000  0.9625  2.4254
   75SLPC    HY 6690   1.812   5.919   7.182  1.0769  1.2683  1.4520
   75SLPC   O31 6691   1.707   6.098   7.222  0.0808  0.3093  0.2892
   75SLPC   C31 6692   1.683   6.054   7.346 -0.1432  0.0504 -0.3001
   75SLPC   O32 6693   1.703   5.938   7.382  0.0577 -1.0576  0.7972
   75SLPC   C32 6694   1.632   6.170   7.426 -0.1944  0.1237 -0.1824
   75SLPC   H2X 6695   1.526   6.187   7.398 -0.2716 -0.2050 -0.1040
   75SLPC   H2Y 6696   1.690   6.258   7.393 -0.3740  0.3482  0.1060
   75SLPC   C23 6697   1.445   5.607   7.296  0.5501 -0.0016  0.0744
   75SLPC   H3R 6698   1.512   5.520   7.311 -1.3704 -1.2718  1.9489
   75SLPC   H3S 6699   1.343   5.569   7.318  1.5128 -1.9058  1.5382
   75SLPC   C24 6700   1.475   5.705   7.414  0.8093  0.1333 -0.1770
   75SLPC   H4R 6701   1.403   5.790   7.409 -0.1841 -0.7249 -1.0959
   75SLPC   H4S 6702   1.583   5.727   7.409  1.1095 -1.4436 -2.1317
   75SLPC   C25 6703   1.471   5.621   7.546  0.4797 -0.1631 -0.0146
   75SLPC   H5R 6704   1.554   5.548   7.548 -1.0450 -1.9761 -0.2084
   75SLPC   H5S 6705   1.373   5.569   7.560  0.1657  0.3954 -0.0974
   75SLPC   C26 6706   1.476   5.712   7.673 -0.1114 -0.0127 -0.4099
   75SLPC   H6R 6707   1.402   5.795   7.662  0.1155  0.6494  2.3529
   75SLPC   H6S 6708   1.572   5.766   7.659  1.0181 -2.1149 -1.1535
   75SLPC   C27 6709   1.443   5.655   7.813  0.5407 -0.1344 -0.1798
   75SLPC   H7R 6710   1.351   5.593   7.815  0.8160 -0.5390  0.4412
   75SLPC   H7S 6711   1.426   5.738   7.886  0.5975 -0.4264  0.1661
   75SLPC   C28 6712   1.554   5.563   7.866  0.8732 -0.4008 -0.3670
   75SLPC   H8R 6713   1.568   5.486   7.787 -0.7189 -0.1049 -0.9747
   75SLPC   H8S 6714   1.502   5.509   7.949 -1.5452  0.2841 -1.3382
   75SLPC   C29 6715   1.682   5.631   7.924  1.1208  0.7285 -0.3852
   75SLPC   H9R 6716   1.744   5.671   7.843  2.5968 -0.6761 -0.0032
   75SLPC  C210 6717   1.710   5.680   8.046  0.2775 -0.0939  0.6010
   75SLPC  H10R 6718   1.801   5.738   8.068  0.1591  0.3200 -0.0006
   75SLPC  C211 6719   1.623   5.678   8.164 -0.5197 -0.4711 -0.1662
   75SLPC  H11R 6720   1.696   5.658   8.246  0.9765  0.6043 -1.1788
   75SLPC  H11S 6721   1.543   5.604   8.183 -0.0656 -0.5814  1.5211
   75SLPC  C212 6722   1.568   5.810   8.191 -0.0256 -0.1758 -0.0128
   75SLPC  H12R 6723   1.590   5.893   8.123 -0.7844 -0.5112 -0.6997
   75SLPC  C213 6724   1.486   5.837   8.290  0.3620 -0.3549  0.3904
   75SLPC  H13R 6725   1.441   5.936   8.284 -0.3429 -0.5389  2.1342
   75SLPC  C214 6726   1.430   5.746   8.397 -0.8932 -0.3272 -0.7284
   75SLPC  H14R 6727   1.508   5.674   8.428  0.0745  0.7006 -0.6882
   75SLPC  H14S 6728   1.348   5.683   8.357  2.0686 -4.1321 -1.3288
   75SLPC  C215 6729   1.370   5.827   8.521  0.0362  0.1907 -0.1171
   75SLPC  H15R 6730   1.327   5.742   8.578  1.1455 -0.7638 -0.6621
   75SLPC  H15S 6731   1.289   5.887   8.474  0.8658 -0.0925 -1.9775
   75SLPC  C216 6732   1.468   5.913   8.599 -0.1949  0.3796  0.5759
   75SLPC  H16R 6733   1.498   6.011   8.556 -1.4060  0.5785  0.1654
   75SLPC  H16S 6734   1.561   5.853   8.608 -0.7482 -0.2448  2.8313
   75SLPC  C217 6735   1.428   5.946   8.742  0.1868  0.3040 -0.0417
   75SLPC  H17R 6736   1.506   6.004   8.797  0.5865  1.6109 -1.8711
   75SLPC  H17S 6737   1.404   5.851   8.794  1.3159 -0.6704 -1.2230
   75SLPC  C218 6738   1.299   6.030   8.742 -0.2242  0.5741  0.5459
   75SLPC  H18R 6739   1.275   6.055   8.848  0.4105 -0.5617  0.9929
   75SLPC  H18S 6740   1.215   5.970   8.702  1.8596 -0.6962 -2.3105
   75SLPC  H18T 6741   1.313   6.123   8.685  1.4017  0.6843  1.0642
   75SLPC   C33 6742   1.654   6.151   7.585 -0.2707  0.0018 -0.4758
   75SLPC   H3X 6743   1.746   6.089   7.593 -1.6217 -2.0128  0.3194
   75SLPC   H3Y 6744   1.675   6.246   7.637 -0.7957  0.5995 -1.3415
   75SLPC   C34 6745   1.540   6.091   7.659  0.5965  0.5524 -0.8841
   75SLPC   H4X 6746   1.502   5.999   7.610 -2.3169  2.0171 -1.5400
   75SLPC   H4Y 6747   1.458   6.165   7.655 -0.1867 -0.2317  0.1740
   75SLPC   C35 6748   1.570   6.046   7.806  0.3424 -1.0344  0.3063
   75SLPC   H5X 6749   1.637   5.957   7.810  1.1645 -0.5371 -1.4003
   75SLPC   H5Y 6750   1.471   6.022   7.850  0.3995  1.2208  1.8503
   75SLPC   C36 6751   1.632   6.164   7.878  0.3570 -0.3539  0.3903
   75SLPC   H6X 6752   1.556   6.246   7.880  0.4149 -0.3083  1.1192
   75SLPC   H6Y 6753   1.730   6.194   7.837 -0.1983 -0.6832 -1.2528
   75SLPC   C37 6754   1.651   6.134   8.030  0.0933 -0.2664 -0.1312
   75SLPC   H7X 6755   1.723   6.049   8.032  0.5213 -0.3917 -5.7126
   75SLPC   H7Y 6756   1.557   6.094   8.074  0.3382 -1.2064 -0.4385
   75SLPC   C38 6757   1.689   6.256   8.111 -0.0720  0.5156 -0.4556
   75SLPC   H8X 6758   1.610   6.334   8.100 -0.1806  0.3526 -0.8634
   75SLPC   H8Y 6759   1.787   6.296   8.077 -0.1129  1.9554  0.9718
   75SLPC   C39 6760   1.706   6.222   8.256  0.0558 -0.7710 -0.5181
   75SLPC   H9X 6761   1.617   6.174   8.302 -0.5172  0.8793  0.1487
   75SLPC   H9Y 6762   1.710   6.320   8.308  1.9823 -1.6243  1.0713
   75SLPC  C310 6763   1.837   6.154   8.293 -0.6253  0.2503  0.0286
   75SLPC  H10X 6764   1.918   6.228   8.278 -0.3710 -0.2604 -1.3031
   75SLPC  H10Y 6765   1.865   6.082   8.212  1.4090  0.3862  0.5595
   75SLPC  C311 6766   1.841   6.082   8.427 -0.5601  0.4073  0.1335
   75SLPC  H11X 6767   1.744   6.030   8.435  0.2223 -0.9254  1.4707
   75SLPC  H11Y 6768   1.863   6.162   8.500  4.3308 -1.3511  1.0214
   75SLPC  C312 6769   1.958   5.981   8.445  0.5299  0.2874 -0.6768
   75SLPC  H12X 6770   2.052   6.023   8.402  0.4416 -1.0278 -2.2284
   75SLPC  H12Y 6771   1.932   5.897   8.378 -0.4001 -0.7282  0.8996
   75SLPC  C313 6772   1.983   5.921   8.587  0.0302 -0.1417  0.5390
   75SLPC  H13X 6773   1.994   5.993   8.670  1.5893 -0.3972  0.5925
   75SLPC  H13Y 6774   2.084   5.875   8.590  0.0342 -0.2919 -0.9559
   75SLPC  C314 6775   1.880   5.809   8.621 -0.4905 -0.1304 -1.0457
   75SLPC  H14X 6776   1.781   5.856   8.603 -0.6995  0.4381  1.3225
   75SLPC  H14Y 6777   1.891   5.775   8.726 -0.4170 -1.9761 -1.6107
   75SLPC  C315 6778   1.876   5.683   8.538 -0.0113  0.2797 -0.5410
   75SLPC  H15X 6779   1.979   5.643   8.533 -0.8931 -2.3767  0.7336
   75SLPC  H15Y 6780   1.856   5.715   8.433 -1.3839 -0.1463 -0.4295
   75SLPC  C316 6781   1.784   5.568   8.594 -0.3569 -0.3984 -0.5476
   75SLPC  H16X 6782   1.757   5.492   8.518 -0.6597  0.3682 -1.2257
   75SLPC  H16Y 6783   1.681   5.609   8.606 -0.3158 -0.0070 -1.4569
   75SLPC  C317 6784   1.839   5.506   8.727  0.8296 -0.6982  0.2402
   75SLPC  H17X 6785   1.880   5.580   8.799  1.6799 -1.7252  0.8412
   75SLPC  H17Y 6786   1.930   5.447   8.704  1.7607  0.9483 -0.5178
   75SLPC  C318 6787   1.749   5.413   8.798  0.3559  0.2721  0.0007
   75SLPC  H18X 6788   1.693   5.351   8.725 -1.7412 -0.6710  2.2742
   75SLPC  H18Y 6789   1.668   5.450   8.864  0.0695 -1.5121  0.7086
   75SLPC  H18Z 6790   1.796   5.334   8.861 -0.8407 -0.1147  0.4352
   76SLPC     N 6791   4.343   3.745   6.328  0.1581  0.0328  0.5772
   76SLPC   C13 6792   4.286   3.804   6.203 -0.2287 -0.4114 -0.8398
   76SLPC  H13A 6793   4.201   3.751   6.164 -2.1867  1.5402  0.5380
   76SLPC  H13B 6794   4.241   3.901   6.221 -0.3208  0.1642 -3.7192
   76SLPC  H13C 6795   4.362   3.819   6.128 -1.4079 -0.4106 -2.0726
   76SLPC   C14 6796   4.464   3.823   6.367 -0.4090  0.2810 -0.3903
   76SLPC  H14A 6797   4.503   3.776   6.456  0.1826 -2.2542 -1.8945
   76SLPC  H14B 6798   4.545   3.815   6.297 -0.4589 -0.2810 -0.3900
   76SLPC  H14C 6799   4.439   3.918   6.412  2.3859  1.0369 -0.2629
   76SLPC   C15 6800   4.378   3.599   6.302  1.0986  0.1321  0.1987
   76SLPC  H15A 6801   4.414   3.538   6.383  3.8135  1.7739  0.3480
   76SLPC  H15B 6802   4.295   3.542   6.265 -0.3410  2.0611  0.3011
   76SLPC  H15C 6803   4.468   3.598   6.242  2.3948  0.9764  2.0305
   76SLPC   C12 6804   4.247   3.749   6.452  0.1648 -0.5875  0.5540
   76SLPC  H12A 6805   4.269   3.703   6.547 -3.4824 -1.7150  1.0240
   76SLPC  H12B 6806   4.155   3.705   6.417  0.6956 -2.2896  1.1825
   76SLPC   C11 6807   4.197   3.901   6.483  0.4492 -0.3462  0.4900
   76SLPC  H11A 6808   4.287   3.962   6.510 -0.8364  1.0082  1.9161
   76SLPC  H11B 6809   4.145   3.894   6.580 -0.6851 -2.1003 -0.2079
   76SLPC     P 6810   3.989   3.954   6.331 -0.2924 -0.2587 -0.4554
   76SLPC   O13 6811   3.961   4.047   6.219  0.4802  0.5777  0.2613
   76SLPC   O14 6812   3.968   3.809   6.319  0.1369  0.3326  0.0406
   76SLPC   O12 6813   4.137   3.976   6.375 -0.0194 -0.2380  0.3547
   76SLPC   O11 6814   3.925   4.013   6.468 -0.4627  0.6933 -0.5126
   76SLPC    C1 6815   3.790   3.976   6.503  0.6971 -0.0213  0.5603
   76SLPC    HA 6816   3.730   4.068   6.520  1.0013  0.8059 -2.3027
   76SLPC    HB 6817   3.728   3.929   6.424  1.4789  1.3152 -0.9146
   76SLPC    C2 6818   3.775   3.905   6.643  0.3598  0.2717  0.4557
   76SLPC    HS 6819   3.667   3.883   6.657  0.0651  2.1275  1.5010
   76SLPC   O21 6820   3.836   3.993   6.743 -0.4986 -0.2902  0.2454
   76SLPC   C21 6821   3.758   4.074   6.803 -0.1586  0.6271  0.2897
   76SLPC   O22 6822   3.634   4.083   6.797 -0.3033 -0.0052 -0.1728
   76SLPC   C22 6823   3.850   4.147   6.898  0.2865  0.6558  0.0155
   76SLPC   H2R 6824   3.957   4.116   6.887  0.5048  1.8115 -1.4328
   76SLPC   H2S 6825   3.849   4.257   6.883 -0.3830  0.6981  0.3665
   76SLPC    C3 6826   3.859   3.782   6.643  0.5684  0.6746 -0.0895
   76SLPC    HX 6827   3.966   3.801   6.618  0.2716  1.0488 -1.1452
   76SLPC    HY 6828   3.833   3.714   6.559 -0.4895  3.2456 -1.9721
   76SLPC   O31 6829   3.861   3.702   6.761 -0.3921  0.1036 -0.8227
   76SLPC   C31 6830   3.780   3.596   6.766 -0.2362  0.0294  0.0995
   76SLPC   O32 6831   3.685   3.567   6.695 -0.3421  0.0895  0.4478
   76SLPC   C32 6832   3.826   3.527   6.895  0.3377 -0.6419  0.0341
   76SLPC   H2X 6833   3.786   3.596   6.972  1.7276 -1.1747  1.2939
   76SLPC   H2Y 6834   3.937   3.539   6.896  0.4543 -0.8204  3.5848
   76SLPC   C23 6835   3.810   4.129   7.046  0.4621  0.8340 -0.2933
   76SLPC   H3R 6836   3.735   4.049   7.057 -0.4903  1.8247  0.6565
   76SLPC   H3S 6837   3.757   4.221   7.078 -1.7998  1.0831 -4.1058
   76SLPC   C24 6838   3.935   4.095   7.132 -0.4170  0.0347 -0.5014
   76SLPC   H4R 6839   4.007   4.175   7.102 -0.3215 -0.6171 -2.0533
   76SLPC   H4S 6840   3.976   3.999   7.095 -0.2306 -1.3339  2.8773
   76SLPC   C25 6841   3.910   4.067   7.281 -0.0656  0.8239 -0.4884
   76SLPC   H5R 6842   3.836   3.985   7.288 -1.7828  2.4456  1.6123
   76SLPC   H5S 6843   3.876   4.157   7.336  0.8254 -1.4449  4.2609
   76SLPC   C26 6844   4.039   4.014   7.359 -0.8389  0.9073  0.3924
   76SLPC   H6R 6845   4.121   4.087   7.339 -0.0213 -0.0184  0.2928
   76SLPC   H6S 6846   4.076   3.926   7.302 -0.3945  0.9064  0.6772
   76SLPC   C27 6847   4.022   3.985   7.506  0.1299  0.2601  1.3297
   76SLPC   H7R 6848   4.122   3.969   7.553  0.4832  2.7349  1.5301
   76SLPC   H7S 6849   3.967   3.889   7.498 -1.4376  1.3002 -2.0970
   76SLPC   C28 6850   3.955   4.093   7.595 -0.6887  0.0559 -0.0432
   76SLPC   H8R 6851   3.850   4.093   7.560 -1.1144  0.2343  1.1781
   76SLPC   H8S 6852   3.938   4.052   7.697  1.4205  0.1332  0.3993
   76SLPC   C29 6853   4.037   4.221   7.599 -0.2700  0.0378  0.2150
   76SLPC   H9R 6854   4.055   4.271   7.503  1.6958 -1.1559 -0.0787
   76SLPC  C210 6855   4.078   4.291   7.703  0.8915  0.2271 -0.1239
   76SLPC  H10R 6856   4.142   4.378   7.683  0.3794  0.8860  1.0085
   76SLPC  C211 6857   4.055   4.250   7.847  0.1212  0.3408 -0.3571
   76SLPC  H11R 6858   4.014   4.151   7.878  0.4611  0.5557  0.8293
   76SLPC  H11S 6859   3.983   4.322   7.892  1.3530 -0.0922  2.5579
   76SLPC  C212 6860   4.179   4.282   7.929 -0.2738  0.3030  0.6839
   76SLPC  H12R 6861   4.218   4.379   7.895 -0.7931  0.5665  0.8241
   76SLPC  C213 6862   4.227   4.205   8.029 -1.1581  0.4487 -0.5072
   76SLPC  H13R 6863   4.317   4.244   8.079  0.2844  1.5327 -3.7377
   76SLPC  C214 6864   4.174   4.070   8.076 -0.0866  0.0819 -0.1397
   76SLPC  H14R 6865   4.086   4.028   8.022 -0.4732 -0.1305  0.6427
   76SLPC  H14S 6866   4.132   4.086   8.178  0.8888 -0.4195  0.3534
   76SLPC  C215 6867   4.279   3.959   8.075 -0.5732  0.4187 -0.0361
   76SLPC  H15R 6868   4.241   3.883   8.147  1.3637 -0.2900  0.2922
   76SLPC  H15S 6869   4.373   3.998   8.118 -0.5441 -0.4410  0.7169
   76SLPC  C216 6870   4.304   3.907   7.930 -0.0882  0.4493 -0.1072
   76SLPC  H16R 6871   4.320   3.985   7.853  0.4013 -1.4163 -1.9928
   76SLPC  H16S 6872   4.202   3.875   7.902 -0.9279  2.7660  0.0806
   76SLPC  C217 6873   4.405   3.792   7.910 -0.1875 -0.5603  0.0289
   76SLPC  H17R 6874   4.502   3.844   7.923 -0.1317 -0.1907 -1.5890
   76SLPC  H17S 6875   4.398   3.771   7.801 -0.2003 -0.7222  0.0593
   76SLPC  C218 6876   4.396   3.665   7.992  0.2018 -0.1225  0.7076
   76SLPC  H18R 6877   4.485   3.599   7.980  0.8532  0.8298  0.1448
   76SLPC  H18S 6878   4.298   3.616   7.972  0.5944 -0.6580  0.0341
   76SLPC  H18T 6879   4.391   3.689   8.100 -0.8466 -0.0641  0.6489
   76SLPC   C33 6880   3.771   3.389   6.924 -0.0289  0.7782 -0.0457
   76SLPC   H3X 6881   3.825   3.321   6.855  3.4699  2.0655  1.2080
   76SLPC   H3Y 6882   3.665   3.381   6.892  0.0493  1.1665 -0.4223
   76SLPC   C34 6883   3.785   3.338   7.068 -0.4363  0.0675 -0.6583
   76SLPC   H4X 6884   3.772   3.228   7.063 -0.8442  0.0170  0.8620
   76SLPC   H4Y 6885   3.698   3.380   7.124 -0.6462 -2.6480  1.2523
   76SLPC   C35 6886   3.915   3.378   7.138  0.2451 -0.1720 -0.3190
   76SLPC   H5X 6887   3.916   3.484   7.169  0.1940 -1.0624  3.1593
   76SLPC   H5Y 6888   3.987   3.385   7.054  1.0321  3.7914  0.5097
   76SLPC   C36 6889   3.947   3.280   7.249  0.5684  0.0768 -0.2225
   76SLPC   H6X 6890   4.050   3.287   7.289  0.1267 -1.3900  1.2676
   76SLPC   H6Y 6891   3.934   3.179   7.206  1.6493  0.1627 -0.7692
   76SLPC   C37 6892   3.840   3.274   7.362  0.5075  0.1223 -0.1022
   76SLPC   H7X 6893   3.738   3.265   7.318  0.1181  0.1000  0.7760
   76SLPC   H7Y 6894   3.840   3.374   7.411 -0.2225  0.1178 -0.0788
   76SLPC   C38 6895   3.858   3.170   7.463 -0.6552 -0.8191 -0.1794
   76SLPC   H8X 6896   3.861   3.078   7.402 -0.3409 -0.1178 -1.2390
   76SLPC   H8Y 6897   3.770   3.154   7.530 -0.8464 -2.4663 -0.7901
   76SLPC   C39 6898   3.991   3.169   7.546  0.1771 -0.0880 -0.1972
   76SLPC   H9X 6899   4.005   3.266   7.597 -0.2117 -0.0357 -0.1844
   76SLPC   H9Y 6900   4.074   3.142   7.477 -0.2290 -0.7782 -0.4267
   76SLPC  C310 6901   3.994   3.056   7.656 -0.4625 -0.4273  0.2555
   76SLPC  H10X 6902   4.100   3.034   7.680  0.4658  2.3235 -0.8488
   76SLPC  H10Y 6903   3.954   2.960   7.619  0.6107 -0.1040 -1.9532
   76SLPC  C311 6904   3.941   3.094   7.799 -0.8619  0.5290 -0.4651
   76SLPC  H11X 6905   3.838   3.137   7.794 -0.7138  1.4905  2.8429
   76SLPC  H11Y 6906   4.007   3.172   7.839 -1.8745  1.8248 -1.2345
   76SLPC  C312 6907   3.948   2.967   7.891 -0.0104  0.0047  0.0590
   76SLPC  H12X 6908   4.043   2.917   7.863 -0.7443 -0.7815 -1.0975
   76SLPC  H12Y 6909   3.857   2.908   7.869  0.0757  0.1744 -0.7955
   76SLPC  C313 6910   3.947   3.004   8.041  0.5681 -0.3174  0.1792
   76SLPC  H13X 6911   3.845   3.042   8.064  1.6766  2.1080  1.3444
   76SLPC  H13Y 6912   4.025   3.077   8.067 -0.4577  0.7347  0.3633
   76SLPC  C314 6913   3.965   2.883   8.133 -0.0996 -0.3004 -0.3847
   76SLPC  H14X 6914   4.066   2.835   8.127  0.4510  0.5946  1.1859
   76SLPC  H14Y 6915   3.892   2.801   8.114  0.9516 -0.9651 -1.7528
   76SLPC  C315 6916   3.960   2.927   8.282  0.1403  0.1531  0.4325
   76SLPC  H15X 6917   3.860   2.970   8.304  1.1307  2.9896 -0.1962
   76SLPC  H15Y 6918   4.038   3.006   8.290 -0.5392  0.8947 -0.0689
   76SLPC  C316 6919   3.982   2.821   8.383  0.0067  0.0103  0.9549
   76SLPC  H16X 6920   4.051   2.742   8.346 -1.1999 -1.7192  2.2579
   76SLPC  H16Y 6921   3.895   2.759   8.413 -0.2110  0.6992  1.7660
   76SLPC  C317 6922   4.037   2.874   8.513 -0.2651 -0.2798 -0.2504
   76SLPC  H17X 6923   3.976   2.965   8.534  0.8549  0.1230  1.5079
   76SLPC  H17Y 6924   4.147   2.885   8.501 -0.5530  1.2010 -1.8977
   76SLPC  C318 6925   4.016   2.789   8.638  0.5132  0.0128  0.0093
   76SLPC  H18X 6926   4.018   2.848   8.732 -0.0905 -1.9927  1.3455
   76SLPC  H18Y 6927   4.090   2.706   8.643  0.3085 -0.2940 -1.4089
   76SLPC  H18Z 6928   3.915   2.742   8.634 -0.2901  1.6448  0.5501
   77SLPC     N 6929   1.509   3.844   6.473  0.2613  0.1485 -0.3476
   77SLPC   C13 6930   1.428   3.967   6.491 -1.3543  0.1612  0.4646
   77SLPC  H13A 6931   1.462   4.010   6.584 -1.1187 -0.3367  0.6162
   77SLPC  H13B 6932   1.440   4.027   6.402 -3.4297 -0.3556 -0.2386
   77SLPC  H13C 6933   1.322   3.956   6.509 -1.2077 -0.0813  1.2294
   77SLPC   C14 6934   1.497   3.765   6.599 -0.2253  0.4931 -0.3604
   77SLPC  H14A 6935   1.559   3.807   6.677  2.4413 -2.6534 -0.5996
   77SLPC  H14B 6936   1.393   3.766   6.628 -0.5348 -0.7243 -1.3424
   77SLPC  H14C 6937   1.526   3.662   6.587  0.3968  0.7683 -1.3189
   77SLPC   C15 6938   1.647   3.873   6.444 -1.0469  0.1055  0.6623
   77SLPC  H15A 6939   1.697   3.908   6.532  0.4677 -1.3816  0.4282
   77SLPC  H15B 6940   1.709   3.788   6.423  3.2777  2.8241  1.0702
   77SLPC  H15C 6941   1.662   3.935   6.356  1.5690  1.3962  1.9046
   77SLPC   C12 6942   1.462   3.757   6.354  0.4055  0.2245  0.6604
   77SLPC  H12A 6943   1.515   3.663   6.357  0.7686  0.4024  0.0245
   77SLPC  H12B 6944   1.475   3.811   6.261  1.3421 -1.6659 -0.3641
   77SLPC   C11 6945   1.311   3.708   6.347 -0.0938 -0.7982 -0.1782
   77SLPC  H11A 6946   1.289   3.672   6.244 -1.5072 -0.1431 -0.1235
   77SLPC  H11B 6947   1.245   3.794   6.373  1.1501 -0.1586  0.9602
   77SLPC     P 6948   1.208   3.486   6.414  0.7906 -0.0758 -0.0220
   77SLPC   O13 6949   1.113   3.517   6.306  0.3672 -0.0549 -0.8710
   77SLPC   O14 6950   1.293   3.365   6.386 -0.3609  0.0199 -0.3320
   77SLPC   O12 6951   1.296   3.608   6.443 -0.8221 -0.4374 -0.1786
   77SLPC   O11 6952   1.126   3.474   6.536 -0.2102 -0.1039 -0.0416
   77SLPC    C1 6953   1.173   3.462   6.670 -0.3380 -0.0646 -0.4015
   77SLPC    HA 6954   1.121   3.388   6.734 -1.1780  1.3091  0.5613
   77SLPC    HB 6955   1.282   3.447   6.682 -0.5290 -0.3588  1.1440
   77SLPC    C2 6956   1.155   3.602   6.737 -0.2243 -0.0551 -0.9555
   77SLPC    HS 6957   1.247   3.652   6.700  1.1025 -1.0666  0.8379
   77SLPC   O21 6958   1.161   3.592   6.879  0.2309  0.1458  0.4543
   77SLPC   C21 6959   1.284   3.608   6.926 -0.0182 -0.3918 -0.6593
   77SLPC   O22 6960   1.385   3.642   6.867  0.2319  0.5492  0.0835
   77SLPC   C22 6961   1.277   3.564   7.080 -0.3329  0.1477  1.1064
   77SLPC   H2R 6962   1.224   3.646   7.134 -0.0973  0.3577  1.0186
   77SLPC   H2S 6963   1.207   3.478   7.090 -0.0594 -0.0169  1.6275
   77SLPC    C3 6964   1.031   3.673   6.693 -0.0499  0.1529  0.2167
   77SLPC    HX 6965   0.945   3.609   6.723  0.0706  0.8747  2.2726
   77SLPC    HY 6966   1.022   3.687   6.583 -1.6174 -0.7422  0.1907
   77SLPC   O31 6967   1.031   3.800   6.764 -0.0498  0.1693 -0.5206
   77SLPC   C31 6968   0.920   3.866   6.745  0.9713 -0.1583  0.3226
   77SLPC   O32 6969   0.824   3.830   6.678 -0.4565 -0.3757 -0.2585
   77SLPC   C32 6970   0.920   4.000   6.812  0.5695  0.2115  0.3520
   77SLPC   H2X 6971   0.898   4.077   6.735  1.1930  0.3915  0.3419
   77SLPC   H2Y 6972   1.024   4.024   6.843  0.9838 -1.3824  0.2809
   77SLPC   C23 6973   1.417   3.564   7.144 -0.2996  0.4248 -0.0572
   77SLPC   H3R 6974   1.447   3.668   7.170  1.6598 -0.5738  2.0053
   77SLPC   H3S 6975   1.500   3.527   7.079 -0.0377  2.0581 -0.7045
   77SLPC   C24 6976   1.421   3.490   7.279 -0.7312  0.0730 -0.1386
   77SLPC   H4R 6977   1.527   3.489   7.313 -1.4957  2.6547  2.7688
   77SLPC   H4S 6978   1.387   3.385   7.264 -3.4047  0.8639  0.0035
   77SLPC   C25 6979   1.350   3.570   7.389  0.5016  0.6645  0.1569
   77SLPC   H5R 6980   1.241   3.549   7.388  0.0055  3.0147  0.4705
   77SLPC   H5S 6981   1.366   3.679   7.377  1.0307  0.3909 -2.2488
   77SLPC   C26 6982   1.403   3.528   7.529  0.2651  0.4076 -0.4540
   77SLPC   H6R 6983   1.513   3.539   7.536  0.3936 -1.1445  0.5996
   77SLPC   H6S 6984   1.390   3.418   7.543  2.3605  0.4390  2.6532
   77SLPC   C27 6985   1.357   3.613   7.650  0.2309  0.0341  0.6183
   77SLPC   H7R 6986   1.247   3.599   7.656  0.1640 -0.1691 -0.8174
   77SLPC   H7S 6987   1.372   3.720   7.626 -0.3684 -0.1162 -0.4787
   77SLPC   C28 6988   1.443   3.598   7.779 -0.2941  0.2308  0.2576
   77SLPC   H8R 6989   1.517   3.681   7.779 -1.4882  1.4217 -2.8633
   77SLPC   H8S 6990   1.505   3.507   7.767 -0.3148  0.4060 -1.3461
   77SLPC   C29 6991   1.363   3.591   7.909 -0.4053 -0.1761  0.3511
   77SLPC   H9R 6992   1.274   3.526   7.905 -0.2038 -0.4193 -0.5422
   77SLPC  C210 6993   1.383   3.659   8.023 -0.1816  0.7665  0.4422
   77SLPC  H10R 6994   1.318   3.630   8.107  0.8940 -4.3099 -0.1753
   77SLPC  C211 6995   1.493   3.760   8.044 -0.2514 -0.0329  0.0413
   77SLPC  H11R 6996   1.442   3.837   8.106 -2.3743 -0.6473 -0.8505
   77SLPC  H11S 6997   1.526   3.816   7.954  1.3862 -1.4449 -0.2873
   77SLPC  C212 6998   1.626   3.707   8.100 -0.6839 -0.4023 -0.0552
   77SLPC  H12R 6999   1.624   3.600   8.126  0.1756  0.0547  2.1535
   77SLPC  C213 7000   1.742   3.770   8.118  0.0693  0.6157 -0.3751
   77SLPC  H13R 7001   1.830   3.706   8.134 -0.2450 -0.0629 -1.2826
   77SLPC  C214 7002   1.782   3.909   8.093  0.0712  0.3976 -0.0835
   77SLPC  H14R 7003   1.687   3.958   8.065 -1.7717 -2.8944 -0.1045
   77SLPC  H14S 7004   1.842   3.911   7.999  0.9205  0.3862  0.4485
   77SLPC  C215 7005   1.865   3.980   8.200  0.6423 -0.0050  0.4692
   77SLPC  H15R 7006   1.824   3.952   8.299 -0.4911 -1.7007 -0.4238
   77SLPC  H15S 7007   1.853   4.088   8.180 -0.8625 -0.1977  0.1897
   77SLPC  C216 7008   2.016   3.948   8.192 -0.5698  0.1764 -0.3157
   77SLPC  H16R 7009   2.061   3.952   8.090  1.6719  2.0920  0.6542
   77SLPC  H16S 7010   2.034   3.848   8.237 -0.0963 -0.4048 -1.7274
   77SLPC  C217 7011   2.102   4.043   8.285 -0.1590  0.5823 -0.3607
   77SLPC  H17R 7012   2.127   3.982   8.375  1.1639  1.8171  0.1597
   77SLPC  H17S 7013   2.028   4.122   8.307  0.1707  0.2556  2.3116
   77SLPC  C218 7014   2.219   4.113   8.224  0.4422  0.1382  0.3854
   77SLPC  H18R 7015   2.279   4.039   8.167 -1.6571 -0.7450 -0.7546
   77SLPC  H18S 7016   2.281   4.151   8.309 -0.7238  0.9545  0.8862
   77SLPC  H18T 7017   2.191   4.195   8.155 -0.3069 -0.6965 -0.3259
   77SLPC   C33 7018   0.821   3.995   6.933 -0.5290 -0.0371 -0.2827
   77SLPC   H3X 7019   0.720   3.952   6.912 -1.2215  0.9537  0.8908
   77SLPC   H3Y 7020   0.795   4.094   6.975  1.9228 -0.2434  1.9326
   77SLPC   C34 7021   0.890   3.919   7.048 -0.1566 -0.2162  0.7251
   77SLPC   H4X 7022   0.984   3.975   7.064  1.2397 -2.4007  0.5330
   77SLPC   H4Y 7023   0.916   3.814   7.024  0.1670  0.1845 -0.7396
   77SLPC   C35 7024   0.823   3.926   7.179  0.5474  0.2413 -0.2582
   77SLPC   H5X 7025   0.730   3.866   7.174  1.0470 -0.5703  0.0564
   77SLPC   H5Y 7026   0.797   4.034   7.188 -0.2695 -0.0059  0.4504
   77SLPC   C36 7027   0.919   3.891   7.297  0.1459  0.7803 -0.0817
   77SLPC   H6X 7028   0.994   3.973   7.288 -0.8244  1.5670 -1.1737
   77SLPC   H6Y 7029   0.981   3.799   7.296 -0.3854  0.3793  1.4481
   77SLPC   C37 7030   0.843   3.884   7.427 -0.3262 -0.1933 -1.0529
   77SLPC   H7X 7031   0.766   3.807   7.405  1.4383 -2.1692 -0.5887
   77SLPC   H7Y 7032   0.789   3.981   7.438 -1.4316 -0.5570 -2.8241
   77SLPC   C38 7033   0.924   3.845   7.550 -0.7688 -0.0255  0.0641
   77SLPC   H8X 7034   1.009   3.917   7.561  0.0475 -0.9262 -0.1989
   77SLPC   H8Y 7035   0.968   3.743   7.548  0.7347  0.5998 -0.0009
   77SLPC   C39 7036   0.839   3.844   7.680 -0.2436  0.0655  0.0331
   77SLPC   H9X 7037   0.793   3.944   7.689  1.1296  0.8412 -1.1290
   77SLPC   H9Y 7038   0.911   3.840   7.764 -1.9993  0.8456  1.6429
   77SLPC  C310 7039   0.740   3.726   7.700  0.1475  0.3425  0.7385
   77SLPC  H10X 7040   0.798   3.631   7.693  0.2263  0.2969  1.8373
   77SLPC  H10Y 7041   0.660   3.724   7.623 -1.4054  0.5025  2.2857
   77SLPC  C311 7042   0.660   3.729   7.835  0.1115 -1.0107  0.0473
   77SLPC  H11X 7043   0.600   3.635   7.834 -0.9950 -0.3314  1.0387
   77SLPC  H11Y 7044   0.584   3.808   7.850  0.2157 -0.0110 -3.7769
   77SLPC  C312 7045   0.757   3.724   7.955 -0.2072 -0.1070 -0.5117
   77SLPC  H12X 7046   0.816   3.819   7.956  2.1237 -1.4263 -2.1148
   77SLPC  H12Y 7047   0.823   3.636   7.938 -0.2245 -0.2910  0.3364
   77SLPC  C313 7048   0.689   3.710   8.091  0.3234 -0.8906  0.4520
   77SLPC  H13X 7049   0.618   3.794   8.106 -0.9245 -1.9568  0.7518
   77SLPC  H13Y 7050   0.770   3.728   8.164 -0.3259 -0.2131  1.0136
   77SLPC  C314 7051   0.613   3.575   8.111 -0.1876 -0.6835 -0.6790
   77SLPC  H14X 7052   0.696   3.504   8.130 -0.1890 -0.9830 -1.7604
   77SLPC  H14Y 7053   0.568   3.537   8.017  2.2893 -2.3817 -1.2788
   77SLPC  C315 7054   0.505   3.581   8.214  0.0589 -0.0623 -0.7866
   77SLPC  H15X 7055   0.416   3.614   8.156 -1.5447 -0.1108  1.5073
   77SLPC  H15Y 7056   0.528   3.656   8.292 -1.3326  0.9568 -1.3150
   77SLPC  C316 7057   0.471   3.447   8.291 -0.7040 -0.3317 -0.2558
   77SLPC  H16X 7058   0.564   3.420   8.346 -0.1799 -0.8081 -1.3507
   77SLPC  H16Y 7059   0.450   3.375   8.209  2.2627  1.9667 -3.3449
   77SLPC  C317 7060   0.348   3.463   8.381  0.2097  0.3211  0.3074
   77SLPC  H17X 7061   0.265   3.500   8.318  1.0677  0.1308 -0.9598
   77SLPC  H17Y 7062   0.358   3.543   8.458  0.0572 -0.0608  0.7317
   77SLPC  C318 7063   0.301   3.334   8.444  0.3095 -0.1521 -0.1706
   77SLPC  H18X 7064   0.274   3.255   8.371 -1.6960 -0.6850  1.0570
   77SLPC  H18Y 7065   0.210   3.362   8.502 -0.1325 -1.1400 -0.3637
   77SLPC  H18Z 7066   0.384   3.295   8.507  2.4336  2.8885 -0.8733
   78SLPC     N 7067   2.347   4.920   6.186 -0.4866  0.1967 -0.6981
   78SLPC   C13 7068   2.263   4.880   6.074 -0.3415  0.3526 -0.1352
   78SLPC  H13A 7069   2.297   4.786   6.035  2.8361  1.1742  0.3596
   78SLPC  H13B 7070   2.163   4.870   6.115  1.2235 -1.7914  3.6593
   78SLPC  H13C 7071   2.266   4.943   5.986 -2.6346 -2.2350 -2.2564
   78SLPC   C14 7072   2.306   5.062   6.226  0.1085  0.5085  0.2458
   78SLPC  H14A 7073   2.207   5.059   6.269  0.3234 -1.6796  0.7247
   78SLPC  H14B 7074   2.374   5.105   6.298  1.5583 -0.9379 -0.1819
   78SLPC  H14C 7075   2.306   5.137   6.149  2.8698 -0.4031 -0.7634
   78SLPC   C15 7076   2.491   4.915   6.144  0.3838 -0.6720 -0.2534
   78SLPC  H15A 7077   2.505   4.958   6.046 -0.2732 -2.0313 -0.9785
   78SLPC  H15B 7078   2.557   4.970   6.210  0.4883  0.7248 -1.4639
   78SLPC  H15C 7079   2.531   4.814   6.150  0.0634 -0.7770  0.1457
   78SLPC   C12 7080   2.322   4.832   6.303  0.3089  0.1590  0.3735
   78SLPC  H12A 7081   2.381   4.872   6.384 -1.8310 -0.0358  2.1196
   78SLPC  H12B 7082   2.346   4.732   6.269 -0.6942  0.1140 -0.2393
   78SLPC   C11 7083   2.179   4.837   6.356  0.5755 -0.2974 -1.0113
   78SLPC  H11A 7084   2.137   4.939   6.362  0.4484 -0.3925 -0.2142
   78SLPC  H11B 7085   2.179   4.809   6.463  2.0321  0.3919 -0.8024
   78SLPC     P 7086   2.115   4.601   6.283 -0.4308 -0.1034  0.1416
   78SLPC   O13 7087   1.998   4.531   6.232 -0.2072 -0.5565 -0.5861
   78SLPC   O14 7088   2.251   4.560   6.233  0.1430 -0.0648  0.2950
   78SLPC   O12 7089   2.092   4.759   6.272 -0.3830  0.4485  0.8853
   78SLPC   O11 7090   2.110   4.591   6.443  0.0348 -0.1233  0.4027
   78SLPC    C1 7091   2.004   4.526   6.515 -1.2016 -0.9210  0.0434
   78SLPC    HA 7092   1.915   4.492   6.457  1.4530 -3.2663 -2.9997
   78SLPC    HB 7093   2.049   4.429   6.544  0.7471 -0.0979 -0.0735
   78SLPC    C2 7094   1.959   4.617   6.631 -0.1960  0.0686 -0.1258
   78SLPC    HS 7095   2.040   4.680   6.675 -1.3485  1.2545  0.3655
   78SLPC   O21 7096   1.896   4.530   6.732 -0.1917  0.7649  0.0889
   78SLPC   C21 7097   1.986   4.471   6.813 -0.0605  0.4064 -0.7764
   78SLPC   O22 7098   2.105   4.471   6.798 -0.4023  0.3875 -0.0252
   78SLPC   C22 7099   1.914   4.399   6.930  0.3174 -0.0501 -0.9433
   78SLPC   H2R 7100   1.868   4.480   6.990 -2.4075 -1.5414 -0.8764
   78SLPC   H2S 7101   1.836   4.334   6.885  2.1713 -1.8208 -1.8081
   78SLPC    C3 7102   1.854   4.725   6.591 -0.2696 -0.3701 -0.3017
   78SLPC    HX 7103   1.765   4.685   6.538 -1.5244  0.6447  0.9495
   78SLPC    HY 7104   1.895   4.788   6.509 -0.1472 -0.8106 -0.5862
   78SLPC   O31 7105   1.817   4.816   6.702  0.5459  0.0959  0.1610
   78SLPC   C31 7106   1.699   4.782   6.757  0.0034  0.3517  0.7453
   78SLPC   O32 7107   1.620   4.705   6.710  0.1582 -0.1534  0.5075
   78SLPC   C32 7108   1.676   4.854   6.886  0.5311 -0.4636  0.1811
   78SLPC   H2X 7109   1.583   4.912   6.868  1.7853  0.9109 -2.5232
   78SLPC   H2Y 7110   1.760   4.922   6.910  0.2380 -0.8972  2.6630
   78SLPC   C23 7111   2.013   4.322   7.020  0.8233  0.2276 -0.2408
   78SLPC   H3R 7112   2.086   4.399   7.054  3.0288 -0.1908 -3.5105
   78SLPC   H3S 7113   2.071   4.252   6.956 -0.2388  1.2160 -2.3896
   78SLPC   C24 7114   1.970   4.243   7.149  0.2319 -0.4132 -0.1517
   78SLPC   H4R 7115   2.041   4.165   7.182 -0.2879 -0.6319  0.4697
   78SLPC   H4S 7116   1.872   4.207   7.112  0.3389  0.6273 -1.5653
   78SLPC   C25 7117   1.945   4.346   7.268 -0.1891  0.5283  0.1737
   78SLPC   H5R 7118   1.860   4.409   7.236 -1.4831  1.0729  4.1949
   78SLPC   H5S 7119   2.033   4.411   7.287  0.2396 -0.4723  1.7435
   78SLPC   C26 7120   1.911   4.285   7.407  1.0313 -0.1976 -0.2275
   78SLPC   H6R 7121   1.992   4.213   7.435  2.1097  0.6575 -1.0532
   78SLPC   H6S 7122   1.813   4.235   7.395  0.8703  0.2312 -0.7281
   78SLPC   C27 7123   1.907   4.393   7.527 -0.1708 -0.7413 -0.4515
   78SLPC   H7R 7124   1.873   4.488   7.481 -0.1634 -1.0723 -1.1599
   78SLPC   H7S 7125   2.007   4.409   7.572 -0.1152 -0.1180 -0.7842
   78SLPC   C28 7126   1.819   4.352   7.645 -0.1583 -0.0468 -0.2349
   78SLPC   H8R 7127   1.716   4.339   7.606 -0.0162 -0.7839 -0.3827
   78SLPC   H8S 7128   1.829   4.432   7.721  2.8593 -0.2541 -0.2957
   78SLPC   C29 7129   1.856   4.217   7.697  0.5279 -0.7361  0.3849
   78SLPC   H9R 7130   1.845   4.130   7.630  0.2047 -1.5333  1.4424
   78SLPC  C210 7131   1.896   4.196   7.824  0.1687  0.2308 -0.3600
   78SLPC  H10R 7132   1.934   4.097   7.854  4.9419  1.7516 -0.5453
   78SLPC  C211 7133   1.911   4.301   7.934  0.0526  0.4301  0.8332
   78SLPC  H11R 7134   1.936   4.398   7.886  0.2240 -0.3157 -0.6242
   78SLPC  H11S 7135   2.003   4.281   7.992  1.4459 -0.7266 -1.6455
   78SLPC  C212 7136   1.793   4.324   8.026  0.2396  0.7290 -0.0336
   78SLPC  H12R 7137   1.736   4.231   8.042 -2.9020  2.5270  0.0018
   78SLPC  C213 7138   1.762   4.434   8.098 -0.4762  0.1128 -0.3259
   78SLPC  H13R 7139   1.665   4.437   8.150 -0.3950 -1.4412 -0.0508
   78SLPC  C214 7140   1.832   4.562   8.074  0.1068 -0.1794 -0.2803
   78SLPC  H14R 7141   1.783   4.615   7.991  0.7771  1.6809  0.4568
   78SLPC  H14S 7142   1.938   4.554   8.043  0.3937  1.3366  0.2295
   78SLPC  C215 7143   1.815   4.661   8.188  0.0186  0.3030  0.3892
   78SLPC  H15R 7144   1.713   4.663   8.233 -0.7050 -1.0231 -1.0841
   78SLPC  H15S 7145   1.838   4.764   8.154  0.1729 -0.0983 -0.7670
   78SLPC  C216 7146   1.910   4.640   8.306  0.2658  0.0385 -0.5741
   78SLPC  H16R 7147   1.904   4.540   8.355  0.5431 -0.9685 -2.5148
   78SLPC  H16S 7148   1.891   4.716   8.385 -0.9227  0.2669 -1.0608
   78SLPC  C217 7149   2.066   4.638   8.268  0.1680 -0.2838 -1.0031
   78SLPC  H17R 7150   2.090   4.744   8.246  2.2532 -0.7658 -1.2422
   78SLPC  H17S 7151   2.092   4.574   8.181  3.0810  0.4901 -0.8007
   78SLPC  C218 7152   2.152   4.591   8.387  0.1664  0.4293  0.0449
   78SLPC  H18R 7153   2.114   4.494   8.427 -0.4502 -0.0267 -1.5709
   78SLPC  H18S 7154   2.155   4.667   8.468 -1.0450 -1.4761  2.0204
   78SLPC  H18T 7155   2.253   4.567   8.348 -0.4471  0.2475 -1.4984
   78SLPC   C33 7156   1.641   4.756   6.999 -0.2668 -0.1749  0.4976
   78SLPC   H3X 7157   1.717   4.675   7.006 -1.8753 -1.9743 -1.4975
   78SLPC   H3Y 7158   1.543   4.705   6.988  1.1292 -2.4727 -3.1045
   78SLPC   C34 7159   1.620   4.834   7.132  0.0744  0.3323 -0.6098
   78SLPC   H4X 7160   1.529   4.897   7.121 -0.1463 -0.1112 -1.4006
   78SLPC   H4Y 7161   1.699   4.912   7.139 -0.3383  0.7914 -1.0086
   78SLPC   C35 7162   1.603   4.748   7.255  0.1806  0.3338  0.2911
   78SLPC   H5X 7163   1.695   4.687   7.247 -0.3758 -0.3984 -0.8095
   78SLPC   H5Y 7164   1.511   4.688   7.235 -0.5812  1.2640  0.9327
   78SLPC   C36 7165   1.589   4.820   7.388  0.4154  0.4322  0.2918
   78SLPC   H6X 7166   1.485   4.860   7.394 -0.0379  0.2699 -3.7560
   78SLPC   H6Y 7167   1.671   4.893   7.402  1.6530 -0.5826 -1.3613
   78SLPC   C37 7168   1.607   4.729   7.510  0.1224 -0.4471  0.4608
   78SLPC   H7X 7169   1.716   4.710   7.523  0.9807  3.7848  0.8232
   78SLPC   H7Y 7170   1.560   4.632   7.484 -0.1490  0.0153 -0.8743
   78SLPC   C38 7171   1.546   4.796   7.628 -0.2971  0.1493 -0.2970
   78SLPC   H8X 7172   1.439   4.818   7.608 -0.0388  1.7746 -0.0023
   78SLPC   H8Y 7173   1.605   4.889   7.633 -0.8807  0.4977  0.2557
   78SLPC   C39 7174   1.548   4.706   7.752  0.2673  0.1619  0.1016
   78SLPC   H9X 7175   1.651   4.710   7.791 -0.6796 -1.5799  3.0369
   78SLPC   H9Y 7176   1.513   4.601   7.739 -2.1601  0.8410  0.5801
   78SLPC  C310 7177   1.454   4.768   7.862  0.0195 -0.4909 -0.7872
   78SLPC  H10X 7178   1.348   4.781   7.832 -0.5142 -2.7879 -0.1479
   78SLPC  H10Y 7179   1.496   4.867   7.886 -2.0478  0.5080 -1.0254
   78SLPC  C311 7180   1.451   4.687   7.999  0.1912  0.7128 -0.0362
   78SLPC  H11X 7181   1.556   4.661   8.022 -0.9167 -2.3629  2.0722
   78SLPC  H11Y 7182   1.399   4.593   7.971 -1.0613  1.0306  1.1269
   78SLPC  C312 7183   1.386   4.762   8.114  0.5751  0.1075  0.0580
   78SLPC  H12X 7184   1.286   4.808   8.099 -1.1972 -3.2267  0.6282
   78SLPC  H12Y 7185   1.459   4.843   8.134 -0.6670  1.4495 -0.6107
   78SLPC  C313 7186   1.376   4.664   8.233  0.4526 -0.3787  0.2188
   78SLPC  H13X 7187   1.481   4.629   8.242  0.7139  0.4226  0.3466
   78SLPC  H13Y 7188   1.303   4.580   8.228 -2.2868  1.8637 -0.3750
   78SLPC  C314 7189   1.335   4.743   8.357 -0.7967  0.3992 -0.1315
   78SLPC  H14X 7190   1.224   4.751   8.357 -0.7455  2.4154 -3.1045
   78SLPC  H14Y 7191   1.371   4.847   8.371 -3.5122  1.1909  1.8520
   78SLPC  C315 7192   1.357   4.664   8.483  0.3930  0.1423  0.4098
   78SLPC  H15X 7193   1.464   4.641   8.502  0.5688  0.3025 -0.3626
   78SLPC  H15Y 7194   1.313   4.562   8.478 -0.8319  0.7133 -0.8787
   78SLPC  C316 7195   1.291   4.731   8.607  0.0845 -0.2224  0.2210
   78SLPC  H16X 7196   1.295   4.839   8.581  3.9465 -0.7082 -1.9535
   78SLPC  H16Y 7197   1.350   4.723   8.700  0.7917 -2.4108 -0.3443
   78SLPC  C317 7198   1.147   4.676   8.621 -0.0387  0.3904  0.0775
   78SLPC  H17X 7199   1.164   4.567   8.630 -0.0190  0.3855 -0.0245
   78SLPC  H17Y 7200   1.086   4.709   8.535 -2.2206 -4.0277 -0.3627
   78SLPC  C318 7201   1.076   4.716   8.755  0.1971  0.2117  0.6294
   78SLPC  H18X 7202   1.133   4.683   8.844  3.1099  1.6291 -0.5711
   78SLPC  H18Y 7203   0.977   4.665   8.761 -0.0388  0.3256 -1.5429
   78SLPC  H18Z 7204   1.059   4.826   8.755  3.0256  0.8293 -2.9589
   79SLPC     N 7205   3.633   6.086   6.476  0.2777  0.2390  0.1612
   79SLPC   C13 7206   3.609   6.051   6.336  0.0212  0.5238  0.0821
   79SLPC  H13A 7207   3.550   6.128   6.289  0.1109 -1.0997 -2.9502
   79SLPC  H13B 7208   3.699   6.037   6.277 -0.3538  4.1068 -1.6349
   79SLPC  H13C 7209   3.541   5.968   6.328 -0.4016  0.9696 -1.1372
   79SLPC   C14 7210   3.718   5.975   6.530 -0.2859  0.1287 -0.0425
   79SLPC  H14A 7211   3.803   5.958   6.467 -2.4275  0.1884 -3.1422
   79SLPC  H14B 7212   3.739   5.996   6.634  0.4084 -0.4086 -0.0677
   79SLPC  H14C 7213   3.662   5.882   6.520 -0.5386  0.4324 -1.7378
   79SLPC   C15 7214   3.499   6.101   6.549 -0.4042 -0.1431  0.1466
   79SLPC  H15A 7215   3.515   6.134   6.650 -4.7994 -0.9153  1.3284
   79SLPC  H15B 7216   3.428   6.168   6.502  1.8463 -0.3163 -3.9389
   79SLPC  H15C 7217   3.441   6.012   6.569 -0.2374 -0.1750  0.4985
   79SLPC   C12 7218   3.707   6.216   6.506 -0.1462  0.1086  0.1940
   79SLPC  H12A 7219   3.659   6.294   6.450 -1.4889 -1.4206 -0.8444
   79SLPC  H12B 7220   3.811   6.208   6.476 -0.2268  0.3639 -0.1609
   79SLPC   C11 7221   3.730   6.266   6.653 -0.4288 -0.6252 -0.1022
   79SLPC  H11A 7222   3.821   6.330   6.651 -0.9314  0.2295  2.0942
   79SLPC  H11B 7223   3.754   6.179   6.718  1.1400  0.4389  0.8119
   79SLPC     P 7224   3.558   6.466   6.648 -0.0477 -0.1248  0.2085
   79SLPC   O13 7225   3.557   6.469   6.503 -0.0003 -1.3857  0.0488
   79SLPC   O14 7226   3.426   6.497   6.706 -0.1392 -0.3401  0.9950
   79SLPC   O12 7227   3.608   6.325   6.700 -0.1606 -0.1491  0.2700
   79SLPC   O11 7228   3.670   6.577   6.699  0.2489 -0.0179  0.3298
   79SLPC    C1 7229   3.701   6.592   6.833  0.4294  0.5608 -0.0996
   79SLPC    HA 7230   3.699   6.701   6.856  0.2514  0.1403  2.0220
   79SLPC    HB 7231   3.617   6.553   6.894 -0.3146 -0.7303 -1.8505
   79SLPC    C2 7232   3.843   6.536   6.863  1.1878  0.6664  0.7275
   79SLPC    HS 7233   3.838   6.426   6.845  3.6730  0.5572  0.2005
   79SLPC   O21 7234   3.877   6.577   6.995  0.1167 -0.6481  0.0293
   79SLPC   C21 7235   3.911   6.494   7.082 -0.0393  0.5539 -0.2785
   79SLPC   O22 7236   3.932   6.374   7.071 -0.5096  0.1321  0.2633
   79SLPC   C22 7237   3.942   6.574   7.217 -0.7215  0.4720  0.3163
   79SLPC   H2R 7238   3.984   6.670   7.182 -0.8507 -0.8648 -4.0074
   79SLPC   H2S 7239   3.848   6.612   7.265 -0.0598  2.5654  0.0757
   79SLPC    C3 7240   3.961   6.589   6.775 -0.4031  0.2601 -0.0626
   79SLPC    HX 7241   3.971   6.700   6.780 -1.8736  0.3767  2.0477
   79SLPC    HY 7242   3.946   6.557   6.670  3.2855  0.1442 -0.6874
   79SLPC   O31 7243   4.084   6.517   6.823 -0.2482 -0.4426  0.4446
   79SLPC   C31 7244   4.195   6.572   6.776 -0.1790 -0.0940  0.8792
   79SLPC   O32 7245   4.202   6.668   6.697  0.1746  0.1221 -0.5413
   79SLPC   C32 7246   4.308   6.503   6.845  0.0462  0.2932 -0.0589
   79SLPC   H2X 7247   4.401   6.546   6.801 -0.2172  1.5611  0.5850
   79SLPC   H2Y 7248   4.315   6.396   6.817  1.4011 -0.0442  1.3920
   79SLPC   C23 7249   4.039   6.503   7.312 -0.0884  0.4691  0.0248
   79SLPC   H3R 7250   4.125   6.471   7.250 -2.1645 -2.0268 -1.7771
   79SLPC   H3S 7251   3.996   6.408   7.352  0.7830 -0.0188 -0.1626
   79SLPC   C24 7252   4.082   6.596   7.427  0.2753  0.3109  0.3720
   79SLPC   H4R 7253   4.105   6.700   7.395  2.2158 -0.1721  0.0965
   79SLPC   H4S 7254   4.173   6.551   7.471 -0.9079  0.7423  3.5736
   79SLPC   C25 7255   3.965   6.590   7.531  0.7367 -0.3243  0.7690
   79SLPC   H5R 7256   3.927   6.485   7.534 -0.6613  0.0663 -1.3050
   79SLPC   H5S 7257   3.888   6.661   7.492 -1.1982 -1.6237  2.0121
   79SLPC   C26 7258   4.001   6.639   7.674 -0.5652  0.2408  0.0450
   79SLPC   H6R 7259   3.906   6.660   7.729 -0.1811 -1.6448  1.5526
   79SLPC   H6S 7260   4.060   6.733   7.673  0.2172 -0.2549 -0.4527
   79SLPC   C27 7261   4.082   6.532   7.756  0.3947 -0.5447 -0.4695
   79SLPC   H7R 7262   4.182   6.537   7.708  0.2322  0.3045 -0.7337
   79SLPC   H7S 7263   4.033   6.433   7.747  0.3820 -0.5918  0.0420
   79SLPC   C28 7264   4.100   6.582   7.902 -0.2110 -0.5324  0.3518
   79SLPC   H8R 7265   4.011   6.623   7.952  1.1076 -0.3953  2.7146
   79SLPC   H8S 7266   4.178   6.660   7.891  0.2306 -0.8102  1.4440
   79SLPC   C29 7267   4.150   6.464   7.979  0.1102 -0.5334  0.5191
   79SLPC   H9R 7268   4.223   6.393   7.936  0.7251  0.7289 -0.5836
   79SLPC  C210 7269   4.109   6.417   8.103  0.9298 -0.0884 -0.0800
   79SLPC  H10R 7270   4.163   6.328   8.139 -0.0771 -0.7062 -0.0592
   79SLPC  C211 7271   3.998   6.468   8.199 -0.8040  0.5311  0.1801
   79SLPC  H11R 7272   3.901   6.475   8.145 -0.7687  1.1203  0.1801
   79SLPC  H11S 7273   4.023   6.567   8.244 -1.0943  1.1112 -0.9054
   79SLPC  C212 7274   3.985   6.374   8.317 -0.4152  0.0059  0.2258
   79SLPC  H12R 7275   3.923   6.287   8.292  1.1486 -1.4495  1.1397
   79SLPC  C213 7276   4.026   6.391   8.445 -0.9769 -0.2348  0.1732
   79SLPC  H13R 7277   4.005   6.306   8.510 -1.8781 -1.2206 -1.3532
   79SLPC  C214 7278   4.097   6.503   8.506 -0.3080  0.3253 -0.3168
   79SLPC  H14R 7279   4.045   6.534   8.599 -0.8336 -1.1982 -0.0816
   79SLPC  H14S 7280   4.109   6.595   8.444  4.1989  0.9363  1.0568
   79SLPC  C215 7281   4.241   6.472   8.538 -0.0052  0.8932 -0.5362
   79SLPC  H15R 7282   4.292   6.456   8.440  3.5817  0.1683  1.3058
   79SLPC  H15S 7283   4.247   6.386   8.607 -1.2528  0.7229 -0.6092
   79SLPC  C216 7284   4.310   6.587   8.616 -0.1232 -0.1559  0.2882
   79SLPC  H16R 7285   4.267   6.612   8.715  2.1860  2.9706  0.6476
   79SLPC  H16S 7286   4.295   6.686   8.568 -0.6824  0.6161  1.9740
   79SLPC  C217 7287   4.463   6.568   8.645 -0.1201 -0.0015 -0.3929
   79SLPC  H17R 7288   4.502   6.522   8.552 -1.3983  1.0426 -1.4873
   79SLPC  H17S 7289   4.466   6.501   8.734  1.5333  0.6266  0.0711
   79SLPC  C218 7290   4.530   6.701   8.680 -0.7662 -0.4937  0.5243
   79SLPC  H18R 7291   4.501   6.783   8.611  1.1893  1.6435  2.1110
   79SLPC  H18S 7292   4.640   6.690   8.688 -0.7135  0.1260  0.6460
   79SLPC  H18T 7293   4.503   6.729   8.784  0.0040 -1.9409  1.1498
   79SLPC   C33 7294   4.315   6.528   7.000  0.2764 -0.4278 -0.4709
   79SLPC   H3X 7295   4.225   6.484   7.049  0.1394  1.3059  0.9735
   79SLPC   H3Y 7296   4.308   6.638   7.011  3.4321 -0.1810 -0.1335
   79SLPC   C34 7297   4.438   6.478   7.074 -0.1018  0.6654 -0.3628
   79SLPC   H4X 7298   4.521   6.547   7.047  1.9069 -1.3868  0.2833
   79SLPC   H4Y 7299   4.477   6.381   7.036  1.1761  0.8965  0.3145
   79SLPC   C35 7300   4.433   6.474   7.223 -0.1210  0.5504  0.2461
   79SLPC   H5X 7301   4.349   6.417   7.268  0.0806 -0.4790 -0.6229
   79SLPC   H5Y 7302   4.428   6.578   7.263  2.8014  0.2753  1.5949
   79SLPC   C36 7303   4.556   6.406   7.284 -0.5417  0.0855  0.3550
   79SLPC   H6X 7304   4.643   6.472   7.266 -0.2129 -0.4577 -0.0849
   79SLPC   H6Y 7305   4.576   6.312   7.229  0.8007  1.0910 -0.9580
   79SLPC   C37 7306   4.554   6.368   7.433  0.5328  0.1750 -0.9225
   79SLPC   H7X 7307   4.653   6.319   7.443 -0.0977 -0.9331  0.2882
   79SLPC   H7Y 7308   4.474   6.295   7.457  1.8383 -0.7555  0.9005
   79SLPC   C38 7309   4.550   6.491   7.532 -0.1921 -0.0973 -0.2575
   79SLPC   H8X 7310   4.455   6.545   7.514 -0.3218 -0.3334 -0.2881
   79SLPC   H8Y 7311   4.625   6.567   7.500 -0.0462  0.1659  0.6672
   79SLPC   C39 7312   4.554   6.469   7.688  0.4847 -0.1828  0.7197
   79SLPC   H9X 7313   4.646   6.412   7.709  0.4942  0.3088  2.1002
   79SLPC   H9Y 7314   4.459   6.415   7.709 -0.0770  0.7881  0.7686
   79SLPC  C310 7315   4.548   6.599   7.774  0.0783  0.7938 -0.2995
   79SLPC  H10X 7316   4.451   6.645   7.745 -2.3872 -3.0608  1.0192
   79SLPC  H10Y 7317   4.630   6.671   7.755  0.8110  0.1547  0.3629
   79SLPC  C311 7318   4.552   6.563   7.924 -0.4023  0.1683 -0.4368
   79SLPC  H11X 7319   4.640   6.498   7.945  1.2174  1.3427 -3.0603
   79SLPC  H11Y 7320   4.452   6.519   7.945 -0.5647  0.7877  0.1535
   79SLPC  C312 7321   4.575   6.682   8.018  0.7436  0.2800  0.0111
   79SLPC  H12X 7322   4.502   6.762   7.993 -0.3450  0.0372  2.1567
   79SLPC  H12Y 7323   4.675   6.727   8.002  1.2120 -0.7362  0.0008
   79SLPC  C313 7324   4.551   6.640   8.167 -0.3650 -0.0875  0.2370
   79SLPC  H13X 7325   4.611   6.547   8.179  1.1486  0.8898  0.3976
   79SLPC  H13Y 7326   4.444   6.616   8.185  0.1789 -2.2026  1.0474
   79SLPC  C314 7327   4.590   6.749   8.271 -0.1534 -0.2332  1.0822
   79SLPC  H14X 7328   4.551   6.700   8.363 -2.7335 -0.7745 -0.1988
   79SLPC  H14Y 7329   4.530   6.841   8.254 -0.5430 -0.3487  1.8169
   79SLPC  C315 7330   4.744   6.773   8.277  0.1784  0.1494 -0.6198
   79SLPC  H15X 7331   4.780   6.819   8.182 -0.6278  0.2766 -0.8790
   79SLPC  H15Y 7332   4.797   6.676   8.285  0.8904  0.6069  0.4172
   79SLPC  C316 7333   4.780   6.866   8.402 -0.5526 -0.2705 -0.1812
   79SLPC  H16X 7334   4.761   6.818   8.500 -2.3523 -1.3226 -1.0056
   79SLPC  H16Y 7335   4.722   6.959   8.385 -1.4715 -0.8715 -0.3889
   79SLPC  C317 7336   4.934   6.899   8.404 -0.1360  0.1386  0.0401
   79SLPC  H17X 7337   4.950   7.008   8.417 -0.9447  0.5648 -2.0762
   79SLPC  H17Y 7338   4.974   6.880   8.302 -0.9581  1.9258 -0.6415
   79SLPC  C318 7339   5.008   6.816   8.508 -0.3902 -0.3626  1.5967
   79SLPC  H18X 7340   4.965   6.715   8.528  1.0536 -1.4064 -0.2350
   79SLPC  H18Y 7341   5.001   6.866   8.607 -0.7913  0.0896  1.3406
   79SLPC  H18Z 7342   5.114   6.807   8.477 -0.3279  1.0905  1.3497
   80SLPC     N 7343   0.700   6.359   6.316 -0.1148  1.3745 -0.6030
   80SLPC   C13 7344   0.831   6.417   6.306 -0.4627 -0.9850  0.1434
   80SLPC  H13A 7345   0.848   6.473   6.215 -1.8377 -0.2210  0.3404
   80SLPC  H13B 7346   0.846   6.490   6.384 -0.8578  0.4643 -1.0850
   80SLPC  H13C 7347   0.906   6.339   6.307  0.8469  0.2200  1.9957
   80SLPC   C14 7348   0.607   6.465   6.260 -0.0584  0.6832 -0.1225
   80SLPC  H14A 7349   0.599   6.552   6.322 -0.2839  1.2698 -0.9647
   80SLPC  H14B 7350   0.649   6.499   6.166  2.8440 -3.3879 -0.6270
   80SLPC  H14C 7351   0.508   6.426   6.242 -0.2313  1.7491 -1.6414
   80SLPC   C15 7352   0.663   6.338   6.452  0.1006  0.8374 -0.0650
   80SLPC  H15A 7353   0.646   6.428   6.509 -0.2198  1.4674 -1.1406
   80SLPC  H15B 7354   0.569   6.286   6.465 -0.1823  1.0452 -1.2059
   80SLPC  H15C 7355   0.743   6.282   6.498  0.6956  0.2688 -1.7340
   80SLPC   C12 7356   0.689   6.223   6.241 -0.4208  0.8592  0.0784
   80SLPC  H12A 7357   0.751   6.149   6.291 -2.9978 -0.0870  2.1087
   80SLPC  H12B 7358   0.741   6.231   6.147  1.6856  1.6490  1.2338
   80SLPC   C11 7359   0.552   6.156   6.239 -0.5292 -0.4723 -0.4039
   80SLPC  H11A 7360   0.539   6.088   6.151 -0.8834  0.3719 -1.0233
   80SLPC  H11B 7361   0.476   6.236   6.222  0.2077  0.0600 -1.3291
   80SLPC     P 7362   0.575   5.957   6.387  0.0851 -0.1022  0.1057
   80SLPC   O13 7363   0.548   5.874   6.272  0.1272 -0.2881 -0.0706
   80SLPC   O14 7364   0.719   5.978   6.412 -0.0444 -0.1869 -0.6960
   80SLPC   O12 7365   0.511   6.096   6.361 -0.0497 -0.6199 -0.4005
   80SLPC   O11 7366   0.507   5.910   6.517 -0.3312 -0.1152 -0.2348
   80SLPC    C1 7367   0.491   6.001   6.632 -0.3647 -0.0254  0.3836
   80SLPC    HA 7368   0.474   6.104   6.593  1.3279 -0.4146 -1.5455
   80SLPC    HB 7369   0.404   5.962   6.689  0.5001 -1.0000  1.0676
   80SLPC    C2 7370   0.621   5.999   6.730 -0.0685 -0.3741  0.1150
   80SLPC    HS 7371   0.704   6.017   6.658 -1.0994  1.0739 -0.7777
   80SLPC   O21 7372   0.629   5.866   6.796  0.6413 -0.3324  0.4728
   80SLPC   C21 7373   0.756   5.809   6.796 -0.1417  0.7001  0.1596
   80SLPC   O22 7374   0.845   5.842   6.719  0.0200 -0.4026 -0.1852
   80SLPC   C22 7375   0.770   5.722   6.914  0.2759  0.0732 -1.2827
   80SLPC   H2R 7376   0.690   5.646   6.908  0.8727 -0.5018 -2.1782
   80SLPC   H2S 7377   0.871   5.675   6.915  0.4842  0.5083  0.1764
   80SLPC    C3 7378   0.634   6.113   6.833 -1.1145  0.1039 -0.3316
   80SLPC    HX 7379   0.563   6.117   6.919  1.3166 -0.2676  1.8017
   80SLPC    HY 7380   0.603   6.205   6.779 -1.6117  1.2373  1.7701
   80SLPC   O31 7381   0.775   6.111   6.878 -0.0439 -0.0249  0.1156
   80SLPC   C31 7382   0.853   6.214   6.839  0.2658 -0.3839 -0.2579
   80SLPC   O32 7383   0.820   6.296   6.753 -0.0224  0.0204 -0.2810
   80SLPC   C32 7384   0.995   6.212   6.896  0.4832 -0.4386  0.2084
   80SLPC   H2X 7385   1.021   6.308   6.947 -1.2515 -0.8894  2.0692
   80SLPC   H2Y 7386   1.071   6.206   6.815 -0.6614  0.3489 -0.9615
   80SLPC   C23 7387   0.747   5.799   7.055 -0.2211  0.7505 -0.2342
   80SLPC   H3R 7388   0.638   5.823   7.061 -1.0291 -2.4361 -0.6626
   80SLPC   H3S 7389   0.809   5.891   7.057  2.6686 -1.0450 -1.3638
   80SLPC   C24 7390   0.794   5.724   7.183  0.4705  0.3904 -0.4118
   80SLPC   H4R 7391   0.903   5.701   7.179 -0.0654 -2.4530 -0.6060
   80SLPC   H4S 7392   0.746   5.625   7.197  0.6683  0.4476  0.8182
   80SLPC   C25 7393   0.787   5.813   7.306  0.3923 -0.1626  0.3885
   80SLPC   H5R 7394   0.684   5.848   7.326 -0.7654 -1.8288 -2.2421
   80SLPC   H5S 7395   0.839   5.910   7.288 -2.0192  1.3735  1.2713
   80SLPC   C26 7396   0.839   5.756   7.435 -0.1216  0.5794 -0.2046
   80SLPC   H6R 7397   0.761   5.689   7.476 -0.6269  0.3558 -1.4752
   80SLPC   H6S 7398   0.852   5.832   7.515  0.4002 -1.2454  1.5069
   80SLPC   C27 7399   0.969   5.678   7.438 -0.4258  0.0446 -0.3336
   80SLPC   H7R 7400   1.035   5.742   7.376  0.4432  1.5688  2.0348
   80SLPC   H7S 7401   0.957   5.582   7.385  1.1228 -1.4057  1.7843
   80SLPC   C28 7402   1.029   5.663   7.576 -0.8329 -0.0678  0.3114
   80SLPC   H8R 7403   1.040   5.764   7.619  1.0027 -0.2394  0.3271
   80SLPC   H8S 7404   1.133   5.625   7.572 -0.0864  1.7273  1.6578
   80SLPC   C29 7405   0.937   5.566   7.653 -0.3669 -0.7460  0.6641
   80SLPC   H9R 7406   0.898   5.481   7.596 -0.1926 -0.7824  0.5978
   80SLPC  C210 7407   0.885   5.606   7.773 -0.2144 -0.2055 -0.1612
   80SLPC  H10R 7408   0.810   5.540   7.819 -0.0515 -1.4501 -1.5792
   80SLPC  C211 7409   0.921   5.735   7.847  0.1328  0.7307  0.2771
   80SLPC  H11R 7410   0.846   5.741   7.928  0.3933  1.2650  0.4839
   80SLPC  H11S 7411   0.896   5.810   7.769 -1.0527 -0.4094 -0.4843
   80SLPC  C212 7412   1.065   5.746   7.894 -0.3715  0.3836  0.5716
   80SLPC  H12R 7413   1.124   5.798   7.817  1.5864 -2.1676  0.2286
   80SLPC  C213 7414   1.128   5.689   7.997  0.0795  0.3627 -0.5460
   80SLPC  H13R 7415   1.234   5.715   8.013 -0.2290  1.8622 -0.7596
   80SLPC  C214 7416   1.066   5.606   8.100  0.5075  0.1924 -0.3425
   80SLPC  H14R 7417   1.123   5.511   8.107 -0.1904 -0.2035  0.1030
   80SLPC  H14S 7418   0.963   5.577   8.070  0.1603  2.0306 -1.0495
   80SLPC  C215 7419   1.052   5.669   8.251  0.6495 -0.9164  0.7355
   80SLPC  H15R 7420   1.003   5.767   8.235 -0.1280 -1.5078 -0.7216
   80SLPC  H15S 7421   1.156   5.686   8.287  1.3886 -1.7742 -0.8705
   80SLPC  C216 7422   0.968   5.594   8.358 -0.1255  0.2176  0.1346
   80SLPC  H16R 7423   0.983   5.484   8.357  1.0048  0.3477  0.8449
   80SLPC  H16S 7424   0.864   5.630   8.344  1.5596  5.1508 -2.3095
   80SLPC  C217 7425   1.010   5.642   8.501 -0.4205  0.3184  0.3106
   80SLPC  H17R 7426   0.991   5.750   8.522  2.0798  0.8005  0.3902
   80SLPC  H17S 7427   1.120   5.643   8.518 -0.5234 -0.1143  1.0697
   80SLPC  C218 7428   0.964   5.548   8.616  1.1010 -0.2220 -0.1357
   80SLPC  H18R 7429   0.993   5.441   8.605  2.7738  0.2573 -0.8231
   80SLPC  H18S 7430   0.854   5.555   8.628  1.3801  1.3213  1.9416
   80SLPC  H18T 7431   0.999   5.589   8.713 -3.3573  0.8909  1.2044
   80SLPC   C33 7432   1.002   6.105   7.000 -0.1676  0.6836  0.5890
   80SLPC   H3X 7433   0.964   6.012   6.953 -2.5585  2.5649 -1.4494
   80SLPC   H3Y 7434   0.929   6.145   7.073  0.1527  0.4737  1.0316
   80SLPC   C34 7435   1.146   6.098   7.059  0.4888  0.6293  0.4262
   80SLPC   H4X 7436   1.183   6.196   7.097  1.1022  0.4286  0.3481
   80SLPC   H4Y 7437   1.215   6.066   6.978  0.3722 -0.0475  0.5871
   80SLPC   C35 7438   1.159   5.987   7.164 -0.3352  0.1485 -0.0226
   80SLPC   H5X 7439   1.259   5.939   7.159 -0.0434  0.6676  0.6269
   80SLPC   H5Y 7440   1.084   5.912   7.132 -0.0020 -0.5110  0.7119
   80SLPC   C36 7441   1.123   6.029   7.310  0.0324  0.0532  0.4581
   80SLPC   H6X 7442   1.135   5.941   7.376  1.5581 -0.0116  0.1303
   80SLPC   H6Y 7443   1.022   6.076   7.315 -0.2049 -0.4875  0.7808
   80SLPC   C37 7444   1.231   6.123   7.370 -0.1159  0.4406  0.2059
   80SLPC   H7X 7445   1.246   6.213   7.306 -0.7365 -0.9281 -1.9856
   80SLPC   H7Y 7446   1.331   6.075   7.358 -0.6441 -0.8178  0.6585
   80SLPC   C38 7447   1.211   6.183   7.518  0.4956  0.1712 -0.2214
   80SLPC   H8X 7448   1.114   6.238   7.514 -0.7844 -1.3037  4.2608
   80SLPC   H8Y 7449   1.299   6.248   7.534  0.8582  0.0351 -1.5338
   80SLPC   C39 7450   1.198   6.072   7.621  0.5363 -0.2782 -0.4378
   80SLPC   H9X 7451   1.287   6.005   7.629  1.0480  0.4527  0.2658
   80SLPC   H9Y 7452   1.107   6.011   7.601 -0.5927  1.4671 -0.7705
   80SLPC  C310 7453   1.172   6.128   7.766  0.0385 -0.8246  0.1866
   80SLPC  H10X 7454   1.268   6.163   7.810 -0.8367  0.7711  0.8877
   80SLPC  H10Y 7455   1.126   6.040   7.816 -1.9872 -0.7868 -1.4698
   80SLPC  C311 7456   1.073   6.245   7.758 -0.1565 -0.3950  0.0107
   80SLPC  H11X 7457   0.989   6.216   7.691 -0.0715 -0.0605 -0.2411
   80SLPC  H11Y 7458   1.115   6.337   7.711  1.5906 -2.4652 -2.7852
   80SLPC  C312 7459   1.018   6.284   7.897 -0.2310  0.3130 -0.4935
   80SLPC  H12X 7460   1.104   6.295   7.965 -0.6985 -2.1415  0.6190
   80SLPC  H12Y 7461   0.951   6.204   7.937  0.9917  0.5636  2.2295
   80SLPC  C313 7462   0.945   6.419   7.905  0.0829  0.3568 -0.3952
   80SLPC  H13X 7463   0.872   6.434   7.822  0.6211  2.4111 -0.5497
   80SLPC  H13Y 7464   1.008   6.510   7.895 -2.0155  2.0398  0.7991
   80SLPC  C314 7465   0.876   6.436   8.042  0.4417  0.6078 -1.0051
   80SLPC  H14X 7466   0.828   6.339   8.066  2.3811  0.2248  1.7421
   80SLPC  H14Y 7467   0.805   6.520   8.030 -0.7018  0.1465  1.9138
   80SLPC  C315 7468   0.968   6.473   8.154  0.0532 -0.0730 -0.2114
   80SLPC  H15X 7469   1.016   6.569   8.127  1.6351 -0.4015  1.3194
   80SLPC  H15Y 7470   1.054   6.404   8.167  0.6258  0.7727  0.5529
   80SLPC  C316 7471   0.895   6.488   8.286 -0.4310 -0.3993 -0.3567
   80SLPC  H16X 7472   0.822   6.407   8.304 -1.5932  0.3503 -1.5500
   80SLPC  H16Y 7473   0.837   6.582   8.287  1.2253  0.7020 -1.4528
   80SLPC  C317 7474   0.995   6.495   8.392  0.0160  0.3681  0.7403
   80SLPC  H17X 7475   1.073   6.570   8.368 -1.0350  1.0006 -0.8364
   80SLPC  H17Y 7476   1.055   6.401   8.391  1.3479  1.1905 -1.1322
   80SLPC  C318 7477   0.936   6.512   8.540 -0.5005  0.3690  0.1400
   80SLPC  H18X 7478   0.906   6.619   8.543 -0.5015  0.4181 -1.2540
   80SLPC  H18Y 7479   1.014   6.486   8.615 -1.6021 -1.3670  0.7412
   80SLPC  H18Z 7480   0.852   6.439   8.550 -0.9331  0.7901 -0.3825
   81SAPS     N 7481   1.019   5.138  10.990 -0.5576 -0.4140 -0.5514
   81SAPS   HN1 7482   0.995   5.206  10.916  0.2195  1.4119  0.7978
   81SAPS   HN2 7483   1.121   5.119  10.978 -0.7821 -1.1356 -1.4117
   81SAPS   HN3 7484   0.960   5.055  10.968 -0.9310 -0.3749  0.2872
   81SAPS   C12 7485   0.987   5.208  11.118 -0.5874  0.4110  0.1366
   81SAPS  H12A 7486   0.886   5.242  11.102 -0.2702  0.3761 -2.5170
   81SAPS   C13 7487   0.984   5.106  11.240  0.3969  0.9968 -0.2585
   81SAPS  O13A 7488   1.004   4.984  11.221 -0.2816  0.4309  0.8000
   81SAPS  O13B 7489   0.950   5.150  11.353 -0.4745 -0.6115  0.8605
   81SAPS   C11 7490   1.095   5.319  11.139  0.1258 -0.2658  0.0439
   81SAPS  H11A 7491   1.189   5.267  11.170 -0.5820 -1.5963  0.0197
   81SAPS  H11B 7492   1.072   5.376  11.232  1.1823 -2.3543  1.6779
   81SAPS     P 7493   1.017   5.526  11.002 -0.1901  0.0461 -0.3424
   81SAPS   O13 7494   0.876   5.488  11.031  0.5131  0.5817  0.0325
   81SAPS   O14 7495   1.066   5.642  11.079  0.4718  0.1870 -0.2638
   81SAPS   O12 7496   1.113   5.409  11.025  0.2619 -0.0084  0.2552
   81SAPS   O11 7497   1.033   5.556  10.846  0.4351  0.7716 -0.3427
   81SAPS    C1 7498   1.159   5.537  10.776  0.0401  0.3228  0.3237
   81SAPS    HA 7499   1.242   5.518  10.847 -1.6018 -2.9152  1.5797
   81SAPS    HB 7500   1.162   5.456  10.700  0.5109 -0.6091  1.3342
   81SAPS    C2 7501   1.194   5.667  10.699  0.9610  0.0676 -0.2440
   81SAPS    HS 7502   1.210   5.743  10.779  1.9794 -0.0913 -0.2795
   81SAPS   O21 7503   1.087   5.708  10.609 -0.0913  0.3801  0.3809
   81SAPS   C21 7504   1.076   5.837  10.579 -0.1999  0.2439 -0.5296
   81SAPS   O22 7505   1.131   5.926  10.639 -0.3291 -0.4605 -0.0472
   81SAPS   C22 7506   0.973   5.853  10.465 -0.8694  0.2690  0.3687
   81SAPS   H2R 7507   0.981   5.772  10.390  0.0471  1.5426 -0.9643
   81SAPS   H2S 7508   0.871   5.843  10.508 -0.0751  1.5732  2.7736
   81SAPS    C3 7509   1.332   5.664  10.629 -0.0150 -0.4437  0.0792
   81SAPS    HX 7510   1.407   5.628  10.702  0.9031 -1.0066 -1.0991
   81SAPS    HY 7511   1.376   5.765  10.615 -1.7215  0.7164  2.4447
   81SAPS   O31 7512   1.332   5.597  10.500 -0.1659  0.4000 -0.4365
   81SAPS   C31 7513   1.387   5.477  10.492  0.2797  0.3236  0.3424
   81SAPS   O32 7514   1.423   5.415  10.593  0.4102  0.5031  0.3670
   81SAPS   C32 7515   1.405   5.430  10.352 -0.6560  0.8178  0.9402
   81SAPS   H2X 7516   1.369   5.325  10.351  1.1549  0.1615  0.2100
   81SAPS   H2Y 7517   1.512   5.433  10.321 -1.3233  0.6440 -1.5971
   81SAPS   C23 7518   0.980   5.994  10.394 -0.5808  0.1171 -0.5586
   81SAPS   H3R 7519   1.078   6.006  10.344 -0.7695  0.1269 -0.9324
   81SAPS   H3S 7520   0.973   6.065  10.480  0.0456 -0.4775 -0.0047
   81SAPS   C24 7521   0.854   6.016  10.311 -0.3204 -0.0836  0.4132
   81SAPS   H4R 7522   0.876   6.119  10.275  0.7896 -0.3746  0.2065
   81SAPS   H4S 7523   0.762   6.030  10.372 -0.9456 -0.5534 -0.4053
   81SAPS   C25 7524   0.820   5.942  10.181  0.0218  0.0885 -0.6092
   81SAPS   H5R 7525   0.723   5.894  10.165  0.1375  0.3254 -2.2423
   81SAPS   C26 7526   0.907   5.928  10.081  0.6285  0.0324  0.2613
   81SAPS   H6R 7527   0.868   5.876   9.992 -1.3560 -0.1080  1.1592
   81SAPS   C27 7528   1.049   5.983  10.071  0.6795  0.0682 -0.2047
   81SAPS   H7R 7529   1.069   6.078  10.125  0.8056  0.0895 -0.2872
   81SAPS   H7S 7530   1.076   6.007   9.966 -1.0128  0.1485 -0.6364
   81SAPS   C28 7531   1.148   5.874  10.096  0.3269 -0.1805 -0.3148
   81SAPS   H8R 7532   1.197   5.887  10.194  0.9304  0.3531 -0.6809
   81SAPS   C29 7533   1.217   5.795  10.013  0.4940  0.2352  0.2492
   81SAPS   H9R 7534   1.288   5.723  10.057  1.2944 -0.7771 -2.5208
   81SAPS  C210 7535   1.212   5.794   9.862 -0.9210  0.2164 -0.7881
   81SAPS  H10R 7536   1.205   5.899   9.827  1.0103  0.0926 -1.6820
   81SAPS  H10S 7537   1.124   5.738   9.823 -0.2298 -0.7157 -1.0349
   81SAPS  C211 7538   1.340   5.731   9.797  0.1721  0.5254  0.2095
   81SAPS  H11R 7539   1.430   5.751   9.857  0.0897 -0.5841  0.7316
   81SAPS  C212 7540   1.346   5.650   9.689  0.1649  0.2478 -0.7140
   81SAPS  H12R 7541   1.443   5.610   9.657  0.1754 -0.2428 -0.0840
   81SAPS  C213 7542   1.224   5.598   9.614 -0.0730  0.2901  0.3039
   81SAPS  H13R 7543   1.137   5.559   9.671 -1.3212  2.2598 -0.1475
   81SAPS  H13S 7544   1.255   5.505   9.561 -1.0014 -1.7207  3.0409
   81SAPS  C214 7545   1.174   5.710   9.520 -0.2429  0.2633 -0.6272
   81SAPS  H14R 7546   1.152   5.810   9.560  0.8224  0.2472  0.0428
   81SAPS  C215 7547   1.173   5.704   9.390  0.2023  0.5628 -0.2719
   81SAPS  H15R 7548   1.136   5.788   9.329 -0.4996 -0.9334 -2.0091
   81SAPS  C216 7549   1.225   5.594   9.305  0.4516 -0.2384  0.2739
   81SAPS  H16R 7550   1.196   5.501   9.358 -2.8512  0.1045 -0.6976
   81SAPS  H16S 7551   1.335   5.600   9.290  0.4485 -0.2238  0.2572
   81SAPS  C217 7552   1.150   5.584   9.164  0.2792  0.2967  0.5284
   81SAPS  H17R 7553   1.164   5.685   9.120  3.0682 -0.4385 -0.4768
   81SAPS  H17S 7554   1.043   5.555   9.171  0.5865 -0.8137  0.7797
   81SAPS  C218 7555   1.208   5.473   9.065 -0.2339  0.6558  0.5305
   81SAPS  H18R 7556   1.192   5.371   9.108 -1.9340  1.5263  2.1005
   81SAPS  H18S 7557   1.315   5.500   9.049 -0.7120  0.8129 -3.2018
   81SAPS  C219 7558   1.144   5.469   8.931 -0.4852 -0.0263 -0.1054
   81SAPS  H19R 7559   1.132   5.577   8.906 -1.2759  0.7329  3.1318
   81SAPS  H19S 7560   1.041   5.428   8.944 -0.8651  1.3187  1.5748
   81SAPS  C220 7561   1.237   5.390   8.834  0.2422 -0.5102 -0.4739
   81SAPS  H20R 7562   1.196   5.388   8.731  0.1641 -0.3682 -0.4456
   81SAPS  H20S 7563   1.255   5.288   8.874 -2.0180  0.5834  4.0956
   81SAPS  H20T 7564   1.336   5.440   8.830 -0.1542  0.4190  0.6818
   81SAPS   C33 7565   1.305   5.493  10.253 -0.7243  0.0107 -0.6243
   81SAPS   H3X 7566   1.345   5.590  10.215  1.1827 -1.2661 -2.0260
   81SAPS   H3Y 7567   1.210   5.525  10.301 -0.3146  0.6821 -0.2262
   81SAPS   C34 7568   1.287   5.414  10.125 -0.4411 -0.4799 -0.0176
   81SAPS   H4X 7569   1.221   5.480  10.064  1.5210  1.5815 -0.0431
   81SAPS   H4Y 7570   1.228   5.321  10.134  0.4187 -0.8297  2.5745
   81SAPS   C35 7571   1.412   5.379  10.041  0.0210 -0.8254  0.1199
   81SAPS   H5X 7572   1.482   5.313  10.095 -0.8464 -1.2302  0.7801
   81SAPS   H5Y 7573   1.461   5.478  10.027 -3.4061  0.9653 -0.6276
   81SAPS   C36 7574   1.372   5.296   9.913 -0.2123  0.0118 -0.2737
   81SAPS   H6X 7575   1.312   5.362   9.847  0.2580  2.5544  1.6996
   81SAPS   H6Y 7576   1.305   5.212   9.941 -0.8241  0.4348 -0.4536
   81SAPS   C37 7577   1.489   5.234   9.835  0.5782  0.1191  0.5270
   81SAPS   H7X 7578   1.527   5.138   9.877 -0.2173 -0.2074  0.5056
   81SAPS   H7Y 7579   1.575   5.304   9.827  0.9624 -0.4944 -1.2406
   81SAPS   C38 7580   1.456   5.209   9.686 -0.3240  0.5839  0.2748
   81SAPS   H8X 7581   1.445   5.302   9.628 -0.2373 -0.3678 -1.3190
   81SAPS   H8Y 7582   1.358   5.156   9.684  0.7334 -1.4682  0.0656
   81SAPS   C39 7583   1.539   5.103   9.607 -0.1298 -1.0963 -0.3847
   81SAPS   H9X 7584   1.511   5.000   9.635 -1.5230 -1.1400 -1.8300
   81SAPS   H9Y 7585   1.649   5.116   9.616  0.0186 -1.4557 -1.4973
   81SAPS  C310 7586   1.495   5.117   9.459  0.1778 -0.2345  0.0316
   81SAPS  H10X 7587   1.523   5.215   9.417  2.1395  0.0576  1.8705
   81SAPS  H10Y 7588   1.384   5.106   9.456  0.0184  1.2977 -0.9585
   81SAPS  C311 7589   1.541   4.997   9.367  0.5400  0.3911  0.2712
   81SAPS  H11X 7590   1.519   4.903   9.421  0.1277  0.8335  0.8934
   81SAPS  H11Y 7591   1.648   4.995   9.338  1.1654  2.0785  2.2589
   81SAPS  C312 7592   1.475   4.996   9.225 -0.0708  0.3279 -0.1818
   81SAPS  H12X 7593   1.370   4.966   9.243 -0.0889 -0.0959 -0.9500
   81SAPS  H12Y 7594   1.511   4.911   9.163 -1.6692 -0.7649  0.3244
   81SAPS  C313 7595   1.497   5.126   9.142 -0.0027  0.5459 -0.9350
   81SAPS  H13X 7596   1.594   5.178   9.153  1.2827 -1.6983 -1.0195
   81SAPS  H13Y 7597   1.424   5.195   9.189  1.4819  2.5786 -1.4888
   81SAPS  C314 7598   1.461   5.105   8.992 -0.0278  0.0874 -0.0344
   81SAPS  H14X 7599   1.460   5.209   8.952  0.8515  0.3542  0.5985
   81SAPS  H14Y 7600   1.356   5.072   8.974 -0.9830  2.5539  0.6272
   81SAPS  C315 7601   1.569   5.026   8.917  0.3641  0.3939 -0.4203
   81SAPS  H15X 7602   1.561   4.918   8.942  3.1143  0.5277  1.3697
   81SAPS  H15Y 7603   1.673   5.054   8.941  0.5055  1.9210 -2.5078
   81SAPS  C316 7604   1.562   5.040   8.767  0.6166 -0.1829  0.3814
   81SAPS  H16X 7605   1.580   5.146   8.742  0.0918 -0.4724 -1.3390
   81SAPS  H16Y 7606   1.460   5.022   8.728  1.3191  0.6680 -2.0114
   81SAPS  C317 7607   1.662   4.949   8.698  0.3387 -0.3176  0.1034
   81SAPS  H17X 7608   1.664   4.848   8.744 -1.5575 -0.7925 -0.7424
   81SAPS  H17Y 7609   1.763   4.989   8.718  0.4703  0.3558 -1.7659
   81SAPS  C318 7610   1.641   4.940   8.547 -0.1109 -0.9664  0.6381
   81SAPS  H18X 7611   1.703   4.868   8.489 -2.3659 -1.3625 -1.4665
   81SAPS  H18Y 7612   1.649   5.042   8.505  0.4205 -1.3236 -0.1556
   81SAPS  H18Z 7613   1.534   4.920   8.521  0.2455  0.3755 -2.3489
   82SAPS     N 7614   5.106   0.187  10.973  0.6139 -0.0899  0.2617
   82SAPS   HN1 7615   5.003   0.194  10.971  0.6341  0.2129  0.1585
   82SAPS   HN2 7616   5.144   0.280  11.000  2.5882 -0.3558 -1.3150
   82SAPS   HN3 7617   5.143   0.171  10.877  2.7558  4.9667 -0.0567
   82SAPS   C12 7618   5.150   0.083  11.070 -0.5269 -0.1316 -0.0090
   82SAPS  H12A 7619   5.253   0.101  11.098 -0.7651  0.5317  0.4513
   82SAPS   C13 7620   5.078   0.109  11.204 -0.1566  0.4115  0.8429
   82SAPS  O13A 7621   5.021   0.220  11.236  0.0126 -0.1458  0.5480
   82SAPS  O13B 7622   5.106   0.024  11.294  0.0229  0.5641 -0.2404
   82SAPS   C11 7623   5.124  -0.060  11.022 -0.1209  0.6629  0.1044
   82SAPS  H11A 7624   5.014  -0.062  11.009 -0.3088  1.9826  1.1967
   82SAPS  H11B 7625   5.162  -0.123  11.104 -0.4408  0.8507  0.4002
   82SAPS     P 7626   5.332  -0.151  10.872  0.2866 -0.2118 -0.0130
   82SAPS   O13 7627   5.420  -0.051  10.936  0.2150 -0.2607 -0.2913
   82SAPS   O14 7628   5.332  -0.286  10.937  0.4401 -0.6978  0.1403
   82SAPS   O12 7629   5.176  -0.094  10.893 -0.0529  0.5290 -0.7121
   82SAPS   O11 7630   5.356  -0.162  10.714  0.2183 -0.0007  0.3590
   82SAPS    C1 7631   5.276  -0.259  10.636 -0.0025 -0.2104 -0.0070
   82SAPS    HA 7632   5.255  -0.351  10.695  2.1724  0.5172  2.0737
   82SAPS    HB 7633   5.180  -0.209  10.609 -0.2884 -0.0507  1.2463
   82SAPS    C2 7634   5.340  -0.298  10.498  1.2585  0.1825  0.5289
   82SAPS    HS 7635   5.445  -0.336  10.507  0.9686 -1.0910 -0.9870
   82SAPS   O21 7636   5.339  -0.183  10.422  0.2456 -0.1936  0.6821
   82SAPS   C21 7637   5.367  -0.196  10.294  0.3881 -0.4306 -0.1140
   82SAPS   O22 7638   5.431  -0.282  10.245 -0.2860  0.7498  0.4598
   82SAPS   C22 7639   5.308  -0.066  10.214  0.3347  1.4832 -0.1138
   82SAPS   H2R 7640   5.349   0.024  10.263  1.6691  0.7657  0.1292
   82SAPS   H2S 7641   5.350  -0.068  10.111  2.1803  0.1834  0.6183
   82SAPS    C3 7642   5.266  -0.417  10.422  0.1796  0.5280  0.6828
   82SAPS    HX 7643   5.262  -0.512  10.480  1.1215  0.1792  0.2150
   82SAPS    HY 7644   5.335  -0.450  10.341  3.0359  2.1277  2.3136
   82SAPS   O31 7645   5.140  -0.372  10.369 -0.2136  0.4377 -0.4115
   82SAPS   C31 7646   5.027  -0.371  10.450 -0.1755 -0.1307  0.4137
   82SAPS   O32 7647   5.022  -0.412  10.560  0.1949  0.1837  0.3049
   82SAPS   C32 7648   4.906  -0.322  10.368  0.0180  0.6632 -0.8489
   82SAPS   H2X 7649   4.887  -0.384  10.277 -2.3468  1.0008 -0.6516
   82SAPS   H2Y 7650   4.935  -0.217  10.347 -0.9599  0.6174 -2.6909
   82SAPS   C23 7651   5.156  -0.043  10.218  0.6156 -0.0426  0.0254
   82SAPS   H3R 7652   5.137   0.008  10.315  0.9885  1.8020 -0.8412
   82SAPS   H3S 7653   5.102  -0.141  10.219 -1.1370  0.8770  1.2906
   82SAPS   C24 7654   5.096   0.042  10.104  0.4789  0.2439 -0.2430
   82SAPS   H4R 7655   5.164   0.130  10.111 -0.6160  1.0145  1.2151
   82SAPS   H4S 7656   4.991   0.067  10.130 -0.1044 -0.8189 -1.4413
   82SAPS   C25 7657   5.105  -0.028   9.974 -0.5901 -0.0046 -0.0388
   82SAPS   H5R 7658   5.202  -0.024   9.922 -0.7643 -1.1521 -0.4826
   82SAPS   C26 7659   4.998  -0.074   9.904 -0.2827 -0.5359 -0.7218
   82SAPS   H6R 7660   5.012  -0.124   9.806 -2.4640 -3.0698  0.1292
   82SAPS   C27 7661   4.852  -0.061   9.945  0.7982 -0.2806  0.0600
   82SAPS   H7R 7662   4.844  -0.081  10.054  1.8138  1.6308  0.5139
   82SAPS   H7S 7663   4.796  -0.149   9.906  1.0197 -0.7991  0.8923
   82SAPS   C28 7664   4.779   0.068   9.902 -0.2817 -0.1627  0.1235
   82SAPS   H8R 7665   4.772   0.148   9.977  0.1517  1.2302 -1.2733
   82SAPS   C29 7666   4.734   0.099   9.778 -0.3207 -0.5974 -0.6024
   82SAPS   H9R 7667   4.689   0.198   9.758 -0.4942  0.1756  2.9476
   82SAPS  C210 7668   4.741   0.005   9.661  0.2986 -0.3550 -0.7616
   82SAPS  H10R 7669   4.643   0.001   9.609  0.4654  0.4496 -1.1436
   82SAPS  H10S 7670   4.755  -0.100   9.697 -1.2791 -0.9619 -1.8006
   82SAPS  C211 7671   4.852   0.040   9.575  0.6277 -0.1331  0.6650
   82SAPS  H11R 7672   4.952  -0.001   9.595  1.7050 -0.0993 -3.7031
   82SAPS  C212 7673   4.835   0.104   9.455 -0.6949  0.3061 -0.2256
   82SAPS  H12R 7674   4.926   0.139   9.404  0.8755 -1.3425  1.3463
   82SAPS  C213 7675   4.700   0.148   9.398  0.6254  0.2480  0.0521
   82SAPS  H13R 7676   4.648   0.209   9.475 -0.0551  1.8662 -1.5950
   82SAPS  H13S 7677   4.623   0.068   9.401  1.0801 -0.1567  2.7607
   82SAPS  C214 7678   4.698   0.217   9.267 -0.2505 -0.3153 -0.1467
   82SAPS  H14R 7679   4.782   0.283   9.245 -0.4579  0.0636  0.1894
   82SAPS  C215 7680   4.608   0.204   9.170 -0.6779 -0.1466  0.4398
   82SAPS  H15R 7681   4.617   0.269   9.082 -1.3053 -1.2751 -0.4950
   82SAPS  C216 7682   4.490   0.113   9.161  0.5113 -0.0743 -0.4865
   82SAPS  H16R 7683   4.447   0.095   9.262  0.2403 -0.7170 -0.7141
   82SAPS  H16S 7684   4.508   0.018   9.106 -0.2052  1.1216 -2.8948
   82SAPS  C217 7685   4.387   0.205   9.098 -0.8524 -0.8805 -0.1973
   82SAPS  H17R 7686   4.413   0.230   8.993  2.6548  0.0789  0.7429
   82SAPS  H17S 7687   4.372   0.293   9.164  0.2324 -0.4478 -0.4946
   82SAPS  C218 7688   4.249   0.136   9.088  0.1616  0.3484  0.9171
   82SAPS  H18R 7689   4.173   0.218   9.086  0.9696  1.0945  0.4403
   82SAPS  H18S 7690   4.230   0.068   9.174 -0.4497 -0.9160 -0.1662
   82SAPS  C219 7691   4.247   0.040   8.971 -0.0956  0.0977 -0.1102
   82SAPS  H19R 7692   4.338  -0.023   8.978 -1.6445 -2.2490  0.0699
   82SAPS  H19S 7693   4.255   0.093   8.874  0.4551  1.4543  0.6427
   82SAPS  C220 7694   4.119  -0.037   8.988 -0.1924  0.3845 -0.0952
   82SAPS  H20R 7695   4.127  -0.145   8.965 -1.4914  0.0337  0.9850
   82SAPS  H20S 7696   4.025   0.000   8.942 -1.5869  0.7671  2.8128
   82SAPS  H20T 7697   4.103  -0.059   9.096  2.1478  0.9170  0.4313
   82SAPS   C33 7698   4.780  -0.320  10.460 -0.5294  0.9070  0.7033
   82SAPS   H3X 7699   4.811  -0.250  10.541  1.0700  0.4485  0.5176
   82SAPS   H3Y 7700   4.759  -0.423  10.495 -0.7413  1.1511  1.3274
   82SAPS   C34 7701   4.653  -0.274  10.391  0.6566  0.1534  0.2990
   82SAPS   H4X 7702   4.668  -0.175  10.343 -1.1684  0.4808  0.3553
   82SAPS   H4Y 7703   4.585  -0.275  10.479  0.6637 -1.4190  0.3119
   82SAPS   C35 7704   4.599  -0.365  10.272 -0.7492 -0.2122  0.8466
   82SAPS   H5X 7705   4.586  -0.468  10.311  3.6871 -0.6276  1.8286
   82SAPS   H5Y 7706   4.666  -0.369  10.182 -1.9636  2.6501 -0.3274
   82SAPS   C36 7707   4.460  -0.322  10.224 -0.0050 -0.7708 -0.0364
   82SAPS   H6X 7708   4.462  -0.210  10.221  0.6490 -0.7910 -0.5578
   82SAPS   H6Y 7709   4.382  -0.342  10.301  0.5683  2.3297  1.5144
   82SAPS   C37 7710   4.421  -0.370  10.083  0.3602 -0.4922 -0.2877
   82SAPS   H7X 7711   4.315  -0.340  10.070  0.6739 -0.1239 -2.3040
   82SAPS   H7Y 7712   4.427  -0.480  10.076 -0.6675 -0.7610  2.1201
   82SAPS   C38 7713   4.497  -0.302   9.960  0.0702 -0.5962 -0.6262
   82SAPS   H8X 7714   4.605  -0.317   9.980  0.0038  0.6324  0.8338
   82SAPS   H8Y 7715   4.474  -0.194   9.963  1.3765 -0.3289  1.4810
   82SAPS   C39 7716   4.479  -0.360   9.824 -0.2038  1.0009  1.0194
   82SAPS   H9X 7717   4.461  -0.469   9.834 -1.4712  1.1145  0.2118
   82SAPS   H9Y 7718   4.573  -0.347   9.766 -0.0246  2.5223  1.6007
   82SAPS  C310 7719   4.364  -0.311   9.737  0.3031  0.0428  0.0424
   82SAPS  H10X 7720   4.384  -0.202   9.727  1.6497 -0.1461  0.5057
   82SAPS  H10Y 7721   4.265  -0.321   9.786  0.4695  1.5658  0.7424
   82SAPS  C311 7722   4.360  -0.363   9.600 -0.3122 -0.1281  0.3106
   82SAPS  H11X 7723   4.316  -0.465   9.600 -2.5795  0.7647 -1.2296
   82SAPS  H11Y 7724   4.464  -0.372   9.562  0.1093  1.9884  0.8348
   82SAPS  C312 7725   4.292  -0.264   9.514  0.0092  0.5539  0.8458
   82SAPS  H12X 7726   4.318  -0.161   9.548 -0.6668  1.0357 -0.0600
   82SAPS  H12Y 7727   4.182  -0.273   9.526 -0.0670  0.0767 -0.1857
   82SAPS  C313 7728   4.327  -0.288   9.372 -0.4757  0.0312 -0.2124
   82SAPS  H13X 7729   4.434  -0.319   9.366 -0.8236 -1.2469 -0.2068
   82SAPS  H13Y 7730   4.306  -0.202   9.306  0.3736  0.2413 -0.2222
   82SAPS  C314 7731   4.258  -0.413   9.326  0.3874 -0.0276 -0.0693
   82SAPS  H14X 7732   4.166  -0.430   9.385  0.4887 -0.7111 -0.0907
   82SAPS  H14Y 7733   4.335  -0.493   9.337 -0.6500 -1.1410 -0.5860
   82SAPS  C315 7734   4.213  -0.412   9.173  0.1330 -0.3622 -0.1169
   82SAPS  H15X 7735   4.298  -0.372   9.114  1.1421 -1.4442  0.5617
   82SAPS  H15Y 7736   4.122  -0.348   9.171  1.0134  0.9000 -1.3992
   82SAPS  C316 7737   4.170  -0.552   9.124  0.3467 -0.2490 -0.4626
   82SAPS  H16X 7738   4.100  -0.590   9.202  1.4630  1.7999  1.6584
   82SAPS  H16Y 7739   4.251  -0.628   9.119  0.6833  0.0225  0.6224
   82SAPS  C317 7740   4.096  -0.549   8.983  0.3135  0.3153 -0.5984
   82SAPS  H17X 7741   4.012  -0.477   8.982  0.6947  0.8469  1.3307
   82SAPS  H17Y 7742   4.049  -0.649   8.973 -0.8578  0.7033  0.6838
   82SAPS  C318 7743   4.192  -0.528   8.865  0.4121 -0.1341  1.0437
   82SAPS  H18X 7744   4.137  -0.515   8.770  0.2770  3.0246  1.4473
   82SAPS  H18Y 7745   4.256  -0.619   8.865 -0.1049 -0.5264 -0.5042
   82SAPS  H18Z 7746   4.262  -0.444   8.885 -0.7948  0.8699  1.1454
   83SAPS     N 7747   1.192   6.769  11.567  0.4606 -0.7937 -0.3086
   83SAPS   HN1 7748   1.268   6.838  11.553 -0.0964  0.3523  1.9043
   83SAPS   HN2 7749   1.120   6.807  11.631  1.0782  2.2545 -1.2719
   83SAPS   HN3 7750   1.242   6.690  11.613 -0.1960 -0.5504  0.8433
   83SAPS   C12 7751   1.112   6.718  11.448 -0.1925  0.1136 -0.1230
   83SAPS  H12A 7752   1.029   6.654  11.473 -0.8914  1.1705  0.3525
   83SAPS   C13 7753   1.056   6.844  11.373 -0.8527 -0.0815  0.5565
   83SAPS  O13A 7754   1.058   6.963  11.419 -0.1283  0.6779  0.0237
   83SAPS  O13B 7755   0.988   6.807  11.275 -0.1111  0.4696 -0.1353
   83SAPS   C11 7756   1.200   6.641  11.353 -0.4724  0.3741  0.3576
   83SAPS  H11A 7757   1.295   6.698  11.345 -1.7011  2.3983 -0.5959
   83SAPS  H11B 7758   1.159   6.651  11.250  0.7181  0.6512 -0.1083
   83SAPS     P 7759   1.139   6.388  11.336  0.2037 -0.2692  0.2414
   83SAPS   O13 7760   1.177   6.262  11.394  0.1165  0.0704  0.7753
   83SAPS   O14 7761   0.992   6.425  11.347 -0.5534 -0.3327  0.2806
   83SAPS   O12 7762   1.221   6.507  11.406  0.0722 -0.2913 -0.1230
   83SAPS   O11 7763   1.176   6.387  11.184 -0.3355 -0.0421 -0.2564
   83SAPS    C1 7764   1.080   6.350  11.084 -0.1291  0.1721  0.0392
   83SAPS    HA 7765   1.101   6.244  11.059 -1.6563 -0.1088 -0.1224
   83SAPS    HB 7766   0.975   6.366  11.115 -0.6312 -1.0048 -1.0097
   83SAPS    C2 7767   1.080   6.443  10.953  0.0368  0.0289 -0.4979
   83SAPS    HS 7768   0.980   6.435  10.905 -0.4423  0.8851  0.3329
   83SAPS   O21 7769   1.180   6.404  10.859 -0.8977  0.4927  0.2439
   83SAPS   C21 7770   1.153   6.317  10.765  0.4416 -0.8837 -0.5872
   83SAPS   O22 7771   1.039   6.276  10.745 -0.0429 -0.5522 -0.3998
   83SAPS   C22 7772   1.278   6.290  10.681 -0.2794  0.3472  0.1127
   83SAPS   H2R 7773   1.371   6.273  10.739 -0.2710  1.1998  0.3619
   83SAPS   H2S 7774   1.255   6.193  10.631  1.4959  0.4738 -1.0274
   83SAPS    C3 7775   1.107   6.593  10.995 -0.3279  0.4942 -0.6526
   83SAPS    HX 7776   1.205   6.602  11.047 -1.1093 -0.7714  1.1517
   83SAPS    HY 7777   1.034   6.612  11.077 -0.7064  0.9210 -1.0825
   83SAPS   O31 7778   1.079   6.682  10.897 -0.5000 -0.2530  0.9964
   83SAPS   C31 7779   1.187   6.724  10.837  0.1885  0.8612 -0.1852
   83SAPS   O32 7780   1.298   6.671  10.860  0.4775  0.2590 -0.0311
   83SAPS   C32 7781   1.145   6.832  10.737 -0.2525  0.3133 -0.5912
   83SAPS   H2X 7782   1.205   6.909  10.791 -2.8083  1.2354  1.1151
   83SAPS   H2Y 7783   1.039   6.863  10.749 -0.1392  1.1378 -1.5660
   83SAPS   C23 7784   1.285   6.393  10.571  0.0966  0.2463  0.0897
   83SAPS   H3R 7785   1.289   6.497  10.610 -1.4299  0.0453  0.8588
   83SAPS   H3S 7786   1.191   6.389  10.513  0.8625  0.0414 -1.1597
   83SAPS   C24 7787   1.405   6.354  10.484  0.0037 -0.2970  0.0551
   83SAPS   H4R 7788   1.421   6.245  10.471 -0.4709 -0.2037 -1.5313
   83SAPS   H4S 7789   1.498   6.384  10.537  1.2158 -0.7521 -1.7153
   83SAPS   C25 7790   1.403   6.425  10.347 -0.2194  0.0721 -0.4471
   83SAPS   H5R 7791   1.474   6.509  10.341 -0.6979  0.6981  1.5091
   83SAPS   C26 7792   1.331   6.397  10.240  0.4816 -0.2971  0.0562
   83SAPS   H6R 7793   1.335   6.462  10.152  0.8002  0.1598  0.3984
   83SAPS   C27 7794   1.210   6.297  10.232 -0.4184 -0.0041 -0.1834
   83SAPS   H7R 7795   1.189   6.243  10.326  0.7736 -1.1749 -0.5679
   83SAPS   H7S 7796   1.232   6.214  10.162  0.7262  0.2695 -0.1647
   83SAPS   C28 7797   1.084   6.370  10.192 -0.0811  0.1976  0.7640
   83SAPS   H8R 7798   1.014   6.406  10.270  0.4793  1.6254  0.6430
   83SAPS   C29 7799   1.061   6.404  10.058  0.2122  0.4136 -0.4776
   83SAPS   H9R 7800   0.961   6.444  10.037  0.3082  2.0340  1.8184
   83SAPS  C210 7801   1.132   6.383   9.925  0.2289  0.1984 -0.4980
   83SAPS  H10R 7802   1.220   6.316   9.935 -1.2859 -1.6964  0.7181
   83SAPS  H10S 7803   1.159   6.486   9.894  1.7186 -0.0430 -0.0890
   83SAPS  C211 7804   1.049   6.322   9.815  0.0484  0.0092  0.5216
   83SAPS  H11R 7805   1.012   6.224   9.849  0.5315  0.2542  1.8337
   83SAPS  C212 7806   1.019   6.367   9.692 -0.5024 -0.5916 -0.4482
   83SAPS  H12R 7807   0.965   6.313   9.613 -1.7278  0.5871 -0.4323
   83SAPS  C213 7808   1.073   6.495   9.640 -0.1591  0.2567 -0.3717
   83SAPS  H13R 7809   1.133   6.464   9.551 -0.0808  1.3048 -0.6988
   83SAPS  H13S 7810   1.153   6.533   9.707 -1.8333  0.8891  1.3665
   83SAPS  C214 7811   0.975   6.602   9.599  1.1204  0.2247  0.5034
   83SAPS  H14R 7812   0.932   6.670   9.674  0.7082  1.9078 -1.1860
   83SAPS  C215 7813   0.916   6.628   9.479  0.9755 -0.1248  0.6202
   83SAPS  H15R 7814   0.827   6.690   9.462  0.3698 -1.6515 -2.4103
   83SAPS  C216 7815   0.937   6.559   9.350  0.0752 -0.0213  0.6427
   83SAPS  H16R 7816   0.835   6.533   9.316 -0.4619 -0.0024  2.1291
   83SAPS  H16S 7817   0.991   6.462   9.357  0.6026  0.2353  0.2018
   83SAPS  C217 7818   1.009   6.641   9.234 -0.0346  0.0342 -0.0550
   83SAPS  H17R 7819   1.114   6.606   9.237  0.5201  1.7109  1.2790
   83SAPS  H17S 7820   1.029   6.745   9.267 -0.1427 -0.3774  1.3832
   83SAPS  C218 7821   0.930   6.646   9.095 -0.2917 -0.0707 -0.3375
   83SAPS  H18R 7822   0.981   6.716   9.025 -0.3602  1.0754  0.7120
   83SAPS  H18S 7823   0.828   6.690   9.101  0.1311  0.9071 -0.1107
   83SAPS  C219 7824   0.924   6.518   9.019 -0.2654 -0.0196  0.0887
   83SAPS  H19R 7825   0.859   6.526   8.929 -0.5114 -1.2630  0.1400
   83SAPS  H19S 7826   0.856   6.449   9.072  0.9933 -1.2649  0.1462
   83SAPS  C220 7827   1.051   6.456   8.980 -0.2642  0.3064 -0.6686
   83SAPS  H20R 7828   1.125   6.533   8.947  1.8795  0.2301  3.2980
   83SAPS  H20S 7829   1.038   6.377   8.903  3.1508 -1.5291  0.3958
   83SAPS  H20T 7830   1.097   6.401   9.065  2.2514  0.2703 -1.9567
   83SAPS   C33 7831   1.193   6.798  10.598 -0.0994 -0.0061  0.1598
   83SAPS   H3X 7832   1.299   6.765  10.588  1.4627  4.1964  0.8026
   83SAPS   H3Y 7833   1.180   6.896  10.547 -1.6090 -0.3481 -0.1580
   83SAPS   C34 7834   1.110   6.699  10.521 -0.1174 -0.3182 -0.2679
   83SAPS   H4X 7835   1.004   6.732  10.529  0.3500  1.5361 -1.0560
   83SAPS   H4Y 7836   1.103   6.598  10.567 -0.5560  0.4907  1.5391
   83SAPS   C35 7837   1.148   6.690  10.372 -0.3049  0.2779  0.3992
   83SAPS   H5X 7838   1.077   6.623  10.319  3.0779 -2.2839 -1.2976
   83SAPS   H5Y 7839   1.251   6.649  10.368 -0.5085 -0.1179 -1.6563
   83SAPS   C36 7840   1.154   6.818  10.293 -0.6968 -0.2909  0.9934
   83SAPS   H6X 7841   1.256   6.862  10.302 -0.9248  0.4754  0.0542
   83SAPS   H6Y 7842   1.080   6.896  10.321  2.2577  2.3770  1.9888
   83SAPS   C37 7843   1.135   6.789  10.137 -0.5922 -0.3257 -0.2552
   83SAPS   H7X 7844   1.038   6.739  10.112 -1.8851  2.0821 -0.3690
   83SAPS   H7Y 7845   1.226   6.736  10.103  1.8175  1.4518  2.9119
   83SAPS   C38 7846   1.132   6.912  10.049 -0.3794 -0.1048 -0.4408
   83SAPS   H8X 7847   1.214   6.973  10.093 -1.4785  0.0362  1.5151
   83SAPS   H8Y 7848   1.035   6.962  10.072 -0.4910 -0.7476  0.5214
   83SAPS   C39 7849   1.142   6.882   9.901  0.3353  0.3032 -0.1458
   83SAPS   H9X 7850   1.068   6.802   9.875 -0.8677  0.8779  1.3409
   83SAPS   H9Y 7851   1.243   6.840   9.882  1.4567  2.2915  1.1360
   83SAPS  C310 7852   1.120   6.997   9.798  0.2313 -0.3531 -0.3540
   83SAPS  H10X 7853   1.191   7.077   9.828 -1.7856  1.7196 -0.7923
   83SAPS  H10Y 7854   1.020   7.042   9.818  1.5706  2.7967 -0.1902
   83SAPS  C311 7855   1.127   6.963   9.650 -0.6327  0.1928 -0.3614
   83SAPS  H11X 7856   1.049   6.886   9.634  0.3612 -1.2081  1.1862
   83SAPS  H11Y 7857   1.227   6.916   9.643 -0.4064  0.5717  0.2421
   83SAPS  C312 7858   1.118   7.082   9.564 -0.1965  0.3486  0.0663
   83SAPS  H12X 7859   1.203   7.143   9.602 -0.1085 -0.5062  1.2724
   83SAPS  H12Y 7860   1.027   7.141   9.588  1.1596  2.1322  1.0774
   83SAPS  C313 7861   1.121   7.041   9.417  0.3137 -0.6846  0.3462
   83SAPS  H13X 7862   1.034   6.981   9.386 -0.1645 -0.1899  0.7046
   83SAPS  H13Y 7863   1.212   6.980   9.398  1.1351 -0.1214  2.2355
   83SAPS  C314 7864   1.132   7.161   9.319 -0.6145  0.1594  0.6132
   83SAPS  H14X 7865   1.229   7.214   9.331 -1.0431  1.2352 -0.4195
   83SAPS  H14Y 7866   1.050   7.233   9.336  0.3171  1.3927  0.0209
   83SAPS  C315 7867   1.110   7.118   9.174  0.2272 -0.2125 -0.1463
   83SAPS  H15X 7868   1.012   7.069   9.161  1.2999 -2.8264  0.9422
   83SAPS  H15Y 7869   1.180   7.040   9.137 -0.7643 -1.0789 -0.2193
   83SAPS  C316 7870   1.145   7.239   9.087 -0.0507 -0.0398 -0.0613
   83SAPS  H16X 7871   1.255   7.257   9.090 -0.3919  2.4239 -0.2362
   83SAPS  H16Y 7872   1.101   7.330   9.135 -0.7463  0.0837 -0.9099
   83SAPS  C317 7873   1.096   7.220   8.944  0.1699 -0.3094  0.4139
   83SAPS  H17X 7874   1.147   7.134   8.897  0.8480  0.0746  0.4215
   83SAPS  H17Y 7875   1.131   7.309   8.887 -1.3395 -0.0156 -0.0907
   83SAPS  C318 7876   0.945   7.212   8.923 -0.0350  0.3643  0.1225
   83SAPS  H18X 7877   0.918   7.172   8.823  2.9480 -1.9009  0.0654
   83SAPS  H18Y 7878   0.907   7.315   8.933  0.2170  0.5429 -0.6740
   83SAPS  H18Z 7879   0.891   7.144   8.992 -0.9762  1.0584  0.0927
   84SAPS     N 7880   2.669   6.275  10.978 -0.3745  0.4614 -0.1486
   84SAPS   HN1 7881   2.731   6.359  10.978  2.3781 -1.4094  0.6502
   84SAPS   HN2 7882   2.729   6.191  10.962  0.4361  1.0850 -0.5013
   84SAPS   HN3 7883   2.603   6.282  10.898 -2.4529  0.1952  1.4696
   84SAPS   C12 7884   2.584   6.253  11.090 -0.3475 -0.9334  0.2216
   84SAPS  H12A 7885   2.640   6.211  11.173 -0.7020 -1.5227  0.1640
   84SAPS   C13 7886   2.505   6.369  11.148 -0.0952  0.2981  0.9347
   84SAPS  O13A 7887   2.517   6.490  11.094 -0.2604  0.0950  0.1677
   84SAPS  O13B 7888   2.439   6.356  11.256  0.1605 -0.3702 -0.4787
   84SAPS   C11 7889   2.472   6.150  11.056 -0.2643 -0.2447 -0.1967
   84SAPS  H11A 7890   2.402   6.204  10.989  0.7974  0.6257 -0.6312
   84SAPS  H11B 7891   2.420   6.116  11.148 -0.5236 -0.5632 -0.4570
   84SAPS     P 7892   2.433   5.913  10.978  0.1884  0.2656  0.1535
   84SAPS   O13 7893   2.483   5.789  11.039  0.1536 -0.1863 -0.0895
   84SAPS   O14 7894   2.295   5.955  11.021  0.4093  0.5796  0.1223
   84SAPS   O12 7895   2.536   6.034  10.991 -0.2128  0.3778  0.1227
   84SAPS   O11 7896   2.431   5.889  10.820  0.5076  0.5449 -0.4307
   84SAPS    C1 7897   2.476   5.989  10.735 -0.4987 -0.0368  0.1604
   84SAPS    HA 7898   2.442   6.091  10.761  0.2866  0.0486  0.9128
   84SAPS    HB 7899   2.587   5.992  10.745 -0.2939  0.5208 -1.8797
   84SAPS    C2 7900   2.433   5.961  10.588  0.4371 -0.2184 -0.7103
   84SAPS    HS 7901   2.499   6.025  10.525  0.5944  0.9131  0.5599
   84SAPS   O21 7902   2.294   5.989  10.568  0.0505  0.0145  0.7238
   84SAPS   C21 7903   2.264   6.114  10.554  0.0813  0.3000  0.4796
   84SAPS   O22 7904   2.338   6.209  10.564  0.2597 -0.5959  0.2469
   84SAPS   C22 7905   2.109   6.119  10.543 -0.1873  0.3667 -0.2576
   84SAPS   H2R 7906   2.091   6.032  10.475  1.7914  0.5642 -1.1015
   84SAPS   H2S 7907   2.063   6.096  10.641  1.9774 -1.0505  0.4887
   84SAPS    C3 7908   2.462   5.816  10.540 -0.5084 -0.5204 -0.1673
   84SAPS    HX 7909   2.382   5.757  10.590 -2.3842  3.0743  1.5050
   84SAPS    HY 7910   2.564   5.789  10.573 -0.6502 -0.3760  0.4058
   84SAPS   O31 7911   2.465   5.808  10.397 -0.2282 -0.4105 -0.0949
   84SAPS   C31 7912   2.344   5.769  10.347 -0.3132 -0.4739  0.2803
   84SAPS   O32 7913   2.246   5.746  10.411  0.6697  0.2166 -0.3658
   84SAPS   C32 7914   2.359   5.756  10.195 -0.2328 -0.1120  0.4605
   84SAPS   H2X 7915   2.424   5.667  10.178 -1.9107 -0.9842 -1.8024
   84SAPS   H2Y 7916   2.405   5.846  10.150 -1.1490 -0.6093 -1.5848
   84SAPS   C23 7917   2.056   6.257  10.493  0.3481 -0.4090 -0.5599
   84SAPS   H3R 7918   2.106   6.338  10.550 -2.1286  1.5963 -1.0901
   84SAPS   H3S 7919   1.948   6.258  10.519  0.0025  0.3342 -1.9438
   84SAPS   C24 7920   2.061   6.279  10.340 -0.2866 -0.1228 -0.6112
   84SAPS   H4R 7921   2.000   6.366  10.309 -0.4387  0.0595  0.1798
   84SAPS   H4S 7922   2.017   6.190  10.290 -0.3756  0.7990 -2.2240
   84SAPS   C25 7923   2.202   6.314  10.309  0.2331  0.5544 -0.0901
   84SAPS   H5R 7924   2.238   6.399  10.370  0.2323 -0.5454  1.5165
   84SAPS   C26 7925   2.286   6.232  10.244 -0.8428  0.0630 -0.0932
   84SAPS   H6R 7926   2.389   6.264  10.225 -0.3269 -1.5311 -0.1140
   84SAPS   C27 7927   2.250   6.098  10.192  0.5842  1.5166  0.6650
   84SAPS   H7R 7928   2.146   6.063  10.212  0.7267  0.0492 -0.9031
   84SAPS   H7S 7929   2.319   6.027  10.243 -1.1377 -0.9043 -0.1493
   84SAPS   C28 7930   2.292   6.093  10.043  0.3608 -0.3671  0.1391
   84SAPS   H8R 7931   2.396   6.069  10.018  0.9183 -0.0283  1.9963
   84SAPS   C29 7932   2.209   6.114   9.938 -0.6360  0.1135  0.3267
   84SAPS   H9R 7933   2.245   6.109   9.834  2.7035  1.2319  1.2940
   84SAPS  C210 7934   2.065   6.143   9.944  0.7559 -0.6431 -0.0721
   84SAPS  H10R 7935   2.033   6.190   9.848 -0.2891  3.1770  1.9701
   84SAPS  H10S 7936   2.053   6.228  10.013  1.8640 -1.4788  1.1861
   84SAPS  C211 7937   1.971   6.033   9.975  0.0789  0.5525 -0.3777
   84SAPS  H11R 7938   1.957   6.011  10.082  2.7827  1.7013  0.2951
   84SAPS  C212 7939   1.905   5.944   9.894  0.4042 -0.0021  1.1343
   84SAPS  H12R 7940   1.845   5.866   9.943  0.4530  0.6583  2.2940
   84SAPS  C213 7941   1.907   5.952   9.742  0.0137 -0.0804  0.6244
   84SAPS  H13R 7942   1.967   6.031   9.691 -2.1223  0.9215 -0.4781
   84SAPS  H13S 7943   1.801   5.971   9.715  0.4592  1.3444 -0.2453
   84SAPS  C214 7944   1.941   5.820   9.686  0.1337 -0.3924  0.1990
   84SAPS  H14R 7945   1.868   5.740   9.704 -1.0892  0.6681  0.1200
   84SAPS  C215 7946   2.059   5.785   9.628  0.5010  0.5280 -0.0671
   84SAPS  H15R 7947   2.070   5.687   9.579 -0.5361 -0.0533  0.8309
   84SAPS  C216 7948   2.180   5.877   9.619  0.2799  0.0672 -0.3198
   84SAPS  H16R 7949   2.258   5.833   9.685 -0.3175  0.9335  0.9888
   84SAPS  H16S 7950   2.166   5.973   9.672  0.1187  0.1503 -0.5116
   84SAPS  C217 7951   2.230   5.886   9.477 -0.2950  0.0755 -0.0651
   84SAPS  H17R 7952   2.153   5.924   9.408  0.6569 -1.7973 -2.2894
   84SAPS  H17S 7953   2.251   5.782   9.442 -0.6271  0.4429 -1.4073
   84SAPS  C218 7954   2.357   5.969   9.460  0.2842 -0.1659  0.0299
   84SAPS  H18R 7955   2.439   5.907   9.500  0.0633 -0.7456 -0.4136
   84SAPS  H18S 7956   2.352   6.061   9.523  3.4772  0.2282 -0.1198
   84SAPS  C219 7957   2.389   6.013   9.311 -0.8993  0.2618  0.1029
   84SAPS  H19R 7958   2.493   6.048   9.325 -0.3148 -1.3123 -0.0841
   84SAPS  H19S 7959   2.318   6.096   9.288  0.7693  2.1030  1.2678
   84SAPS  C220 7960   2.381   5.885   9.211 -0.0375 -0.0326  0.6614
   84SAPS  H20R 7961   2.436   5.800   9.255  2.8137  0.5092 -1.5967
   84SAPS  H20S 7962   2.425   5.904   9.111 -1.2391 -4.0330 -0.8294
   84SAPS  H20T 7963   2.273   5.872   9.188  0.0163 -1.2494  1.0423
   84SAPS   C33 7964   2.228   5.720  10.125 -0.6672 -0.3985  0.0625
   84SAPS   H3X 7965   2.167   5.813  10.129 -0.9897 -0.5678 -0.7738
   84SAPS   H3Y 7966   2.172   5.639  10.176  0.2080 -1.4359 -0.5632
   84SAPS   C34 7967   2.255   5.689   9.973 -0.1365  0.3135 -0.4633
   84SAPS   H4X 7968   2.299   5.779   9.925 -1.3856  1.3172  0.2003
   84SAPS   H4Y 7969   2.156   5.682   9.923 -1.2171  0.2218  1.5687
   84SAPS   C35 7970   2.332   5.558   9.952  0.3258 -0.3568  0.2092
   84SAPS   H5X 7971   2.305   5.492  10.037 -3.8107 -1.9953 -2.0600
   84SAPS   H5Y 7972   2.441   5.576   9.957  0.4921 -1.5863  1.6282
   84SAPS   C36 7973   2.297   5.497   9.819 -0.0780  0.1870  0.0565
   84SAPS   H6X 7974   2.301   5.577   9.742 -0.8655  0.4475  0.2796
   84SAPS   H6Y 7975   2.188   5.477   9.818  0.2623 -1.8755 -1.7030
   84SAPS   C37 7976   2.371   5.372   9.766 -0.5513  0.3832 -0.1361
   84SAPS   H7X 7977   2.347   5.296   9.844 -2.6146  1.0622 -0.0336
   84SAPS   H7Y 7978   2.481   5.385   9.764 -0.1777 -2.2239 -0.6923
   84SAPS   C38 7979   2.314   5.336   9.627 -0.7452  0.0176  0.6161
   84SAPS   H8X 7980   2.310   5.421   9.556 -2.9874 -0.7017 -0.2198
   84SAPS   H8Y 7981   2.204   5.325   9.644 -1.6536  1.2001 -3.4107
   84SAPS   C39 7982   2.385   5.213   9.567 -0.1030 -0.0791 -0.1955
   84SAPS   H9X 7983   2.399   5.143   9.652  2.6995  1.2830  0.5943
   84SAPS   H9Y 7984   2.477   5.254   9.521  1.1024 -1.2301  1.0921
   84SAPS  C310 7985   2.293   5.152   9.464  0.3810  0.6457  0.2025
   84SAPS  H10X 7986   2.189   5.164   9.502 -0.8194 -0.2817 -2.5359
   84SAPS  H10Y 7987   2.313   5.044   9.447  0.4721  0.7741 -0.5433
   84SAPS  C311 7988   2.301   5.216   9.330  0.3737 -0.0393  0.0905
   84SAPS  H11X 7989   2.405   5.205   9.292 -0.1800 -0.3977 -1.3854
   84SAPS  H11Y 7990   2.264   5.321   9.322 -3.0285 -1.2220 -2.3538
   84SAPS  C312 7991   2.216   5.147   9.223 -0.3044 -0.7505  0.5187
   84SAPS  H12X 7992   2.113   5.183   9.241  0.2027  0.2383  1.5143
   84SAPS  H12Y 7993   2.214   5.036   9.233 -0.4077 -0.8093 -0.0860
   84SAPS  C313 7994   2.251   5.191   9.082 -0.5290 -0.3473 -0.2115
   84SAPS  H13X 7995   2.198   5.125   9.011 -0.6724  0.6834 -1.0777
   84SAPS  H13Y 7996   2.359   5.173   9.066 -0.5859  0.1319 -1.1497
   84SAPS  C314 7997   2.213   5.339   9.050  0.2975  0.8224 -0.0620
   84SAPS  H14X 7998   2.297   5.394   9.097  2.1582 -1.4370 -0.5523
   84SAPS  H14Y 7999   2.121   5.369   9.105  0.2821 -0.4106  0.6260
   84SAPS  C315 8000   2.203   5.361   8.905 -0.3394  0.0987  0.4302
   84SAPS  H15X 8001   2.119   5.298   8.870 -1.1253  1.4760 -0.2520
   84SAPS  H15Y 8002   2.299   5.336   8.856 -0.7932  1.1758 -1.0477
   84SAPS  C316 8003   2.172   5.504   8.854 -0.6463  0.2527 -0.0011
   84SAPS  H16X 8004   2.080   5.558   8.888 -0.2645  1.2678 -0.5311
   84SAPS  H16Y 8005   2.164   5.499   8.743  2.3719  1.2262 -0.3417
   84SAPS  C317 8006   2.286   5.598   8.893  0.0331 -0.0229 -0.4761
   84SAPS  H17X 8007   2.375   5.564   8.835 -0.1782  1.0273 -1.4627
   84SAPS  H17Y 8008   2.302   5.608   9.002 -1.9351 -1.8420  0.0500
   84SAPS  C318 8009   2.261   5.737   8.840  0.1698  0.4970 -0.6865
   84SAPS  H18X 8010   2.322   5.814   8.892 -0.5452  2.1874 -2.2356
   84SAPS  H18Y 8011   2.157   5.776   8.846  0.1370  0.2863  0.3018
   84SAPS  H18Z 8012   2.282   5.735   8.731  1.4180  0.1657 -0.4590
   85SAPS     N 8013   0.318   1.589  11.400  0.0351  0.3136 -0.7034
   85SAPS   HN1 8014   0.362   1.610  11.492  0.8735  1.6687 -1.3695
   85SAPS   HN2 8015   0.388   1.569  11.325  0.0854 -3.0838  0.1037
   85SAPS   HN3 8016   0.258   1.669  11.370  3.1221  2.7219 -1.0514
   85SAPS   C12 8017   0.230   1.461  11.429  0.2225 -0.1077  0.0225
   85SAPS  H12A 8018   0.300   1.380  11.415  1.2505  0.8325 -0.4232
   85SAPS   C13 8019   0.187   1.451  11.577 -0.2757  0.9327 -0.0164
   85SAPS  O13A 8020   0.211   1.535  11.670  0.4376  0.2677  0.0606
   85SAPS  O13B 8021   0.138   1.338  11.602 -0.0717 -0.4739  0.0053
   85SAPS   C11 8022   0.097   1.465  11.347  0.6755  0.4415 -0.2576
   85SAPS  H11A 8023   0.028   1.544  11.382  0.0004 -1.3871  2.9681
   85SAPS  H11B 8024   0.036   1.375  11.369 -0.2031  1.4136  1.4850
   85SAPS     P 8025   0.170   1.364  11.119  0.0505  0.0104 -0.0124
   85SAPS   O13 8026   0.318   1.362  11.106  0.7237  0.1865  0.0489
   85SAPS   O14 8027   0.107   1.241  11.168  0.7005 -0.6748 -0.7705
   85SAPS   O12 8028   0.123   1.486  11.207  0.2082  0.5073 -0.4561
   85SAPS   O11 8029   0.107   1.388  10.985  0.4304  0.3912  0.1762
   85SAPS    C1 8030   0.158   1.336  10.860  0.1956 -0.6393  0.2537
   85SAPS    HA 8031   0.263   1.373  10.847 -0.1310  0.8608  1.4875
   85SAPS    HB 8032   0.164   1.226  10.865  2.1081 -0.6128 -0.5214
   85SAPS    C2 8033   0.065   1.379  10.746  0.1675  0.3127  0.4001
   85SAPS    HS 8034   0.009   1.287  10.721 -1.6758  1.4703  0.0414
   85SAPS   O21 8035   0.139   1.438  10.635  0.1791  0.9470  0.1688
   85SAPS   C21 8036   0.221   1.359  10.563 -0.5456  0.3569 -0.2149
   85SAPS   O22 8037   0.234   1.241  10.582  0.0085 -0.1149  0.6731
   85SAPS   C22 8038   0.286   1.444  10.459  0.7933 -0.4685  0.5671
   85SAPS   H2R 8039   0.212   1.522  10.432  0.7946 -0.7430 -0.2435
   85SAPS   H2S 8040   0.375   1.498  10.501  0.6065 -1.8876  2.9638
   85SAPS    C3 8041  -0.039   1.491  10.782  0.4762  0.5583  0.0934
   85SAPS    HX 8042   0.014   1.584  10.810 -0.9456  0.4620  3.7097
   85SAPS    HY 8043  -0.099   1.470  10.873  0.3274  1.6027  0.2382
   85SAPS   O31 8044  -0.136   1.506  10.676  0.3574 -0.1733  0.8180
   85SAPS   C31 8045  -0.211   1.619  10.657 -0.2905 -0.5232 -0.1739
   85SAPS   O32 8046  -0.219   1.708  10.739 -0.5690 -0.0370 -0.5191
   85SAPS   C32 8047  -0.294   1.604  10.533 -0.0130 -0.0418  0.4853
   85SAPS   H2X 8048  -0.390   1.658  10.546 -0.2673 -0.9006  2.6930
   85SAPS   H2Y 8049  -0.314   1.496  10.515 -1.8678  0.1306  1.3099
   85SAPS   C23 8050   0.333   1.363  10.336 -0.1560  0.3236  0.2773
   85SAPS   H3R 8051   0.260   1.302  10.280  0.9690 -0.9969  0.1874
   85SAPS   H3S 8052   0.404   1.284  10.367 -1.2010 -0.4828  0.6404
   85SAPS   C24 8053   0.401   1.457  10.233 -0.2699 -0.0868  0.8267
   85SAPS   H4R 8054   0.455   1.392  10.161 -1.0029 -1.0999  1.1701
   85SAPS   H4S 8055   0.486   1.509  10.284  0.5113 -3.0455  2.7981
   85SAPS   C25 8056   0.306   1.554  10.167  0.1220 -0.1143  0.4532
   85SAPS   H5R 8057   0.255   1.623  10.237  1.3482  0.5209  0.7556
   85SAPS   C26 8058   0.276   1.563  10.035  0.2988  0.0788 -0.1526
   85SAPS   H6R 8059   0.202   1.637  10.003  0.8063  0.5543 -0.2385
   85SAPS   C27 8060   0.339   1.478   9.927 -0.7683 -1.3310  0.1238
   85SAPS   H7R 8061   0.267   1.398   9.900 -1.6373 -0.4699 -0.1957
   85SAPS   H7S 8062   0.430   1.420   9.953 -0.7681 -0.8997  1.1101
   85SAPS   C28 8063   0.377   1.565   9.814  1.2185 -0.9005 -0.0691
   85SAPS   H8R 8064   0.444   1.648   9.839 -1.7912  1.4348  0.8873
   85SAPS   C29 8065   0.349   1.548   9.684  0.0337  0.7815 -0.0849
   85SAPS   H9R 8066   0.384   1.617   9.605  1.0760 -0.2701 -0.5862
   85SAPS  C210 8067   0.268   1.436   9.623  0.2761  0.3138  0.6290
   85SAPS  H10R 8068   0.242   1.350   9.689 -0.0106  0.7653  1.1145
   85SAPS  H10S 8069   0.336   1.396   9.545  0.1119  1.6431 -0.2171
   85SAPS  C211 8070   0.143   1.490   9.568 -0.8217  0.0180 -0.0017
   85SAPS  H11R 8071   0.069   1.512   9.647  1.0607  1.3162  1.4970
   85SAPS  C212 8072   0.119   1.525   9.442  0.0114 -0.2440  0.3125
   85SAPS  H12R 8073   0.021   1.576   9.434 -0.2858 -0.4594  2.1914
   85SAPS  C213 8074   0.207   1.523   9.317  0.1324  0.5579  0.1955
   85SAPS  H13R 8075   0.313   1.544   9.342  0.9199 -0.5714 -1.9242
   85SAPS  H13S 8076   0.164   1.594   9.243 -1.0553  1.1969  1.4530
   85SAPS  C214 8077   0.202   1.385   9.243  0.0548 -0.0371  0.0718
   85SAPS  H14R 8078   0.179   1.295   9.302  0.7869 -1.2204 -1.3511
   85SAPS  C215 8079   0.196   1.372   9.105 -0.5098  0.4189  0.2241
   85SAPS  H15R 8080   0.180   1.275   9.057 -0.5814  0.8270 -0.5976
   85SAPS  C216 8081   0.207   1.484   9.007 -0.2925  0.0480 -0.2751
   85SAPS  H16R 8082   0.300   1.466   8.948  1.0562  0.1257  1.7426
   85SAPS  H16S 8083   0.232   1.582   9.052  1.1197 -0.6089  0.4522
   85SAPS  C217 8084   0.099   1.506   8.900 -0.0743  0.1301  0.0914
   85SAPS  H17R 8085   0.135   1.594   8.842 -0.0440  0.3661  0.4691
   85SAPS  H17S 8086   0.003   1.537   8.946 -0.4242 -1.0093  0.1662
   85SAPS  C218 8087   0.062   1.390   8.805  0.0542  0.7977  0.3188
   85SAPS  H18R 8088  -0.031   1.429   8.759  0.0682 -1.4322 -1.7761
   85SAPS  H18S 8089   0.041   1.301   8.868  0.6108  0.1270 -0.4152
   85SAPS  C219 8090   0.160   1.360   8.696  0.0892  0.0652 -0.4075
   85SAPS  H19R 8091   0.256   1.312   8.727  0.2269 -0.2903 -1.3388
   85SAPS  H19S 8092   0.185   1.456   8.647 -1.9512  1.3824  1.0110
   85SAPS  C220 8093   0.099   1.260   8.595 -0.4352  0.1552  0.2493
   85SAPS  H20R 8094   0.180   1.246   8.520 -1.6006 -3.1714 -0.5724
   85SAPS  H20S 8095   0.005   1.296   8.549  0.3576  0.2997 -1.3227
   85SAPS  H20T 8096   0.074   1.159   8.634  0.4377 -0.3368 -0.4086
   85SAPS   C33 8097  -0.213   1.656  10.414  0.0904  0.1133  0.0468
   85SAPS   H3X 8098  -0.119   1.599  10.397 -0.5066 -0.2912 -2.2979
   85SAPS   H3Y 8099  -0.196   1.765  10.424  0.4179  0.1962 -1.2782
   85SAPS   C34 8100  -0.293   1.634  10.287 -0.0765 -0.0192 -0.3439
   85SAPS   H4X 8101  -0.394   1.680  10.291  0.3561  1.4074 -3.2519
   85SAPS   H4Y 8102  -0.316   1.526  10.276 -1.3879  0.2407 -0.2720
   85SAPS   C35 8103  -0.229   1.687  10.155  0.1861 -0.3008 -0.2616
   85SAPS   H5X 8104  -0.143   1.618  10.142 -1.6777 -3.3642  2.2589
   85SAPS   H5Y 8105  -0.206   1.794  10.177 -1.2839 -0.0339  0.1145
   85SAPS   C36 8106  -0.325   1.666  10.040 -0.5888  0.5796 -0.4404
   85SAPS   H6X 8107  -0.415   1.730  10.049 -1.3234 -0.0576 -2.4964
   85SAPS   H6Y 8108  -0.364   1.563  10.054  0.9976  0.1763  1.5165
   85SAPS   C37 8109  -0.260   1.707   9.903 -0.2730 -0.3123 -0.1824
   85SAPS   H7X 8110  -0.166   1.648   9.900  1.1361  1.6395  1.9073
   85SAPS   H7Y 8111  -0.228   1.813   9.893  0.4229 -0.6348 -1.5517
   85SAPS   C38 8112  -0.355   1.674   9.784 -0.3831 -1.0990 -0.3537
   85SAPS   H8X 8113  -0.442   1.742   9.789  0.7689  0.3230  2.0503
   85SAPS   H8Y 8114  -0.395   1.571   9.773  0.6112 -1.3025 -2.5404
   85SAPS   C39 8115  -0.299   1.707   9.643 -0.2721  0.4554 -1.1449
   85SAPS   H9X 8116  -0.198   1.661   9.632 -1.1319 -1.7574 -0.3614
   85SAPS   H9Y 8117  -0.272   1.814   9.637  0.8274  0.7792  4.2905
   85SAPS  C310 8118  -0.393   1.647   9.537  0.1378 -0.0419  0.7569
   85SAPS  H10X 8119  -0.500   1.675   9.545 -0.4082 -2.1808  1.7357
   85SAPS  H10Y 8120  -0.388   1.537   9.553  2.5494  0.1993  2.2229
   85SAPS  C311 8121  -0.343   1.677   9.400 -0.0813  0.0554 -0.0594
   85SAPS  H11X 8122  -0.249   1.619   9.397  1.1663  1.5639  3.8460
   85SAPS  H11Y 8123  -0.314   1.784   9.401  0.4611 -0.0490  2.0611
   85SAPS  C312 8124  -0.430   1.625   9.278  0.2942 -0.9081  0.2374
   85SAPS  H12X 8125  -0.537   1.641   9.304 -0.4133 -0.4213 -2.6174
   85SAPS  H12Y 8126  -0.402   1.519   9.263 -0.0790 -0.5616 -3.9949
   85SAPS  C313 8127  -0.398   1.707   9.154  0.2213  0.1581 -0.7849
   85SAPS  H13X 8128  -0.290   1.699   9.127  0.7759  4.7143 -0.6092
   85SAPS  H13Y 8129  -0.419   1.812   9.183 -2.2132  0.2768 -2.7154
   85SAPS  C314 8130  -0.480   1.668   9.034  0.3518  0.4130  0.3411
   85SAPS  H14X 8131  -0.442   1.722   8.945  0.2678 -0.8459 -0.4991
   85SAPS  H14Y 8132  -0.584   1.702   9.055 -0.1200  1.5771 -3.2111
   85SAPS  C315 8133  -0.514   1.511   9.006 -0.1603 -0.4392 -0.5807
   85SAPS  H15X 8134  -0.575   1.476   9.092  0.2109  0.4099  0.0405
   85SAPS  H15Y 8135  -0.425   1.448   9.027 -1.1139 -1.9496 -0.9019
   85SAPS  C316 8136  -0.596   1.477   8.884  0.9070  0.1720 -0.2021
   85SAPS  H16X 8137  -0.703   1.503   8.894  0.9230  1.0667 -1.9437
   85SAPS  H16Y 8138  -0.596   1.369   8.858  0.7225  0.1801 -0.2352
   85SAPS  C317 8139  -0.531   1.549   8.769  0.3479  0.9071 -0.3679
   85SAPS  H17X 8140  -0.420   1.549   8.776  0.3736  0.2803 -0.6319
   85SAPS  H17Y 8141  -0.550   1.658   8.763 -2.2547  0.4815 -2.1330
   85SAPS  C318 8142  -0.564   1.481   8.629 -0.2833  0.0791 -0.4702
   85SAPS  H18X 8143  -0.504   1.526   8.546  1.2678 -0.2511  0.4290
   85SAPS  H18Y 8144  -0.667   1.502   8.594 -0.1624 -0.6653 -1.2882
   85SAPS  H18Z 8145  -0.554   1.371   8.626 -2.9339 -0.4106  2.9290
   86SAPS     N 8146   1.972   0.556  11.063 -0.2030 -0.5242  0.2166
   86SAPS   HN1 8147   1.929   0.467  11.031  1.2611 -1.2072  0.1020
   86SAPS   HN2 8148   1.971   0.612  10.975 -2.3385 -1.9701 -0.7704
   86SAPS   HN3 8149   2.069   0.535  11.094 -0.1655  0.2913  0.6698
   86SAPS   C12 8150   1.881   0.613  11.161 -0.4869  0.4736  0.2675
   86SAPS  H12A 8151   1.879   0.545  11.246  1.1524  0.4206  0.2941
   86SAPS   C13 8152   1.923   0.749  11.214 -0.3626  0.9804 -0.0509
   86SAPS  O13A 8153   2.018   0.812  11.160 -0.1757 -0.5806 -0.0628
   86SAPS  O13B 8154   1.840   0.800  11.297 -0.4320  0.2075  0.3689
   86SAPS   C11 8155   1.736   0.618  11.099 -0.6068  0.0398 -0.2620
   86SAPS  H11A 8156   1.748   0.688  11.013  1.0798  1.2647  0.8915
   86SAPS  H11B 8157   1.661   0.672  11.161  1.0612  1.3744  0.6750
   86SAPS     P 8158   1.560   0.471  10.979 -0.0724 -0.3228  0.2226
   86SAPS   O13 8159   1.533   0.338  10.923  0.2308  0.2056  0.5169
   86SAPS   O14 8160   1.460   0.523  11.072 -0.0393 -0.7458  0.0516
   86SAPS   O12 8161   1.701   0.485  11.039 -0.3929 -0.1875  0.5212
   86SAPS   O11 8162   1.553   0.572  10.854  0.5942 -0.2508  0.1967
   86SAPS    C1 8163   1.674   0.581  10.778 -0.0362 -0.2174  0.3194
   86SAPS    HA 8164   1.725   0.678  10.796 -2.5781  1.1787  0.4533
   86SAPS    HB 8165   1.736   0.489  10.790  0.7460  0.1352 -0.8311
   86SAPS    C2 8166   1.639   0.574  10.629  0.1237  0.7036 -0.4596
   86SAPS    HS 8167   1.602   0.675  10.600 -1.0349  0.2804 -0.5088
   86SAPS   O21 8168   1.542   0.471  10.609  0.1471 -0.1540  0.2477
   86SAPS   C21 8169   1.419   0.508  10.629  0.9541  0.7465  0.1282
   86SAPS   O22 8170   1.378   0.619  10.654 -0.5875  0.3549  0.5604
   86SAPS   C22 8171   1.335   0.380  10.625 -0.0439 -0.2951  0.4631
   86SAPS   H2R 8172   1.337   0.339  10.522  1.2424  0.4352  0.1755
   86SAPS   H2S 8173   1.388   0.315  10.698 -1.4837  2.1366  3.9777
   86SAPS    C3 8174   1.763   0.559  10.547  0.4978  0.3039 -0.5127
   86SAPS    HX 8175   1.802   0.455  10.557 -0.6767 -0.1161 -0.2122
   86SAPS    HY 8176   1.830   0.629  10.602 -0.4189 -0.2624  1.4017
   86SAPS   O31 8177   1.744   0.590  10.407 -0.5529 -0.1876  0.6153
   86SAPS   C31 8178   1.851   0.560  10.335 -0.4249 -0.2187  0.3496
   86SAPS   O32 8179   1.943   0.494  10.374 -0.3042 -0.0646  0.1260
   86SAPS   C32 8180   1.848   0.636  10.200  0.0041  0.3576 -0.1627
   86SAPS   H2X 8181   1.832   0.744  10.221  1.7614  0.0830  3.2247
   86SAPS   H2Y 8182   1.757   0.602  10.146  0.3936  1.4918 -1.6047
   86SAPS   C23 8183   1.189   0.409  10.671 -0.0099 -0.8097  0.1287
   86SAPS   H3R 8184   1.177   0.479  10.756  0.0823 -0.5638 -0.0593
   86SAPS   H3S 8185   1.145   0.316  10.712  0.1686  0.1668  2.7284
   86SAPS   C24 8186   1.115   0.483  10.562 -0.1705  0.2202  0.2687
   86SAPS   H4R 8187   1.180   0.572  10.555  1.6503 -1.0573  0.4361
   86SAPS   H4S 8188   1.015   0.524  10.588 -0.0665  1.2830 -0.9676
   86SAPS   C25 8189   1.100   0.416  10.425  0.9922  0.7438  1.1116
   86SAPS   H5R 8190   1.056   0.316  10.427  1.0080  0.5479 -2.5290
   86SAPS   C26 8191   1.157   0.450  10.308  0.3082 -0.6903  0.0245
   86SAPS   H6R 8192   1.151   0.376  10.227  0.2776 -1.5737  0.8169
   86SAPS   C27 8193   1.250   0.563  10.278 -0.1678  0.5173  0.6002
   86SAPS   H7R 8194   1.272   0.546  10.170 -0.5310 -2.4087  0.8916
   86SAPS   H7S 8195   1.351   0.548  10.320  1.6554  0.9352 -3.2077
   86SAPS   C28 8196   1.208   0.701  10.297 -0.9233 -0.2923  0.4759
   86SAPS   H8R 8197   1.228   0.741  10.398 -1.0553 -0.2775  0.4961
   86SAPS   C29 8198   1.142   0.780  10.209 -0.3080 -0.3700  0.4157
   86SAPS   H9R 8199   1.120   0.884  10.237  0.4514 -0.0111 -0.2660
   86SAPS  C210 8200   1.102   0.735  10.075  0.7212  0.6281 -0.0542
   86SAPS  H10R 8201   1.004   0.780  10.049  0.5972 -0.6983 -2.0866
   86SAPS  H10S 8202   1.066   0.630  10.079  2.2343  0.0986  0.2815
   86SAPS  C211 8203   1.198   0.746   9.963  0.7953 -0.3354 -0.2524
   86SAPS  H11R 8204   1.298   0.735  10.008  1.1059 -1.6233 -1.2117
   86SAPS  C212 8205   1.173   0.748   9.830 -0.8503 -0.3526 -0.8741
   86SAPS  H12R 8206   1.249   0.753   9.751 -1.3270  0.5633 -1.2813
   86SAPS  C213 8207   1.037   0.755   9.766  0.1933  0.5307 -0.6553
   86SAPS  H13R 8208   1.017   0.855   9.721 -0.6146  0.4067 -0.5733
   86SAPS  H13S 8209   0.959   0.754   9.845  0.2037 -0.1079 -0.6495
   86SAPS  C214 8210   1.026   0.634   9.672  0.4666 -0.4736 -0.5584
   86SAPS  H14R 8211   1.036   0.532   9.711 -0.6913 -0.5727 -0.4974
   86SAPS  C215 8212   1.001   0.652   9.543  0.4258 -0.0554 -0.0084
   86SAPS  H15R 8213   0.971   0.564   9.485 -0.9812  0.4179 -0.0472
   86SAPS  C216 8214   0.990   0.781   9.468  0.4976  0.6211  0.7284
   86SAPS  H16R 8215   1.064   0.854   9.505 -0.5051  0.6720  2.7752
   86SAPS  H16S 8216   0.896   0.836   9.488 -0.5964 -0.9400  0.0759
   86SAPS  C217 8217   0.991   0.759   9.317 -0.3194  0.4027 -0.1424
   86SAPS  H17R 8218   0.893   0.718   9.285 -1.3172  0.9532  1.9660
   86SAPS  H17S 8219   1.072   0.686   9.294  0.3524  1.4135 -1.1120
   86SAPS  C218 8220   1.025   0.885   9.234 -0.6938  0.0491 -0.2474
   86SAPS  H18R 8221   1.135   0.897   9.240 -1.0134  2.5973  2.9073
   86SAPS  H18S 8222   0.981   0.976   9.280 -1.1910 -0.9208  1.2637
   86SAPS  C219 8223   0.968   0.888   9.096  0.5831  0.4394  0.1017
   86SAPS  H19R 8224   0.858   0.869   9.099  0.5813  0.2343 -0.7882
   86SAPS  H19S 8225   1.012   0.807   9.034 -1.5611  0.7027 -1.9117
   86SAPS  C220 8226   0.979   1.027   9.029  0.3293 -0.1196 -0.0952
   86SAPS  H20R 8227   0.930   1.014   8.930 -1.8835  1.0737  0.7635
   86SAPS  H20S 8228   1.085   1.060   9.020  0.3158 -0.1986 -0.5844
   86SAPS  H20T 8229   0.923   1.096   9.096 -0.2831 -3.0710  2.6569
   86SAPS   C33 8230   1.969   0.622  10.099  0.4092 -0.2352  0.1438
   86SAPS   H3X 8231   1.960   0.522  10.050  2.4521 -0.2169 -0.3544
   86SAPS   H3Y 8232   2.064   0.618  10.156  1.2417  2.4400 -0.9319
   86SAPS   C34 8233   1.981   0.731   9.994  0.0391 -0.5586  0.0862
   86SAPS   H4X 8234   2.003   0.827  10.046 -0.9073  0.5012 -1.3620
   86SAPS   H4Y 8235   1.889   0.736   9.931 -0.5512 -1.2355  0.8760
   86SAPS   C35 8236   2.108   0.714   9.897  0.4059  0.5574  0.2123
   86SAPS   H5X 8237   2.094   0.621   9.837 -0.5272  1.9813 -1.8970
   86SAPS   H5Y 8238   2.197   0.691   9.959  0.7109 -2.6624 -1.2191
   86SAPS   C36 8239   2.132   0.819   9.788  0.4177  0.3241 -0.5733
   86SAPS   H6X 8240   2.193   0.898   9.835 -0.9046  0.0087  1.8521
   86SAPS   H6Y 8241   2.033   0.861   9.759  0.1505 -0.7084 -1.2416
   86SAPS   C37 8242   2.199   0.754   9.666  0.3755  0.5155  0.9254
   86SAPS   H7X 8243   2.278   0.680   9.692  0.3746  0.3160  0.3862
   86SAPS   H7Y 8244   2.237   0.827   9.592  0.2854 -1.6905 -1.4606
   86SAPS   C38 8245   2.098   0.688   9.567  0.8194  0.0186 -0.1737
   86SAPS   H8X 8246   2.004   0.744   9.551  0.0934 -1.2744 -0.5484
   86SAPS   H8Y 8247   2.064   0.588   9.602 -0.0611 -0.1020 -1.3260
   86SAPS   C39 8248   2.170   0.680   9.433  0.2668 -0.1670  0.4336
   86SAPS   H9X 8249   2.274   0.646   9.451  1.1266  1.8361 -0.4868
   86SAPS   H9Y 8250   2.181   0.782   9.390 -0.8024 -0.7008 -1.2180
   86SAPS  C310 8251   2.107   0.596   9.314  0.3980 -0.1090  0.6758
   86SAPS  H10X 8252   2.111   0.491   9.348  2.1221  0.0731  1.1584
   86SAPS  H10Y 8253   2.181   0.613   9.233  0.8291  2.1529  1.4596
   86SAPS  C311 8254   1.961   0.637   9.266  0.5986  0.7636  0.2423
   86SAPS  H11X 8255   1.979   0.740   9.228  3.0248  0.6532  0.9238
   86SAPS  H11Y 8256   1.895   0.636   9.356  0.6598  1.6543  0.2989
   86SAPS  C312 8257   1.899   0.564   9.151 -0.1347 -0.5764 -0.3480
   86SAPS  H12X 8258   1.802   0.616   9.135 -0.2914 -0.4128  1.0121
   86SAPS  H12Y 8259   1.888   0.466   9.202  1.3586  0.3806  2.0095
   86SAPS  C313 8260   1.983   0.560   9.025 -0.7321 -0.0709 -0.6620
   86SAPS  H13X 8261   2.090   0.532   9.027 -0.6638  0.1573 -1.0824
   86SAPS  H13Y 8262   1.975   0.666   8.992 -0.8023  0.2934  0.4700
   86SAPS  C314 8263   1.922   0.487   8.904  0.7463  0.3869  0.7289
   86SAPS  H14X 8264   1.814   0.512   8.893  0.3671 -1.1134  0.8580
   86SAPS  H14Y 8265   1.929   0.378   8.924  0.9314  0.6105  1.9221
   86SAPS  C315 8266   1.996   0.531   8.770 -0.5085 -0.2814 -0.0399
   86SAPS  H15X 8267   2.099   0.490   8.775 -0.0645  0.7712 -0.3142
   86SAPS  H15Y 8268   1.997   0.642   8.764  0.1352 -0.3380 -1.5379
   86SAPS  C316 8269   1.933   0.491   8.635 -0.0115  0.0658  0.6966
   86SAPS  H16X 8270   2.000   0.512   8.550  1.9386 -1.4629  1.7737
   86SAPS  H16Y 8271   1.847   0.560   8.622  0.1568  0.1821  0.1959
   86SAPS  C317 8272   1.887   0.345   8.626  0.1236  1.0979 -0.6231
   86SAPS  H17X 8273   1.828   0.324   8.717  2.5974  1.8198  1.2398
   86SAPS  H17Y 8274   1.967   0.269   8.637 -1.6268 -0.4757  2.3368
   86SAPS  C318 8275   1.797   0.317   8.509 -0.2212  0.4455 -0.1179
   86SAPS  H18X 8276   1.727   0.232   8.522  0.0671  0.2104 -0.0932
   86SAPS  H18Y 8277   1.859   0.293   8.420 -0.8730 -2.9138  0.1993
   86SAPS  H18Z 8278   1.729   0.403   8.487 -2.8941 -0.9550  2.0322
   87SAPS     N 8279   1.130   2.692  11.074  0.2549  0.1891 -1.4479
   87SAPS   HN1 8280   1.208   2.625  11.058 -1.0406 -1.5613 -0.8803
   87SAPS   HN2 8281   1.108   2.680  11.175 -0.0501 -0.5524 -1.5933
   87SAPS   HN3 8282   1.046   2.657  11.023 -0.9274 -2.6455  2.0211
   87SAPS   C12 8283   1.166   2.836  11.056  0.5502 -0.6472  0.0048
   87SAPS  H12A 8284   1.080   2.898  11.079  0.3429 -0.7426 -0.4939
   87SAPS   C13 8285   1.276   2.885  11.161  0.3273 -0.1443  0.3766
   87SAPS  O13A 8286   1.307   2.804  11.251 -0.0232  0.3582 -0.1438
   87SAPS  O13B 8287   1.329   2.997  11.148  0.0639 -0.0424  0.3538
   87SAPS   C11 8288   1.217   2.866  10.914 -0.3569 -0.7776  0.3280
   87SAPS  H11A 8289   1.215   2.976  10.897 -1.8841 -0.8071  0.2360
   87SAPS  H11B 8290   1.132   2.838  10.849  0.1294  0.2756 -0.8032
   87SAPS     P 8291   1.481   2.857  10.864  0.5005 -0.4136 -0.2021
   87SAPS   O13 8292   1.470   3.007  10.852 -0.6288 -0.6070  0.0302
   87SAPS   O14 8293   1.567   2.802  10.973  0.1214  0.2092  0.3624
   87SAPS   O12 8294   1.334   2.795  10.877  0.1521  0.6127  0.0246
   87SAPS   O11 8295   1.537   2.808  10.730 -0.4055  0.6623  0.2927
   87SAPS    C1 8296   1.555   2.671  10.686  0.3482  0.0155 -0.3877
   87SAPS    HA 8297   1.657   2.638  10.718 -0.4057 -1.4604  0.6244
   87SAPS    HB 8298   1.489   2.608  10.750 -0.6408  3.8081  2.7533
   87SAPS    C2 8299   1.517   2.648  10.540 -0.3609 -0.1030 -0.7746
   87SAPS    HS 8300   1.486   2.543  10.517  1.0177 -0.3625 -1.5500
   87SAPS   O21 8301   1.633   2.672  10.460  0.6602  0.4449 -0.1720
   87SAPS   C21 8302   1.717   2.574  10.431  0.0503 -0.0451 -0.0851
   87SAPS   O22 8303   1.705   2.463  10.479 -0.3612  0.4282  0.1848
   87SAPS   C22 8304   1.823   2.629  10.336  0.2326  0.2066  0.0276
   87SAPS   H2R 8305   1.779   2.715  10.281  2.5212  2.5428  1.6204
   87SAPS   H2S 8306   1.902   2.676  10.398  0.4047 -0.0212 -0.0185
   87SAPS    C3 8307   1.401   2.737  10.492 -0.6586 -0.0355  0.3155
   87SAPS    HX 8308   1.437   2.842  10.488 -2.1405  0.4865 -0.2632
   87SAPS    HY 8309   1.316   2.734  10.564 -2.0469 -3.3810 -1.2373
   87SAPS   O31 8310   1.357   2.691  10.359 -0.0569 -0.0156 -0.1898
   87SAPS   C31 8311   1.415   2.746  10.254 -0.9444 -0.3227 -0.0259
   87SAPS   O32 8312   1.507   2.826  10.257  0.1190  0.2219 -0.4564
   87SAPS   C32 8313   1.342   2.700  10.132 -0.4886 -0.0791 -0.1654
   87SAPS   H2X 8314   1.240   2.742  10.142 -0.1372  0.5282  1.0759
   87SAPS   H2Y 8315   1.330   2.591  10.152  1.7834 -0.4459 -0.5367
   87SAPS   C23 8316   1.886   2.521  10.247 -0.4997 -0.0092 -0.4634
   87SAPS   H3R 8317   1.921   2.438  10.312 -1.9165  0.9467  1.6438
   87SAPS   H3S 8318   1.979   2.566  10.207  0.0126  0.4907  1.2024
   87SAPS   C24 8319   1.813   2.489  10.121  0.2363 -0.2220  0.0637
   87SAPS   H4R 8320   1.870   2.439  10.041 -0.8942  0.7937 -1.4395
   87SAPS   H4S 8321   1.765   2.578  10.073 -2.7771 -0.4005  2.3920
   87SAPS   C25 8322   1.710   2.381  10.149  0.6001  0.0818 -0.9350
   87SAPS   H5R 8323   1.706   2.365  10.258 -0.9259  0.6337 -0.8802
   87SAPS   C26 8324   1.624   2.330  10.055 -0.6551  0.8047  0.5426
   87SAPS   H6R 8325   1.554   2.253  10.090 -0.2393  1.1797  2.3373
   87SAPS   C27 8326   1.631   2.341   9.909  0.3187 -0.3397 -0.3880
   87SAPS   H7R 8327   1.652   2.447   9.885 -0.7646 -0.1888 -0.7314
   87SAPS   H7S 8328   1.530   2.326   9.865  0.0031 -0.2961  0.2977
   87SAPS   C28 8329   1.730   2.246   9.858  0.3629  0.7451  0.5803
   87SAPS   H8R 8330   1.784   2.181   9.928  0.3891 -0.1200 -0.2170
   87SAPS   C29 8331   1.757   2.228   9.725  0.9197 -0.2281  0.3223
   87SAPS   H9R 8332   1.840   2.168   9.684  0.4995 -0.9190  0.4699
   87SAPS  C210 8333   1.681   2.298   9.614  0.0738  0.3026 -0.5226
   87SAPS  H10R 8334   1.752   2.346   9.544  0.3940 -0.0831 -0.4612
   87SAPS  H10S 8335   1.608   2.376   9.646 -0.6202  0.0501 -1.4238
   87SAPS  C211 8336   1.606   2.192   9.533 -0.2789 -0.1009 -0.0834
   87SAPS  H11R 8337   1.512   2.158   9.580 -0.8222 -0.9083 -1.6577
   87SAPS  C212 8338   1.640   2.148   9.412 -0.3340 -0.1076  0.6865
   87SAPS  H12R 8339   1.593   2.057   9.373 -2.1755  0.7324  0.8308
   87SAPS  C213 8340   1.755   2.200   9.323  0.3681  0.2668  0.3728
   87SAPS  H13R 8341   1.813   2.118   9.276  0.6090 -0.4370  1.8448
   87SAPS  H13S 8342   1.835   2.254   9.378  0.0535  1.8293 -0.6491
   87SAPS  C214 8343   1.719   2.292   9.213 -0.1505  0.3153 -0.3123
   87SAPS  H14R 8344   1.715   2.399   9.238  2.6471  0.2724  0.7268
   87SAPS  C215 8345   1.698   2.260   9.089 -0.1195 -0.3818  0.5090
   87SAPS  H15R 8346   1.666   2.337   9.017  1.8425  0.5894  0.6104
   87SAPS  C216 8347   1.703   2.122   9.028  0.3589 -0.0566  0.2118
   87SAPS  H16R 8348   1.689   2.040   9.102 -3.0842 -0.4830 -0.7433
   87SAPS  H16S 8349   1.789   2.112   8.960 -0.1430  0.9505 -0.5980
   87SAPS  C217 8350   1.591   2.105   8.930  0.0213  1.1844  0.2457
   87SAPS  H17R 8351   1.612   2.029   8.852 -0.2690  1.1084  0.2418
   87SAPS  H17S 8352   1.566   2.198   8.874 -0.8089  1.3950  0.9479
   87SAPS  C218 8353   1.450   2.065   8.997 -0.8555  0.5163  0.0058
   87SAPS  H18R 8354   1.431   2.128   9.087 -2.9209 -1.3389  0.9917
   87SAPS  H18S 8355   1.472   1.964   9.039  2.5770  0.8215 -0.7810
   87SAPS  C219 8356   1.321   2.060   8.901 -0.8550  0.0383 -0.3759
   87SAPS  H19R 8357   1.302   2.164   8.866  0.6557  0.6061  0.4238
   87SAPS  H19S 8358   1.231   2.041   8.962  0.6086 -0.4832  1.7369
   87SAPS  C220 8359   1.325   1.954   8.791  0.3613  0.2209 -0.3042
   87SAPS  H20R 8360   1.234   1.962   8.728 -0.5622 -2.4241  0.5949
   87SAPS  H20S 8361   1.329   1.852   8.833 -2.9574  0.7016  1.4819
   87SAPS  H20T 8362   1.408   1.971   8.718 -0.4503  0.9982 -1.0707
   87SAPS   C33 8363   1.414   2.721  10.000  0.3747  0.1837 -0.0841
   87SAPS   H3X 8364   1.522   2.699  10.015  0.7355  0.9568 -1.4033
   87SAPS   H3Y 8365   1.410   2.828   9.972  1.2177 -0.2025 -1.8419
   87SAPS   C34 8366   1.371   2.637   9.883 -0.2623 -0.2779 -0.4534
   87SAPS   H4X 8367   1.262   2.651   9.864  0.1898  2.2865 -1.5157
   87SAPS   H4Y 8368   1.381   2.529   9.910 -1.3380  0.1696  2.0256
   87SAPS   C35 8369   1.452   2.662   9.756  0.1941 -0.1475  0.5815
   87SAPS   H5X 8370   1.559   2.640   9.777  0.2475 -0.1445  0.3210
   87SAPS   H5Y 8371   1.448   2.767   9.722  2.5578  0.2099  1.2387
   87SAPS   C36 8372   1.410   2.571   9.635 -0.5433 -0.5620 -0.7482
   87SAPS   H6X 8373   1.300   2.582   9.626 -1.2138 -3.1410  2.3480
   87SAPS   H6Y 8374   1.435   2.466   9.663  2.5901 -0.4768 -2.6906
   87SAPS   C37 8375   1.480   2.597   9.506 -1.0001 -0.2689 -0.7233
   87SAPS   H7X 8376   1.587   2.566   9.512 -0.6870  0.9585  0.9260
   87SAPS   H7Y 8377   1.483   2.708   9.495  0.2733 -0.1299  0.6093
   87SAPS   C38 8378   1.412   2.533   9.385  0.1739  0.5354 -0.3553
   87SAPS   H8X 8379   1.305   2.556   9.400 -0.1156 -1.2325  0.5216
   87SAPS   H8Y 8380   1.426   2.423   9.378 -0.1519  0.3756  1.3043
   87SAPS   C39 8381   1.465   2.604   9.265  0.1652 -0.0829 -0.1473
   87SAPS   H9X 8382   1.576   2.612   9.269  0.3595 -1.2960 -1.8478
   87SAPS   H9Y 8383   1.421   2.706   9.264 -0.1303 -0.1406  2.0619
   87SAPS  C310 8384   1.427   2.538   9.128  0.3324  0.3139  0.2972
   87SAPS  H10X 8385   1.317   2.553   9.116  0.3616  3.4187  2.6298
   87SAPS  H10Y 8386   1.449   2.429   9.124 -1.8011 -0.1422 -0.1219
   87SAPS  C311 8387   1.487   2.606   9.007 -0.0131 -0.6055  0.2232
   87SAPS  H11X 8388   1.596   2.588   9.023 -0.3190 -0.6726  2.5980
   87SAPS  H11Y 8389   1.465   2.714   9.007  0.2740 -0.4958  2.4336
   87SAPS  C312 8390   1.450   2.542   8.875  0.3637  0.3003 -0.0089
   87SAPS  H12X 8391   1.348   2.573   8.846  0.7938 -0.5086 -2.6468
   87SAPS  H12Y 8392   1.447   2.431   8.879 -0.6835  0.2471 -1.5389
   87SAPS  C313 8393   1.548   2.569   8.757  0.9785 -0.3604 -0.4450
   87SAPS  H13X 8394   1.498   2.553   8.659 -0.8142 -3.4806  0.8050
   87SAPS  H13Y 8395   1.635   2.500   8.758  1.4403  0.1541 -2.0938
   87SAPS  C314 8396   1.608   2.702   8.755  0.1156  0.5530  0.1219
   87SAPS  H14X 8397   1.662   2.719   8.850 -0.9058 -0.6666  0.9476
   87SAPS  H14Y 8398   1.523   2.769   8.732 -1.1660 -0.9473  0.3020
   87SAPS  C315 8399   1.715   2.706   8.642  0.2491  0.0829  0.0237
   87SAPS  H15X 8400   1.664   2.667   8.551 -0.5797  0.5474  0.2853
   87SAPS  H15Y 8401   1.794   2.631   8.666  2.0942  1.6828 -0.7981
   87SAPS  C316 8402   1.760   2.849   8.620  0.4281 -0.2368 -0.2071
   87SAPS  H16X 8403   1.808   2.891   8.711 -0.8203 -0.1868  0.4408
   87SAPS  H16Y 8404   1.685   2.929   8.601 -1.3619 -1.4822  1.3159
   87SAPS  C317 8405   1.869   2.853   8.509  0.4668 -0.3416  0.1520
   87SAPS  H17X 8406   1.824   2.808   8.418 -0.9207 -0.6104  0.9379
   87SAPS  H17Y 8407   1.955   2.788   8.539 -0.0376  0.0657  2.7560
   87SAPS  C318 8408   1.942   2.989   8.488  0.2381  0.3307 -0.6815
   87SAPS  H18X 8409   2.027   2.963   8.421  0.1512 -1.5070 -0.1423
   87SAPS  H18Y 8410   1.970   3.023   8.590 -0.3781 -0.7944 -0.1216
   87SAPS  H18Z 8411   1.880   3.068   8.440  0.6261  1.3811  0.4794
   88SAPS     N 8412   4.711   0.360  10.815  0.6593 -0.0337  0.4592
   88SAPS   HN1 8413   4.739   0.263  10.842 -0.0315 -0.3072  0.2043
   88SAPS   HN2 8414   4.620   0.354  10.766  1.8258 -0.9593 -1.7341
   88SAPS   HN3 8415   4.782   0.403  10.752 -0.3983  1.1432  0.0171
   88SAPS   C12 8416   4.700   0.454  10.931 -0.3931  0.4741 -0.5402
   88SAPS  H12A 8417   4.662   0.551  10.902  1.3542  0.8102 -1.9036
   88SAPS   C13 8418   4.596   0.394  11.039  0.0604 -0.3057 -0.4112
   88SAPS  O13A 8419   4.539   0.288  11.024  0.5654  0.0391 -0.4792
   88SAPS  O13B 8420   4.565   0.467  11.137  0.3506 -0.0554  0.6092
   88SAPS   C11 8421   4.844   0.467  10.999  1.0970 -0.0116 -0.0772
   88SAPS  H11A 8422   4.854   0.368  11.048  0.7873 -2.7130 -4.9331
   88SAPS  H11B 8423   4.840   0.553  11.070  2.9932  1.3802 -1.5473
   88SAPS     P 8424   5.085   0.544  10.948  0.1211 -0.0801 -0.4858
   88SAPS   O13 8425   5.060   0.677  11.012  0.0299  0.3462 -0.0446
   88SAPS   O14 8426   5.156   0.444  11.026 -0.3868 -0.1148 -0.1694
   88SAPS   O12 8427   4.945   0.485  10.897  0.4210  0.1674 -0.1653
   88SAPS   O11 8428   5.167   0.560  10.818 -0.6009 -0.8895 -0.2784
   88SAPS    C1 8429   5.120   0.594  10.687 -0.8054  0.0532 -0.2502
   88SAPS    HA 8430   5.195   0.576  10.607 -0.3511  1.3530 -0.1465
   88SAPS    HB 8431   5.038   0.524  10.661  0.6899 -2.1685  0.7200
   88SAPS    C2 8432   5.076   0.744  10.684 -0.1183  0.4411  0.0734
   88SAPS    HS 8433   5.003   0.761  10.766  0.9310  1.3222  0.8656
   88SAPS   O21 8434   5.025   0.769  10.550  0.3693  0.7162  0.5047
   88SAPS   C21 8435   4.946   0.876  10.547 -1.1186 -0.0621 -0.2457
   88SAPS   O22 8436   4.929   0.952  10.639  0.0943 -0.5364  0.5257
   88SAPS   C22 8437   4.874   0.884  10.410 -0.1525 -0.5590 -0.0058
   88SAPS   H2R 8438   4.824   0.787  10.388 -1.6741  0.5030 -1.5301
   88SAPS   H2S 8439   4.788   0.953  10.428  1.1338  0.5114  2.5940
   88SAPS    C3 8440   5.202   0.828  10.719  0.4072 -0.1571  0.0912
   88SAPS    HX 8441   5.247   0.795  10.815  1.8936 -2.5550 -1.3380
   88SAPS    HY 8442   5.165   0.933  10.729 -0.5774 -0.2366 -2.1067
   88SAPS   O31 8443   5.296   0.813  10.610 -0.1163  0.1865  0.0303
   88SAPS   C31 8444   5.331   0.919  10.541 -0.5501  0.5269  0.4911
   88SAPS   O32 8445   5.289   1.029  10.551  0.0676  0.0555  0.2050
   88SAPS   C32 8446   5.433   0.874  10.432  0.3884 -1.1566 -0.7033
   88SAPS   H2X 8447   5.500   0.796  10.474  1.3761 -0.3407 -0.7001
   88SAPS   H2Y 8448   5.498   0.963  10.417 -1.3407  0.6698  1.8555
   88SAPS   C23 8449   4.951   0.939  10.297  0.0921 -0.0419  0.0465
   88SAPS   H3R 8450   4.895   0.917  10.203  0.5603  1.2548 -0.5639
   88SAPS   H3S 8451   5.045   0.879  10.296 -0.2315 -0.7097  2.7200
   88SAPS   C24 8452   4.989   1.087  10.299  0.6522 -0.5741  0.4066
   88SAPS   H4R 8453   4.983   1.134  10.399  0.5441  1.2172 -0.3978
   88SAPS   H4S 8454   4.905   1.139  10.247  2.0031 -0.6363 -1.9878
   88SAPS   C25 8455   5.126   1.104  10.238  0.7046 -0.3473  0.0859
   88SAPS   H5R 8456   5.208   1.107  10.311  0.2103  3.2993  0.6441
   88SAPS   C26 8457   5.151   1.119  10.107 -0.7954  0.8273  0.2816
   88SAPS   H6R 8458   5.255   1.124  10.074 -0.6570 -1.7436  0.1335
   88SAPS   C27 8459   5.055   1.125   9.986 -0.3379  0.9479  0.2095
   88SAPS   H7R 8460   5.090   1.202   9.915 -0.9580  0.6052 -0.4855
   88SAPS   H7S 8461   4.950   1.147  10.017 -0.3514  1.2408 -0.0444
   88SAPS   C28 8462   5.068   0.994   9.903  0.0481 -0.5415 -0.3507
   88SAPS   H8R 8463   5.061   0.902   9.963 -1.5845 -0.6315 -0.6192
   88SAPS   C29 8464   5.083   0.977   9.771 -0.1240  0.4412  0.2197
   88SAPS   H9R 8465   5.095   0.876   9.730  0.1255  0.0571  1.2045
   88SAPS  C210 8466   5.082   1.085   9.664 -0.7121 -0.7680 -0.8440
   88SAPS  H10R 8467   5.177   1.063   9.611 -1.5024 -0.0693 -2.6178
   88SAPS  H10S 8468   5.098   1.186   9.706  0.3333 -1.1450 -0.2792
   88SAPS  C211 8469   4.958   1.080   9.583 -0.5127 -0.5806 -0.1857
   88SAPS  H11R 8470   4.869   1.060   9.645 -0.2952  0.0331  0.3345
   88SAPS  C212 8471   4.942   1.108   9.452 -0.2690  0.4253  0.1748
   88SAPS  H12R 8472   4.841   1.092   9.413  0.3294 -2.1417 -0.5415
   88SAPS  C213 8473   5.055   1.160   9.352 -0.2067 -0.4911  0.1893
   88SAPS  H13R 8474   5.084   1.070   9.294  0.0148  0.0930 -0.6256
   88SAPS  H13S 8475   5.151   1.190   9.399  0.5208  0.4271 -1.7885
   88SAPS  C214 8476   5.011   1.275   9.267 -0.0732  0.4128 -0.1797
   88SAPS  H14R 8477   5.012   1.374   9.315 -0.2746  1.1750 -1.6683
   88SAPS  C215 8478   4.977   1.262   9.136 -0.2936  0.1142  0.5618
   88SAPS  H15R 8479   4.927   1.349   9.092 -1.6284  0.1626  2.0921
   88SAPS  C216 8480   4.973   1.130   9.054 -0.2610 -0.1410  0.5507
   88SAPS  H16R 8481   4.868   1.094   9.042 -0.6852  1.1034  0.3404
   88SAPS  H16S 8482   5.035   1.045   9.089  1.3693  0.2734 -1.1765
   88SAPS  C217 8483   5.031   1.147   8.916  0.5461  0.4478  0.0717
   88SAPS  H17R 8484   5.043   1.051   8.862 -0.4784  0.1584  0.3486
   88SAPS  H17S 8485   5.132   1.194   8.919  0.2022  1.4702 -2.2747
   88SAPS  C218 8486   4.947   1.234   8.825  0.3086  0.3581  0.6117
   88SAPS  H18R 8487   4.929   1.332   8.874 -0.2147  0.5148  0.1242
   88SAPS  H18S 8488   4.848   1.186   8.811 -0.2641  1.2137  1.6026
   88SAPS  C219 8489   5.001   1.253   8.679  0.2044 -0.5591 -0.5892
   88SAPS  H19R 8490   5.024   1.155   8.632  1.5205 -1.0365  0.9549
   88SAPS  H19S 8491   5.099   1.303   8.689 -1.0648  2.1682 -0.8278
   88SAPS  C220 8492   4.921   1.343   8.587 -0.9381  0.4371  0.2180
   88SAPS  H20R 8493   4.836   1.278   8.558  1.2866 -3.0143  0.8576
   88SAPS  H20S 8494   4.973   1.353   8.489 -1.1154 -0.5763  0.0124
   88SAPS  H20T 8495   4.895   1.446   8.621 -0.2621  0.5046  0.5471
   88SAPS   C33 8496   5.366   0.821  10.304  0.3279  0.7046  0.1002
   88SAPS   H3X 8497   5.265   0.866  10.295 -1.2377 -2.4596  0.2704
   88SAPS   H3Y 8498   5.349   0.711  10.302  1.5214  0.4882  0.6566
   88SAPS   C34 8499   5.452   0.845  10.173 -0.1136 -0.2150 -0.9676
   88SAPS   H4X 8500   5.549   0.800  10.204 -0.7278  0.3312  2.1448
   88SAPS   H4Y 8501   5.471   0.953  10.159 -1.7448  0.1016 -0.9154
   88SAPS   C35 8502   5.384   0.784  10.055  0.2088 -0.3737  0.0819
   88SAPS   H5X 8503   5.279   0.822  10.052  0.1410 -0.1678  2.7370
   88SAPS   H5Y 8504   5.378   0.674  10.068 -0.8300 -0.3610 -0.2268
   88SAPS   C36 8505   5.452   0.814   9.916 -0.1683  0.0963 -0.6425
   88SAPS   H6X 8506   5.560   0.792   9.927 -0.4778 -0.4615  1.8219
   88SAPS   H6Y 8507   5.434   0.921   9.891 -1.0252 -0.3313 -1.9769
   88SAPS   C37 8508   5.393   0.725   9.810 -0.3713 -0.2956  0.1828
   88SAPS   H7X 8509   5.287   0.706   9.838 -0.4928  0.7541  0.4782
   88SAPS   H7Y 8510   5.457   0.634   9.804  1.8987  1.2283 -0.2341
   88SAPS   C38 8511   5.385   0.792   9.667  0.0760 -0.9307 -0.2763
   88SAPS   H8X 8512   5.485   0.829   9.633 -0.1655 -0.9984 -1.0839
   88SAPS   H8Y 8513   5.315   0.878   9.674  0.4772 -0.6304  0.0545
   88SAPS   C39 8514   5.345   0.706   9.544 -0.5077  0.4519 -0.1400
   88SAPS   H9X 8515   5.273   0.626   9.571  1.4602 -1.5642 -0.6072
   88SAPS   H9Y 8516   5.436   0.658   9.501 -0.0120  0.7804  0.5265
   88SAPS  C310 8517   5.283   0.796   9.430  1.0655 -0.2795  0.1034
   88SAPS  H10X 8518   5.357   0.878   9.413  0.6014  0.4984  1.6193
   88SAPS  H10Y 8519   5.185   0.843   9.451  2.5522  3.6178 -0.7623
   88SAPS  C311 8520   5.274   0.711   9.305 -0.1530  0.7893  0.3053
   88SAPS  H11X 8521   5.198   0.631   9.318  0.1682  0.2722 -0.8756
   88SAPS  H11Y 8522   5.373   0.664   9.288 -0.2412  1.2908 -1.8714
   88SAPS  C312 8523   5.235   0.789   9.173  0.3627  0.2763  0.1375
   88SAPS  H12X 8524   5.293   0.883   9.168 -1.1246  1.1651 -1.9950
   88SAPS  H12Y 8525   5.128   0.815   9.189  0.5312  0.6079  0.7731
   88SAPS  C313 8526   5.264   0.708   9.049  0.2051 -0.0465  0.0291
   88SAPS  H13X 8527   5.180   0.636   9.042  0.2740  0.0348 -3.7907
   88SAPS  H13Y 8528   5.358   0.650   9.063 -0.1221 -0.0845  2.2936
   88SAPS  C314 8529   5.270   0.790   8.923  0.1328  0.4045  1.0234
   88SAPS  H14X 8530   5.364   0.849   8.916  0.4727 -0.0596  1.5446
   88SAPS  H14Y 8531   5.186   0.862   8.935  0.1782  0.3399  1.8039
   88SAPS  C315 8532   5.254   0.705   8.788 -0.1261  1.2064  0.2862
   88SAPS  H15X 8533   5.165   0.643   8.815  0.7731  0.2140  1.0382
   88SAPS  H15Y 8534   5.330   0.625   8.777 -1.5652 -0.3585  1.2037
   88SAPS  C316 8535   5.246   0.795   8.663  0.1795 -0.3623  0.4571
   88SAPS  H16X 8536   5.347   0.829   8.633  0.8757 -2.7882 -0.1413
   88SAPS  H16Y 8537   5.191   0.887   8.695  3.6290  2.1931 -0.3707
   88SAPS  C317 8538   5.179   0.719   8.547 -0.0091 -0.2037  0.3040
   88SAPS  H17X 8539   5.071   0.712   8.571 -0.1065  0.2280 -0.0019
   88SAPS  H17Y 8540   5.228   0.619   8.550 -0.7841 -0.5807  0.6294
   88SAPS  C318 8541   5.185   0.765   8.407  0.3022  0.5990 -0.1690
   88SAPS  H18X 8542   5.114   0.847   8.382 -0.4958 -0.9060 -3.3948
   88SAPS  H18Y 8543   5.165   0.678   8.341  0.1755 -0.1946  0.9035
   88SAPS  H18Z 8544   5.286   0.800   8.377  0.4693 -1.8794 -2.9472
   89SAPS     N 8545   2.682   3.122  10.670 -0.5231  0.3267 -0.2665
   89SAPS   HN1 8546   2.775   3.139  10.628 -0.4259 -1.3911 -0.8306
   89SAPS   HN2 8547   2.656   3.024  10.647 -0.2456  0.0751  0.4570
   89SAPS   HN3 8548   2.606   3.181  10.630 -2.3333 -1.2646  0.6535
   89SAPS   C12 8549   2.693   3.132  10.820 -0.0375 -0.2753  0.5883
   89SAPS  H12A 8550   2.754   3.049  10.852 -2.7312 -0.6465  5.7157
   89SAPS   C13 8551   2.757   3.263  10.875  0.1870  0.3568 -0.3760
   89SAPS  O13A 8552   2.804   3.354  10.798  0.0580  0.7152 -0.5642
   89SAPS  O13B 8553   2.790   3.260  10.999 -0.0258  0.2487 -0.7323
   89SAPS   C11 8554   2.551   3.118  10.872 -0.5818 -0.1452 -0.5786
   89SAPS  H11A 8555   2.495   3.196  10.817 -0.9100 -2.1622 -3.3707
   89SAPS  H11B 8556   2.555   3.134  10.982  4.5521 -2.1790 -0.1912
   89SAPS     P 8557   2.395   2.919  10.932 -0.0860 -0.2280 -0.3997
   89SAPS   O13 8558   2.469   2.832  11.030 -0.0357  0.1293  0.3203
   89SAPS   O14 8559   2.308   3.027  10.982 -0.1176  0.1355  0.5434
   89SAPS   O12 8560   2.507   2.983  10.838 -0.3753 -0.5801  0.3524
   89SAPS   O11 8561   2.321   2.828  10.828  0.4135 -0.9980 -0.1822
   89SAPS    C1 8562   2.262   2.892  10.713  0.2440  0.1338 -0.7167
   89SAPS    HA 8563   2.183   2.967  10.737  1.1602  1.0136 -0.3756
   89SAPS    HB 8564   2.339   2.944  10.651  0.0759 -0.4426 -1.4244
   89SAPS    C2 8565   2.185   2.795  10.630  0.4018 -0.4119  0.5776
   89SAPS    HS 8566   2.098   2.765  10.691 -0.8131 -1.8802 -1.7257
   89SAPS   O21 8567   2.262   2.673  10.608  0.1118 -0.3617 -0.5358
   89SAPS   C21 8568   2.200   2.573  10.544  0.1730 -0.1421 -0.1839
   89SAPS   O22 8569   2.088   2.566  10.504 -0.1979  0.0396 -0.2933
   89SAPS   C22 8570   2.301   2.462  10.531 -0.1761  0.2552 -0.1252
   89SAPS   H2R 8571   2.369   2.468  10.618  1.8967  0.9515 -1.6950
   89SAPS   H2S 8572   2.234   2.374  10.541 -1.8085  1.3513 -0.7963
   89SAPS    C3 8573   2.137   2.873  10.499  0.3856  0.0275  0.1474
   89SAPS    HX 8574   2.067   2.954  10.528  0.5842  0.7832 -1.4023
   89SAPS    HY 8575   2.083   2.806  10.430  0.7054 -1.3026  1.1524
   89SAPS   O31 8576   2.248   2.944  10.435 -0.2431 -0.5523 -0.3803
   89SAPS   C31 8577   2.319   2.879  10.349  0.3205 -0.3103 -0.7619
   89SAPS   O32 8578   2.303   2.768  10.308  0.7649  0.1616  0.8155
   89SAPS   C32 8579   2.447   2.958  10.317  0.8490 -0.0650  0.7729
   89SAPS   H2X 8580   2.525   2.879  10.309 -1.1455 -1.9620 -1.7019
   89SAPS   H2Y 8581   2.483   3.029  10.394  4.5981 -0.1989 -0.6006
   89SAPS   C23 8582   2.381   2.441  10.394 -0.8837 -0.4001  0.2872
   89SAPS   H3R 8583   2.489   2.445  10.417 -0.9586 -3.4162  1.6312
   89SAPS   H3S 8584   2.362   2.518  10.316  1.2923 -1.2688 -1.1813
   89SAPS   C24 8585   2.352   2.307  10.327 -0.1106  0.3590 -0.5328
   89SAPS   H4R 8586   2.346   2.227  10.404  0.5239  1.0261  0.2321
   89SAPS   H4S 8587   2.435   2.271  10.261  1.3136 -0.6996  1.7072
   89SAPS   C25 8588   2.220   2.311  10.255 -1.0758  0.4586  0.0922
   89SAPS   H5R 8589   2.142   2.366  10.310  0.4261  0.0874  2.7075
   89SAPS   C26 8590   2.208   2.297  10.120  0.1809  0.7100 -0.4055
   89SAPS   H6R 8591   2.110   2.309  10.072  0.9169  1.0550 -1.8659
   89SAPS   C27 8592   2.316   2.264  10.023 -0.0496  0.6119 -0.0200
   89SAPS   H7R 8593   2.287   2.191   9.944  1.6649 -1.1689  0.9093
   89SAPS   H7S 8594   2.396   2.204  10.073  0.9507  3.3854  1.9725
   89SAPS   C28 8595   2.381   2.389   9.962  0.4730  0.1871  0.3243
   89SAPS   H8R 8596   2.440   2.445  10.036  1.1875 -2.0537  1.5356
   89SAPS   C29 8597   2.387   2.434   9.838  0.0088 -0.4209  0.1376
   89SAPS   H9R 8598   2.440   2.530   9.824  1.9793 -1.4778  0.0579
   89SAPS  C210 8599   2.323   2.372   9.714  0.1180  0.4902  0.0981
   89SAPS  H10R 8600   2.321   2.447   9.631 -0.7176 -0.9103 -1.1874
   89SAPS  H10S 8601   2.217   2.352   9.739  0.6730 -0.7493  1.6272
   89SAPS  C211 8602   2.381   2.243   9.660 -0.2764  0.1574  0.2892
   89SAPS  H11R 8603   2.399   2.164   9.735 -1.1537 -1.3595 -1.0385
   89SAPS  C212 8604   2.412   2.223   9.534 -0.0161  0.0180 -0.1915
   89SAPS  H12R 8605   2.466   2.133   9.503  0.5030 -0.2830  1.5004
   89SAPS  C213 8606   2.399   2.328   9.420  0.2871  0.1444 -0.0163
   89SAPS  H13R 8607   2.309   2.387   9.445  1.4077  0.6653  3.2939
   89SAPS  H13S 8608   2.377   2.272   9.326  1.0782 -1.1826  0.5464
   89SAPS  C214 8609   2.515   2.423   9.395 -0.5298  0.7104  0.4037
   89SAPS  H14R 8610   2.531   2.495   9.476 -0.6785  0.6816  0.4595
   89SAPS  C215 8611   2.606   2.418   9.293  0.1979 -0.1436 -0.9577
   89SAPS  H15R 8612   2.687   2.492   9.306 -0.2861  0.0207  1.9415
   89SAPS  C216 8613   2.606   2.326   9.179  0.4265 -0.1014  0.2972
   89SAPS  H16R 8614   2.548   2.233   9.197  2.7461 -1.2264  2.7687
   89SAPS  H16S 8615   2.711   2.291   9.165 -0.4547 -3.1953  0.6795
   89SAPS  C217 8616   2.577   2.398   9.046  0.5274  0.1672  0.2389
   89SAPS  H17R 8617   2.640   2.489   9.036 -0.3682  0.7342 -0.4202
   89SAPS  H17S 8618   2.470   2.420   9.028  0.8726  1.2403 -0.6479
   89SAPS  C218 8619   2.628   2.304   8.932 -0.3639 -0.2899  0.3442
   89SAPS  H18R 8620   2.559   2.218   8.921  0.9006 -1.2525 -0.3894
   89SAPS  H18S 8621   2.731   2.265   8.949  0.4584  0.8134 -1.6234
   89SAPS  C219 8622   2.630   2.378   8.801 -0.6811  0.6318  0.4236
   89SAPS  H19R 8623   2.693   2.466   8.826  0.2399 -0.2186  1.1762
   89SAPS  H19S 8624   2.526   2.413   8.781 -0.4694  0.3674 -1.2124
   89SAPS  C220 8625   2.690   2.292   8.692 -0.4218 -0.4298  1.1372
   89SAPS  H20R 8626   2.624   2.207   8.662 -1.8948  0.8217  0.6839
   89SAPS  H20S 8627   2.787   2.256   8.732 -0.6102 -1.1563  0.9532
   89SAPS  H20T 8628   2.709   2.355   8.602 -1.8609  0.0381  1.1232
   89SAPS   C33 8629   2.438   3.022  10.174 -0.9724  0.2332 -0.7686
   89SAPS   H3X 8630   2.528   3.081  10.149 -0.6985 -0.4577 -1.4737
   89SAPS   H3Y 8631   2.347   3.084  10.156 -1.1113  0.2735  0.0323
   89SAPS   C34 8632   2.447   2.912  10.069  0.2205  0.3910  0.1067
   89SAPS   H4X 8633   2.372   2.831  10.082  3.1428 -2.5444 -0.0248
   89SAPS   H4Y 8634   2.538   2.849  10.071 -2.2873 -3.8300 -2.9730
   89SAPS   C35 8635   2.437   2.967   9.929 -0.1379 -0.1078  0.5434
   89SAPS   H5X 8636   2.499   3.059   9.920 -2.3504  1.3288 -1.6938
   89SAPS   H5Y 8637   2.337   3.009   9.905  0.7055  0.8258 -1.5895
   89SAPS   C36 8638   2.483   2.856   9.825  0.0117  0.9247 -0.3391
   89SAPS   H6X 8639   2.419   2.767   9.841  1.7360 -0.3066 -0.0188
   89SAPS   H6Y 8640   2.584   2.825   9.858  1.3107  3.4577 -1.6645
   89SAPS   C37 8641   2.475   2.905   9.680 -0.2940  0.5166 -0.1265
   89SAPS   H7X 8642   2.525   3.004   9.671 -0.3935  0.5347 -0.4969
   89SAPS   H7Y 8643   2.370   2.929   9.655 -0.9376  1.5119  3.0188
   89SAPS   C38 8644   2.530   2.808   9.570 -0.0052 -0.6037 -0.4085
   89SAPS   H8X 8645   2.467   2.717   9.557 -2.8528  1.2056 -0.1156
   89SAPS   H8Y 8646   2.632   2.771   9.592 -0.2562 -1.5324 -0.7523
   89SAPS   C39 8647   2.534   2.897   9.444  0.4220  0.3821 -0.7748
   89SAPS   H9X 8648   2.567   3.002   9.458 -1.5116  0.8112  1.2073
   89SAPS   H9Y 8649   2.429   2.911   9.409 -0.8389  0.2578  2.5697
   89SAPS  C310 8650   2.624   2.843   9.330 -0.4348 -0.4103  0.1450
   89SAPS  H10X 8651   2.611   2.736   9.305  0.2972 -0.2541 -0.9659
   89SAPS  H10Y 8652   2.727   2.848   9.372 -0.0152 -0.2270 -0.8880
   89SAPS  C311 8653   2.610   2.935   9.213 -0.5750  0.1330 -0.4295
   89SAPS  H11X 8654   2.615   3.038   9.254 -0.4962  0.2953 -0.8379
   89SAPS  H11Y 8655   2.515   2.914   9.159 -2.0525 -0.2884  2.1828
   89SAPS  C312 8656   2.733   2.913   9.128  0.1469 -0.6845  0.3963
   89SAPS  H12X 8657   2.757   2.805   9.123 -0.5060 -1.1033  3.6801
   89SAPS  H12Y 8658   2.826   2.964   9.160 -0.2530  0.9976 -0.9847
   89SAPS  C313 8659   2.709   2.954   8.978 -0.9174  0.4417 -0.3847
   89SAPS  H13X 8660   2.672   3.058   8.969 -0.9641  0.6791  1.9279
   89SAPS  H13Y 8661   2.624   2.902   8.930  0.3417  0.1507 -2.4358
   89SAPS  C314 8662   2.840   2.940   8.899 -0.5723 -0.0882 -0.0386
   89SAPS  H14X 8663   2.890   2.852   8.946 -0.0527 -0.4806 -1.2838
   89SAPS  H14Y 8664   2.902   3.031   8.910 -0.4965 -0.3049  1.4291
   89SAPS  C315 8665   2.820   2.919   8.752 -0.9243 -0.3613  0.3183
   89SAPS  H15X 8666   2.777   2.818   8.734  1.7735 -1.7963  1.3526
   89SAPS  H15Y 8667   2.918   2.922   8.700  0.3518  2.7135  2.5813
   89SAPS  C316 8668   2.740   3.033   8.687  0.5467  0.2845 -0.6532
   89SAPS  H16X 8669   2.796   3.126   8.706 -0.7594  2.1997 -4.8172
   89SAPS  H16Y 8670   2.637   3.036   8.729 -0.3924  0.8353 -2.8320
   89SAPS  C317 8671   2.717   2.998   8.539 -0.3387 -0.0333  0.3904
   89SAPS  H17X 8672   2.658   2.904   8.534  0.9642 -0.8980  0.8956
   89SAPS  H17Y 8673   2.818   2.962   8.511  0.4157  1.5787  0.9170
   89SAPS  C318 8674   2.675   3.124   8.464  0.1555  0.6665  0.3800
   89SAPS  H18X 8675   2.582   3.166   8.508 -0.9051 -1.6746  0.5269
   89SAPS  H18Y 8676   2.661   3.098   8.357  1.1219 -3.1055  1.0238
   89SAPS  H18Z 8677   2.762   3.193   8.473  1.9604 -1.4159 -0.1034
   90SAPS     N 8678   5.612   3.281  11.120  0.3423 -0.2597 -0.0399
   90SAPS   HN1 8679   5.541   3.265  11.194 -2.6001  2.3570 -2.0529
   90SAPS   HN2 8680   5.559   3.330  11.046  1.5825  0.3429 -0.5686
   90SAPS   HN3 8681   5.671   3.201  11.089  1.7852  0.5106  0.6025
   90SAPS   C12 8682   5.720   3.386  11.171  0.0771  0.3069 -0.4644
   90SAPS  H12A 8683   5.702   3.476  11.114 -2.9537 -0.4409 -0.8509
   90SAPS   C13 8684   5.704   3.425  11.319  0.2593  0.2218 -0.0689
   90SAPS  O13A 8685   5.609   3.378  11.387 -0.3874 -0.1178 -0.3961
   90SAPS  O13B 8686   5.761   3.533  11.349 -0.3198 -0.3032  0.1856
   90SAPS   C11 8687   5.870   3.327  11.156 -0.3757 -0.2219  0.4484
   90SAPS  H11A 8688   5.861   3.224  11.197 -2.0208 -1.3857 -2.5099
   90SAPS  H11B 8689   5.945   3.383  11.215 -1.4430  0.9433  0.7438
   90SAPS     P 8690   5.951   3.437  10.938  0.1055 -0.0901 -0.1883
   90SAPS   O13 8691   5.984   3.555  11.020 -0.6770 -0.0493  0.1759
   90SAPS   O14 8692   6.057   3.402  10.841 -0.8467  0.6679 -0.3481
   90SAPS   O12 8693   5.901   3.309  11.019  0.1477  0.1083  0.0055
   90SAPS   O11 8694   5.831   3.473  10.838 -0.8682 -0.3758 -0.0968
   90SAPS    C1 8695   5.817   3.430  10.705  0.7423 -0.2147 -0.3262
   90SAPS    HA 8696   5.867   3.333  10.686 -0.3874 -0.5785 -1.5737
   90SAPS    HB 8697   5.709   3.407  10.688  0.7258 -1.7296  1.3982
   90SAPS    C2 8698   5.844   3.539  10.602 -0.3122  0.3810 -0.0502
   90SAPS    HS 8699   5.953   3.561  10.598 -0.2386  0.5893  2.2513
   90SAPS   O21 8700   5.773   3.653  10.634  0.4651  0.2640  0.2397
   90SAPS   C21 8701   5.825   3.772  10.614 -0.1522  0.0634  0.6641
   90SAPS   O22 8702   5.923   3.801  10.550 -0.0687 -0.5844  0.3007
   90SAPS   C22 8703   5.736   3.881  10.663  0.1954 -0.6094  0.0302
   90SAPS   H2R 8704   5.646   3.853  10.722  0.9764 -1.3668  0.8829
   90SAPS   H2S 8705   5.800   3.943  10.728 -2.3186  1.9612  0.2405
   90SAPS    C3 8706   5.803   3.485  10.453  0.2138 -0.5450  0.0119
   90SAPS    HX 8707   5.694   3.463  10.459  0.2792 -1.5654 -1.8832
   90SAPS    HY 8708   5.854   3.388  10.433  1.0013 -0.0801 -0.2484
   90SAPS   O31 8709   5.819   3.590  10.351 -0.0754 -0.1170 -0.5130
   90SAPS   C31 8710   5.916   3.575  10.268 -0.3907  0.0982  0.3446
   90SAPS   O32 8711   6.009   3.498  10.276  0.3510 -0.0946  0.2019
   90SAPS   C32 8712   5.878   3.663  10.146  0.5852  0.0592 -0.0849
   90SAPS   H2X 8713   5.869   3.768  10.182  2.1002  0.4036 -0.6195
   90SAPS   H2Y 8714   5.782   3.628  10.104 -0.0234  0.4320  0.9531
   90SAPS   C23 8715   5.674   3.971  10.552 -0.0218 -0.7130 -0.2698
   90SAPS   H3R 8716   5.746   4.012  10.478  0.9521  0.9258  1.4917
   90SAPS   H3S 8717   5.647   4.065  10.605  2.1922 -0.3469  0.3035
   90SAPS   C24 8718   5.550   3.914  10.478  0.1561  0.4920  0.4456
   90SAPS   H4R 8719   5.489   3.991  10.426  0.9445 -0.7691 -2.5848
   90SAPS   H4S 8720   5.479   3.874  10.554 -2.2609  0.4893 -1.6809
   90SAPS   C25 8721   5.590   3.806  10.381 -0.9849 -0.0912 -0.3821
   90SAPS   H5R 8722   5.619   3.711  10.429 -2.2647  0.5552  1.7760
   90SAPS   C26 8723   5.590   3.813  10.248  0.3231 -0.6245 -0.3715
   90SAPS   H6R 8724   5.618   3.720  10.197 -0.4231 -1.2244  0.2931
   90SAPS   C27 8725   5.553   3.926  10.152  0.3502  0.0419 -0.0723
   90SAPS   H7R 8726   5.488   3.994  10.210  1.1409  2.1332 -1.5302
   90SAPS   H7S 8727   5.502   3.883  10.063  1.7951  1.0312 -1.4212
   90SAPS   C28 8728   5.674   3.998  10.108  0.7735 -0.1764  0.7949
   90SAPS   H8R 8729   5.723   4.062  10.183  2.9393 -2.5166  1.5064
   90SAPS   C29 8730   5.727   3.998   9.984 -0.1412  0.2952 -0.3305
   90SAPS   H9R 8731   5.817   4.059   9.967  0.6142 -0.7618 -0.2505
   90SAPS  C210 8732   5.670   3.943   9.863  0.4456  0.1149  0.8171
   90SAPS  H10R 8733   5.561   3.927   9.879  0.1460  0.6329 -0.5411
   90SAPS  H10S 8734   5.727   3.850   9.842 -0.9565 -0.5379 -0.2509
   90SAPS  C211 8735   5.661   4.029   9.739  0.6818  0.2098 -0.0372
   90SAPS  H11R 8736   5.627   4.133   9.745 -0.8416 -0.0768 -2.3018
   90SAPS  C212 8737   5.707   3.982   9.622 -0.4179 -0.1961 -0.5263
   90SAPS  H12R 8738   5.714   4.056   9.541 -2.4903 -1.6162 -2.0839
   90SAPS  C213 8739   5.762   3.845   9.585  0.5577 -0.4716 -0.5638
   90SAPS  H13R 8740   5.793   3.787   9.674 -0.3746  0.3699  0.3318
   90SAPS  H13S 8741   5.863   3.856   9.539  1.7218 -1.6158  1.5901
   90SAPS  C214 8742   5.681   3.747   9.506 -0.7877  0.3648 -0.2358
   90SAPS  H14R 8743   5.576   3.768   9.481 -0.5852  0.3540 -1.1371
   90SAPS  C215 8744   5.729   3.629   9.461  0.1951 -0.2193 -0.0095
   90SAPS  H15R 8745   5.676   3.558   9.396  0.7101 -0.8594  0.2572
   90SAPS  C216 8746   5.873   3.585   9.467  0.4106  0.5688  0.2564
   90SAPS  H16R 8747   5.890   3.476   9.478  2.5262  0.7985 -0.3537
   90SAPS  H16S 8748   5.922   3.639   9.551 -1.6740  0.0245  1.9169
   90SAPS  C217 8749   5.965   3.613   9.343  0.5799 -0.5385  0.4060
   90SAPS  H17R 8750   6.072   3.591   9.360  0.3157 -1.8175  0.5620
   90SAPS  H17S 8751   5.972   3.723   9.329 -0.0629 -0.9043 -4.0242
   90SAPS  C218 8752   5.920   3.548   9.215 -0.2125  0.4229  0.7134
   90SAPS  H18R 8753   5.841   3.599   9.157 -0.4924  0.2846  0.9762
   90SAPS  H18S 8754   5.894   3.442   9.236  0.4371 -0.0042 -0.4902
   90SAPS  C219 8755   6.033   3.553   9.108 -0.7858 -0.5205  0.3283
   90SAPS  H19R 8756   5.999   3.503   9.014 -0.1754 -0.0005 -0.1754
   90SAPS  H19S 8757   6.112   3.491   9.155 -0.2173  0.7689  1.1070
   90SAPS  C220 8758   6.082   3.695   9.063 -0.4952  0.1372 -0.3535
   90SAPS  H20R 8759   5.996   3.740   9.008  0.0591  1.0654 -0.4766
   90SAPS  H20S 8760   6.167   3.685   8.992 -0.8512 -0.7260 -0.6743
   90SAPS  H20T 8761   6.113   3.754   9.152 -2.0991 -0.4638  0.6516
   90SAPS   C33 8762   5.977   3.659  10.033  0.0725  0.2205 -0.2489
   90SAPS   H3X 8763   6.076   3.656  10.083 -0.8076  0.6587  1.5916
   90SAPS   H3Y 8764   5.968   3.737   9.954 -1.8641 -0.1049 -0.3829
   90SAPS   C34 8765   5.956   3.527   9.959  0.2360 -0.1068 -0.3540
   90SAPS   H4X 8766   5.848   3.517   9.933  0.4355  0.2315 -1.3347
   90SAPS   H4Y 8767   5.993   3.440  10.018  0.0562  0.0794  0.0423
   90SAPS   C35 8768   6.042   3.526   9.834  0.2801 -0.1139  0.0522
   90SAPS   H5X 8769   6.140   3.565   9.869 -0.0792  0.8101  0.0421
   90SAPS   H5Y 8770   6.009   3.600   9.758  0.1056 -0.2517 -0.0076
   90SAPS   C36 8771   6.065   3.390   9.775  0.6309 -0.1303  0.2255
   90SAPS   H6X 8772   5.966   3.353   9.742 -0.2679  0.7011  1.8997
   90SAPS   H6Y 8773   6.114   3.326   9.851 -0.4419  1.0371  1.9740
   90SAPS   C37 8774   6.162   3.408   9.659 -0.1080  1.1156  0.0085
   90SAPS   H7X 8775   6.255   3.460   9.689  1.5035 -1.2292 -0.5949
   90SAPS   H7Y 8776   6.115   3.469   9.579 -2.0788  1.5358  1.4165
   90SAPS   C38 8777   6.205   3.272   9.600  0.3599 -0.8864 -0.2826
   90SAPS   H8X 8778   6.116   3.205   9.589 -0.4678 -0.1735  1.6921
   90SAPS   H8Y 8779   6.267   3.225   9.679  0.3386 -0.7927 -0.2094
   90SAPS   C39 8780   6.274   3.281   9.463  0.6860 -0.3607 -0.0289
   90SAPS   H9X 8781   6.376   3.325   9.477  0.3417 -0.1548  2.2805
   90SAPS   H9Y 8782   6.223   3.347   9.390 -2.7241 -1.8821  0.7717
   90SAPS  C310 8783   6.280   3.142   9.391  0.1388  0.6761  0.3000
   90SAPS  H10X 8784   6.178   3.139   9.349  0.0638  0.3489  0.5005
   90SAPS  H10Y 8785   6.295   3.059   9.464 -0.4178  0.7102  0.4588
   90SAPS  C311 8786   6.381   3.137   9.279  0.0872 -0.5422 -0.1743
   90SAPS  H11X 8787   6.476   3.118   9.332 -1.4777 -3.3924  1.8841
   90SAPS  H11Y 8788   6.397   3.234   9.226  1.0886  0.1895  1.4141
   90SAPS  C312 8789   6.353   3.016   9.188 -0.2892  0.0394  0.2205
   90SAPS  H12X 8790   6.325   2.931   9.253  2.2416 -2.4057 -1.6462
   90SAPS  H12Y 8791   6.452   2.994   9.143 -0.8550  0.5603 -1.3882
   90SAPS  C313 8792   6.243   3.028   9.077 -0.4663  0.1221 -0.2440
   90SAPS  H13X 8793   6.256   3.122   9.019  0.9912  0.7878  1.0737
   90SAPS  H13Y 8794   6.146   3.059   9.122 -0.2594 -0.3465  0.5332
   90SAPS  C314 8795   6.221   2.912   8.981  0.4755  0.2364 -0.6272
   90SAPS  H14X 8796   6.196   2.824   9.045 -0.6265 -0.2700 -1.7193
   90SAPS  H14Y 8797   6.309   2.880   8.921  0.4601  0.1024 -0.5797
   90SAPS  C315 8798   6.097   2.939   8.894 -0.1664  0.0630  0.4904
   90SAPS  H15X 8799   6.129   3.023   8.829  0.6583 -1.3403 -0.9939
   90SAPS  H15Y 8800   6.014   2.954   8.967  1.2708 -0.8070  2.3986
   90SAPS  C316 8801   6.063   2.813   8.811 -0.6103  0.1962 -0.5658
   90SAPS  H16X 8802   6.046   2.722   8.873 -1.1229 -1.7593 -3.3697
   90SAPS  H16Y 8803   6.144   2.799   8.736 -0.4919  1.0332 -0.6007
   90SAPS  C317 8804   5.929   2.832   8.733 -0.3501  0.5756 -0.4085
   90SAPS  H17X 8805   5.942   2.922   8.669  3.3269 -0.5619 -1.5224
   90SAPS  H17Y 8806   5.852   2.850   8.811  0.0224 -0.9551  0.3472
   90SAPS  C318 8807   5.884   2.718   8.638 -0.1441 -0.3463 -0.4350
   90SAPS  H18X 8808   5.849   2.628   8.693 -3.5437  1.2312  0.2071
   90SAPS  H18Y 8809   5.975   2.696   8.577 -0.4181 -2.5877 -0.1215
   90SAPS  H18Z 8810   5.801   2.757   8.576 -2.4622  0.3677  2.8280
   91SAPS     N 8811   3.362   0.619   5.911  0.0822 -0.4314  0.2407
   91SAPS   HN1 8812   3.431   0.559   5.960  0.6961  0.4261  0.4562
   91SAPS   HN2 8813   3.295   0.662   5.978  0.4441  1.1973 -0.3778
   91SAPS   HN3 8814   3.311   0.580   5.829 -1.0910 -2.3945  1.8174
   91SAPS   C12 8815   3.442   0.735   5.858 -0.1979  0.5016 -0.1274
   91SAPS  H12A 8816   3.505   0.700   5.777 -1.6398 -2.3367 -0.1472
   91SAPS   C13 8817   3.356   0.849   5.789 -0.0741 -0.5344  0.3408
   91SAPS  O13A 8818   3.237   0.827   5.770 -0.1267  0.4248 -0.2972
   91SAPS  O13B 8819   3.411   0.952   5.735  0.7062 -0.2478  0.0615
   91SAPS   C11 8820   3.516   0.802   5.975  1.0089 -0.5738  0.2718
   91SAPS  H11A 8821   3.438   0.827   6.049  2.6589 -0.0607  1.9128
   91SAPS  H11B 8822   3.560   0.899   5.945 -0.0708  0.0166  0.5595
   91SAPS     P 8823   3.751   0.771   6.087  0.2082  0.2579  0.3481
   91SAPS   O13 8824   3.787   0.684   6.204  0.3160  0.5444  0.3126
   91SAPS   O14 8825   3.845   0.778   5.971  0.1520 -0.5652 -0.1785
   91SAPS   O12 8826   3.614   0.721   6.030 -0.0879 -0.2318 -0.1745
   91SAPS   O11 8827   3.727   0.918   6.151 -0.3635 -0.1818  0.8708
   91SAPS    C1 8828   3.837   0.990   6.209  0.0220 -0.0900 -0.8533
   91SAPS    HA 8829   3.935   0.966   6.162 -0.4040 -0.7235 -1.4262
   91SAPS    HB 8830   3.819   1.098   6.193  0.4935  0.2384  0.6328
   91SAPS    C2 8831   3.843   0.989   6.367 -0.5955 -0.3484 -1.1373
   91SAPS    HS 8832   3.839   0.882   6.400  0.6492 -0.1015 -0.0753
   91SAPS   O21 8833   3.746   1.075   6.424 -0.5840  0.3800  0.5282
   91SAPS   C21 8834   3.690   1.025   6.539 -0.1292  0.0956  0.5321
   91SAPS   O22 8835   3.718   0.919   6.593  0.1610 -0.0587 -0.4279
   91SAPS   C22 8836   3.571   1.111   6.582 -0.0406  0.6061 -0.1827
   91SAPS   H2R 8837   3.594   1.217   6.559 -1.2809  0.4042 -2.6415
   91SAPS   H2S 8838   3.485   1.089   6.515  0.6060 -3.2460  0.0592
   91SAPS    C3 8839   3.981   1.047   6.416 -0.9189 -0.0132  0.0417
   91SAPS    HX 8840   3.982   1.158   6.412 -0.1983 -0.0643 -1.8715
   91SAPS    HY 8841   4.057   1.008   6.346  0.1166  1.5138  0.2531
   91SAPS   O31 8842   4.013   1.005   6.550  0.6251  0.8125 -0.1814
   91SAPS   C31 8843   4.090   0.895   6.569 -0.4755 -0.3860 -1.1152
   91SAPS   O32 8844   4.128   0.820   6.485 -0.5216 -0.4616  0.6263
   91SAPS   C32 8845   4.112   0.865   6.721  0.3677  0.1275 -0.7264
   91SAPS   H2X 8846   4.048   0.778   6.746 -0.4322  0.5853 -1.1199
   91SAPS   H2Y 8847   4.078   0.950   6.785  0.7077  0.5770 -1.1326
   91SAPS   C23 8848   3.543   1.099   6.729 -0.1945 -0.2112 -0.0789
   91SAPS   H3R 8849   3.637   1.089   6.789 -2.1438 -0.3169  3.2375
   91SAPS   H3S 8850   3.480   1.013   6.760 -2.3522  1.6244  0.9177
   91SAPS   C24 8851   3.478   1.232   6.787  0.6673  0.2819 -0.4359
   91SAPS   H4R 8852   3.518   1.331   6.758  0.1297  0.8533  0.7431
   91SAPS   H4S 8853   3.493   1.234   6.897 -1.6069  2.9985 -0.0659
   91SAPS   C25 8854   3.330   1.228   6.765  0.0457 -0.4757  0.2559
   91SAPS   H5R 8855   3.297   1.210   6.662  1.3241 -3.2209  0.2273
   91SAPS   C26 8856   3.233   1.241   6.865  0.3960 -0.0636  0.8216
   91SAPS   H6R 8857   3.126   1.231   6.840  0.8112 -4.7519 -0.0589
   91SAPS   C27 8858   3.252   1.260   7.016  0.3526  0.7276 -0.7617
   91SAPS   H7R 8859   3.152   1.291   7.052 -0.4191 -1.8922 -0.4879
   91SAPS   H7S 8860   3.321   1.347   7.026  0.4285  0.6787 -0.8586
   91SAPS   C28 8861   3.323   1.153   7.091 -1.4227  0.3790 -0.1493
   91SAPS   H8R 8862   3.406   1.105   7.039 -1.0978  0.2522  0.4748
   91SAPS   C29 8863   3.305   1.113   7.218  0.1060  0.1969 -0.6354
   91SAPS   H9R 8864   3.358   1.022   7.248  0.8500  0.9028  0.2765
   91SAPS  C210 8865   3.202   1.158   7.317  0.3173  0.0948 -0.4442
   91SAPS  H10R 8866   3.179   1.078   7.391  1.1424  0.7388  0.5431
   91SAPS  H10S 8867   3.102   1.177   7.272 -0.7673 -0.2563  1.6939
   91SAPS  C211 8868   3.233   1.283   7.398  0.1532 -0.0096 -0.4782
   91SAPS  H11R 8869   3.202   1.376   7.349 -2.2610 -0.9956 -0.9471
   91SAPS  C212 8870   3.275   1.289   7.528 -0.3901 -0.4600 -0.1178
   91SAPS  H12R 8871   3.285   1.392   7.566  0.2145 -0.7550  0.5277
   91SAPS  C213 8872   3.311   1.167   7.616  1.0011  1.0085  0.1485
   91SAPS  H13R 8873   3.414   1.181   7.655  1.1628  2.3630 -0.7080
   91SAPS  H13S 8874   3.297   1.073   7.559 -3.8564  1.3648  0.3104
   91SAPS  C214 8875   3.204   1.177   7.723 -0.1142  0.7346  0.9608
   91SAPS  H14R 8876   3.105   1.161   7.678 -0.0018 -1.7294  1.4484
   91SAPS  C215 8877   3.213   1.222   7.845 -0.2452 -0.3679  0.4539
   91SAPS  H15R 8878   3.120   1.250   7.897  0.7458  2.1210  1.0246
   91SAPS  C216 8879   3.338   1.262   7.917  0.0383 -0.2739  0.1918
   91SAPS  H16R 8880   3.323   1.364   7.957  3.4778  0.7551 -0.8528
   91SAPS  H16S 8881   3.422   1.268   7.845 -0.2896  0.2853 -0.1439
   91SAPS  C217 8882   3.380   1.163   8.024  0.4371  0.3548  0.0578
   91SAPS  H17R 8883   3.413   1.071   7.970 -1.0920  0.5310 -1.2507
   91SAPS  H17S 8884   3.299   1.144   8.099  1.9793  1.0564  1.9859
   91SAPS  C218 8885   3.493   1.210   8.117 -0.6835 -0.4466  0.1784
   91SAPS  H18R 8886   3.460   1.292   8.185  1.5400 -0.3168  1.2053
   91SAPS  H18S 8887   3.576   1.253   8.057  1.1396 -0.3152  2.6264
   91SAPS  C219 8888   3.549   1.094   8.205 -0.1090 -1.1911 -0.3824
   91SAPS  H19R 8889   3.651   1.124   8.235 -0.7651 -1.3210  2.1862
   91SAPS  H19S 8890   3.540   1.000   8.146 -1.2397 -0.7736 -0.9050
   91SAPS  C220 8891   3.463   1.078   8.332  0.4678  0.3643  1.0648
   91SAPS  H20R 8892   3.475   1.160   8.406 -0.2856  1.1314  0.3627
   91SAPS  H20S 8893   3.489   0.986   8.388  2.0205  0.1888  0.1323
   91SAPS  H20T 8894   3.357   1.076   8.300  0.8440 -0.0712 -0.1968
   91SAPS   C33 8895   4.260   0.814   6.743  0.4841  0.3429 -0.3906
   91SAPS   H3X 8896   4.318   0.881   6.676 -0.0892  0.2855 -0.9510
   91SAPS   H3Y 8897   4.270   0.707   6.715  0.0906  0.5182 -1.2350
   91SAPS   C34 8898   4.311   0.836   6.884  0.3492 -0.2267  0.4210
   91SAPS   H4X 8899   4.326   0.942   6.913  1.4573 -0.2309 -0.0437
   91SAPS   H4Y 8900   4.414   0.793   6.893  0.0616 -0.9014  0.5513
   91SAPS   C35 8901   4.231   0.770   6.992 -0.5593 -0.2413  0.3085
   91SAPS   H5X 8902   4.241   0.662   6.966  0.6723  0.0719 -0.6404
   91SAPS   H5Y 8903   4.128   0.809   6.998  0.4763  2.7875 -0.0164
   91SAPS   C36 8904   4.291   0.807   7.130  0.3060  0.4291  0.3404
   91SAPS   H6X 8905   4.271   0.913   7.159 -1.3900  0.4598 -0.7626
   91SAPS   H6Y 8906   4.400   0.801   7.113 -0.0354 -2.3566 -1.5064
   91SAPS   C37 8907   4.240   0.731   7.252 -0.1219  0.5702 -0.0611
   91SAPS   H7X 8908   4.263   0.624   7.234 -1.4383  0.4632 -1.3158
   91SAPS   H7Y 8909   4.129   0.740   7.258 -0.0789 -0.0348  2.5379
   91SAPS   C38 8910   4.303   0.801   7.370  0.1479 -0.2755 -0.0625
   91SAPS   H8X 8911   4.252   0.898   7.389 -0.1789 -0.3358 -0.6092
   91SAPS   H8Y 8912   4.411   0.815   7.344  0.5211 -0.0003  1.5487
   91SAPS   C39 8913   4.309   0.725   7.498 -0.6393  0.2939  0.2794
   91SAPS   H9X 8914   4.410   0.680   7.513 -0.2893  0.7279 -0.7244
   91SAPS   H9Y 8915   4.224   0.654   7.496  0.0112 -0.5032 -2.4738
   91SAPS  C310 8916   4.285   0.805   7.617  0.1283 -0.1559 -1.1470
   91SAPS  H10X 8917   4.177   0.832   7.621  0.8991  3.3307  0.7816
   91SAPS  H10Y 8918   4.333   0.905   7.612 -2.5301  1.7318  4.0296
   91SAPS  C311 8919   4.316   0.736   7.757 -0.4268 -0.3532  0.2976
   91SAPS  H11X 8920   4.393   0.657   7.750 -0.1807 -0.0789 -0.0857
   91SAPS  H11Y 8921   4.224   0.679   7.784  0.4061 -1.7380  0.2801
   91SAPS  C312 8922   4.362   0.835   7.862  0.3562 -0.3277 -0.3009
   91SAPS  H12X 8923   4.289   0.918   7.865 -0.3898 -0.9654 -0.4153
   91SAPS  H12Y 8924   4.459   0.879   7.832 -0.0957 -0.7721 -2.5958
   91SAPS  C313 8925   4.383   0.775   8.006 -0.3199 -0.2900 -0.5295
   91SAPS  H13X 8926   4.474   0.712   8.002 -1.7165 -2.4235 -0.3195
   91SAPS  H13Y 8927   4.295   0.722   8.049  0.5220 -0.3955  1.1353
   91SAPS  C314 8928   4.396   0.889   8.108  0.4598 -0.5006 -0.2292
   91SAPS  H14X 8929   4.293   0.929   8.123  0.8859  1.5846 -2.3498
   91SAPS  H14Y 8930   4.476   0.960   8.079  1.0738 -0.0247  2.4330
   91SAPS  C315 8931   4.453   0.842   8.246  0.2709 -0.0347  0.1247
   91SAPS  H15X 8932   4.435   0.928   8.314 -1.7797  0.0752 -0.4922
   91SAPS  H15Y 8933   4.562   0.823   8.241  0.1012 -0.9221 -0.3159
   91SAPS  C316 8934   4.383   0.718   8.300  0.0751  0.0065  0.3876
   91SAPS  H16X 8935   4.410   0.631   8.236 -2.1090 -1.4648  1.3224
   91SAPS  H16Y 8936   4.274   0.737   8.290  0.1054 -0.5844 -1.5413
   91SAPS  C317 8937   4.404   0.690   8.453 -0.2163 -0.2785  0.8247
   91SAPS  H17X 8938   4.386   0.778   8.518  0.5221  0.4420  0.0756
   91SAPS  H17Y 8939   4.512   0.664   8.458 -0.2551 -0.6236 -0.0173
   91SAPS  C318 8940   4.328   0.570   8.507  0.2053  0.1761 -0.1634
   91SAPS  H18X 8941   4.220   0.592   8.501 -0.1796 -1.6371 -0.5208
   91SAPS  H18Y 8942   4.343   0.546   8.614  0.9132 -2.4572 -0.7777
   91SAPS  H18Z 8943   4.347   0.476   8.450  2.2743 -0.7435  1.8974
   92SAPS     N 8944   4.090   4.872   6.511  0.1435  0.2230  0.7934
   92SAPS   HN1 8945   4.188   4.908   6.516  0.3902 -0.3345  0.1145
   92SAPS   HN2 8946   4.027   4.923   6.577 -0.0661  0.8434  0.1214
   92SAPS   HN3 8947   4.085   4.771   6.532 -0.5786 -0.1204 -0.9225
   92SAPS   C12 8948   4.051   4.894   6.366 -0.6563  0.9379 -0.4527
   92SAPS  H12A 8949   3.954   4.846   6.362 -0.4967  0.2662  2.0191
   92SAPS   C13 8950   4.013   5.037   6.327 -0.1890 -0.1641  0.4168
   92SAPS  O13A 8951   4.016   5.130   6.413  0.1313  0.5039 -0.6643
   92SAPS  O13B 8952   3.976   5.059   6.204  0.5148 -0.2678 -0.4606
   92SAPS   C11 8953   4.150   4.813   6.271 -0.2217 -0.2840 -0.3351
   92SAPS  H11A 8954   4.247   4.864   6.253  2.1046 -3.8350  0.9087
   92SAPS  H11B 8955   4.111   4.819   6.167 -0.4057 -2.2003 -0.4283
   92SAPS     P 8956   4.285   4.596   6.354 -0.0877 -0.0510  0.0444
   92SAPS   O13 8957   4.330   4.504   6.246 -0.8780 -0.6767 -0.0670
   92SAPS   O14 8958   4.382   4.702   6.399 -0.5631  0.3184 -0.7719
   92SAPS   O12 8959   4.157   4.667   6.308  0.2251 -0.5788  0.1884
   92SAPS   O11 8960   4.237   4.514   6.483 -0.0095  0.0198  0.1227
   92SAPS    C1 8961   4.134   4.424   6.467  0.2332 -0.1118 -0.5091
   92SAPS    HA 8962   4.081   4.427   6.370  1.2831 -1.5504 -1.1739
   92SAPS    HB 8963   4.178   4.322   6.472  0.0212 -0.1564  1.0370
   92SAPS    C2 8964   4.019   4.439   6.578  0.3719 -0.5826  0.2603
   92SAPS    HS 8965   3.971   4.535   6.552 -1.7936 -1.0498  2.2126
   92SAPS   O21 8966   4.082   4.444   6.708  0.4948  0.0830  0.2805
   92SAPS   C21 8967   4.094   4.568   6.753  0.5545  0.4627 -0.8000
   92SAPS   O22 8968   4.065   4.669   6.696 -0.7057  0.0092 -0.2249
   92SAPS   C22 8969   4.149   4.564   6.896  0.0725  0.5789 -0.4560
   92SAPS   H2R 8970   4.256   4.536   6.900 -0.5218 -1.8999 -0.0382
   92SAPS   H2S 8971   4.149   4.670   6.929  0.0025  0.3434  0.3245
   92SAPS    C3 8972   3.914   4.318   6.566 -0.1673 -0.0149 -0.1457
   92SAPS    HX 8973   3.961   4.225   6.606  1.6924 -0.0399 -2.1907
   92SAPS    HY 8974   3.904   4.297   6.457  1.9197 -0.9006 -0.2141
   92SAPS   O31 8975   3.798   4.348   6.642 -0.2508  0.0299 -0.2771
   92SAPS   C31 8976   3.709   4.428   6.586 -0.8890 -0.2146  0.7143
   92SAPS   O32 8977   3.722   4.488   6.482  0.3630  0.4593  0.2871
   92SAPS   C32 8978   3.581   4.445   6.672 -0.0675 -0.0265 -0.4192
   92SAPS   H2X 8979   3.506   4.374   6.630 -2.0303  0.4257  2.0709
   92SAPS   H2Y 8980   3.534   4.543   6.652 -1.0029 -0.6303 -1.2996
   92SAPS   C23 8981   4.075   4.476   7.000 -0.5359 -0.1628  0.1414
   92SAPS   H3R 8982   4.101   4.371   6.976 -0.9897 -0.2627  0.0633
   92SAPS   H3S 8983   3.966   4.487   6.977 -0.2559  0.0804 -1.1841
   92SAPS   C24 8984   4.113   4.517   7.141 -0.2063 -0.3444 -0.4249
   92SAPS   H4R 8985   4.036   4.459   7.196 -1.3109  2.8277  1.6595
   92SAPS   H4S 8986   4.095   4.626   7.152  0.1860 -0.0922 -2.0172
   92SAPS   C25 8987   4.247   4.480   7.193 -0.4538  0.2051 -0.2911
   92SAPS   H5R 8988   4.305   4.429   7.114 -1.5902  1.3490 -1.9434
   92SAPS   C26 8989   4.300   4.508   7.313  0.2163 -0.2085  0.9440
   92SAPS   H6R 8990   4.399   4.474   7.349  0.8954  0.8304  0.1205
   92SAPS   C27 8991   4.233   4.599   7.414 -0.3931  0.3671  0.0642
   92SAPS   H7R 8992   4.197   4.532   7.495  0.1009  0.5750  0.4622
   92SAPS   H7S 8993   4.149   4.650   7.362 -1.6404 -0.3047  1.3415
   92SAPS   C28 8994   4.326   4.707   7.471  0.7840 -0.4822  0.0932
   92SAPS   H8R 8995   4.396   4.748   7.396  1.5866 -1.6254  0.1833
   92SAPS   C29 8996   4.344   4.745   7.599 -0.8110 -0.3231  0.2222
   92SAPS   H9R 8997   4.428   4.810   7.627 -1.0503 -0.2201  0.6996
   92SAPS  C210 8998   4.265   4.699   7.719 -0.5327  1.0185 -0.0190
   92SAPS  H10R 8999   4.326   4.702   7.811 -1.1295 -0.7493  0.4835
   92SAPS  H10S 9000   4.233   4.593   7.710  0.3457  0.5750  1.8066
   92SAPS  C211 9001   4.146   4.777   7.750  0.2375  0.1191  0.6861
   92SAPS  H11R 9002   4.104   4.816   7.656 -1.5070 -3.4855 -0.2055
   92SAPS  C212 9003   4.076   4.779   7.867 -0.3696  0.0992  0.7059
   92SAPS  H12R 9004   3.995   4.852   7.880 -0.2159  0.8223 -1.7840
   92SAPS  C213 9005   4.112   4.704   7.994  0.7059  0.9519 -0.6286
   92SAPS  H13R 9006   4.098   4.777   8.076 -0.4572  1.0536 -0.9028
   92SAPS  H13S 9007   4.220   4.678   7.993  0.6161  0.5868 -1.1853
   92SAPS  C214 9008   4.024   4.580   8.006  0.1835 -0.0317  0.0829
   92SAPS  H14R 9009   4.017   4.523   7.912 -0.0436 -0.7548  0.5306
   92SAPS  C215 9010   3.961   4.539   8.123 -0.1166  0.2439 -0.6547
   92SAPS  H15R 9011   3.903   4.447   8.136  0.8251 -0.4148 -1.0495
   92SAPS  C216 9012   3.981   4.622   8.247  0.1636  0.4995 -0.8730
   92SAPS  H16R 9013   3.897   4.694   8.257  0.5624  0.6747  4.6620
   92SAPS  H16S 9014   4.070   4.686   8.264 -0.6894  1.5564 -0.2470
   92SAPS  C217 9015   3.972   4.533   8.378  0.3718 -0.1336  0.5700
   92SAPS  H17R 9016   4.074   4.504   8.409  0.6323  0.7521  0.5823
   92SAPS  H17S 9017   3.915   4.442   8.351  2.0898 -1.2512  0.5657
   92SAPS  C218 9018   3.902   4.599   8.501  0.0629  0.3824  0.5974
   92SAPS  H18R 9019   3.808   4.637   8.456 -1.0999 -0.0886  2.5097
   92SAPS  H18S 9020   3.963   4.680   8.546 -1.4391  1.7729  0.1964
   92SAPS  C219 9021   3.866   4.497   8.607 -0.7442  0.2976  0.5506
   92SAPS  H19R 9022   3.815   4.409   8.564 -0.0023 -1.2934  2.7430
   92SAPS  H19S 9023   3.789   4.541   8.674 -1.1019 -0.0053  0.3434
   92SAPS  C220 9024   3.986   4.455   8.689 -0.3610 -0.4405 -0.8514
   92SAPS  H20R 9025   3.964   4.369   8.755  1.5436 -1.5409 -1.5384
   92SAPS  H20S 9026   4.036   4.535   8.748  0.4178 -0.1980 -1.7977
   92SAPS  H20T 9027   4.067   4.429   8.616 -1.3511 -0.3176 -2.0255
   92SAPS   C33 9028   3.591   4.434   6.827  0.2424 -0.4865 -0.2978
   92SAPS   H3X 9029   3.646   4.349   6.873  2.1300  1.8431  2.0658
   92SAPS   H3Y 9030   3.487   4.424   6.867 -0.3776  0.7747 -1.4976
   92SAPS   C34 9031   3.649   4.562   6.883 -0.0412  0.5739  0.2424
   92SAPS   H4X 9032   3.592   4.654   6.859  1.7626  2.6346  3.1259
   92SAPS   H4Y 9033   3.749   4.584   6.839 -0.4745 -1.5965 -2.1276
   92SAPS   C35 9034   3.672   4.549   7.036  0.3175  0.5407 -0.9207
   92SAPS   H5X 9035   3.737   4.459   7.046  0.9259  1.0738  0.1550
   92SAPS   H5Y 9036   3.571   4.541   7.080  0.2263  2.2064 -0.7700
   92SAPS   C36 9037   3.749   4.664   7.097  0.2831 -0.0242 -0.3922
   92SAPS   H6X 9038   3.698   4.755   7.059  1.2031  0.4081 -0.6168
   92SAPS   H6Y 9039   3.858   4.673   7.076  0.8332 -2.9159  0.7439
   92SAPS   C37 9040   3.726   4.682   7.254  0.5101  0.2430 -0.0980
   92SAPS   H7X 9041   3.633   4.626   7.279  0.2250  0.6482 -0.2447
   92SAPS   H7Y 9042   3.715   4.788   7.287  0.3489 -0.2972  1.7362
   92SAPS   C38 9043   3.840   4.629   7.332  0.0615  0.0347 -0.3537
   92SAPS   H8X 9044   3.925   4.687   7.291 -0.6836  0.9155 -0.6961
   92SAPS   H8Y 9045   3.844   4.518   7.322  0.4234  0.1301 -1.3692
   92SAPS   C39 9046   3.840   4.658   7.485  0.0993 -0.0864 -0.6345
   92SAPS   H9X 9047   3.864   4.764   7.507 -3.0710  1.1109 -2.3391
   92SAPS   H9Y 9048   3.921   4.593   7.524 -1.6971 -1.4948  0.9467
   92SAPS  C310 9049   3.718   4.607   7.566  0.3745  0.4858 -0.3963
   92SAPS  H10X 9050   3.706   4.502   7.533  2.0188 -0.0911  0.7005
   92SAPS  H10Y 9051   3.624   4.659   7.535 -0.1627 -0.8149 -1.0129
   92SAPS  C311 9052   3.745   4.620   7.713  0.3910  0.2177  0.3085
   92SAPS  H11X 9053   3.767   4.726   7.736 -0.7230  0.2676  1.2621
   92SAPS  H11Y 9054   3.837   4.561   7.734 -0.2212  0.1726  3.3919
   92SAPS  C312 9055   3.629   4.569   7.804  0.2841  0.2243  0.1432
   92SAPS  H12X 9056   3.616   4.460   7.786  2.1740 -0.3498  1.9317
   92SAPS  H12Y 9057   3.536   4.627   7.784  0.3753 -0.1295 -1.4935
   92SAPS  C313 9058   3.648   4.569   7.962 -0.0456 -0.2112  0.2380
   92SAPS  H13X 9059   3.685   4.673   7.978 -2.8581  1.1469 -1.2817
   92SAPS  H13Y 9060   3.738   4.504   7.965  0.5281  0.5749  0.5142
   92SAPS  C314 9061   3.528   4.529   8.034  0.5862  0.3988  0.0696
   92SAPS  H14X 9062   3.504   4.425   8.002 -2.6170  1.1212 -0.2554
   92SAPS  H14Y 9063   3.441   4.581   7.988  0.1652 -0.3909 -0.0432
   92SAPS  C315 9064   3.528   4.550   8.188  0.3165  0.9326 -0.2000
   92SAPS  H15X 9065   3.528   4.660   8.203  1.4947  0.8689  0.4082
   92SAPS  H15Y 9066   3.624   4.508   8.225 -0.4840 -0.5096  0.3069
   92SAPS  C316 9067   3.412   4.491   8.257  0.2000  0.3376 -0.1738
   92SAPS  H16X 9068   3.398   4.385   8.228 -0.4524  0.9051 -2.0799
   92SAPS  H16Y 9069   3.323   4.548   8.223 -0.1602  0.0951  0.3577
   92SAPS  C317 9070   3.406   4.486   8.415 -0.4164 -0.1103 -0.9597
   92SAPS  H17X 9071   3.464   4.402   8.457 -1.3370 -0.7181 -0.8631
   92SAPS  H17Y 9072   3.299   4.461   8.435 -0.8383  1.5269 -0.9838
   92SAPS  C318 9073   3.433   4.615   8.492  0.9222  0.4623  0.2369
   92SAPS  H18X 9074   3.343   4.679   8.487  0.4643 -0.1768  0.2439
   92SAPS  H18Y 9075   3.521   4.670   8.452  1.7228 -0.1020  1.1746
   92SAPS  H18Z 9076   3.433   4.586   8.600  0.9256 -1.4827 -0.2524
   93SAPS     N 9077   4.080   5.336   6.234  0.4155  0.0923 -0.3115
   93SAPS   HN1 9078   4.096   5.355   6.335  0.3640 -0.2629 -0.2346
   93SAPS   HN2 9079   4.006   5.400   6.199 -1.3841 -1.6022  0.2113
   93SAPS   HN3 9080   4.063   5.234   6.223 -0.4880  0.4833 -3.6211
   93SAPS   C12 9081   4.211   5.373   6.181  1.2152 -0.1640  0.1011
   93SAPS  H12A 9082   4.201   5.375   6.073  1.3826  3.0068  0.0425
   93SAPS   C13 9083   4.267   5.516   6.217 -1.3409  0.1995  0.5784
   93SAPS  O13A 9084   4.199   5.596   6.287 -0.3777 -0.0812 -0.1050
   93SAPS  O13B 9085   4.380   5.551   6.170 -0.3362  0.0627 -0.0413
   93SAPS   C11 9086   4.308   5.263   6.224 -0.5750 -0.6488 -0.0087
   93SAPS  H11A 9087   4.412   5.295   6.203 -0.3585 -0.9221  0.6096
   93SAPS  H11B 9088   4.292   5.170   6.165 -0.9591 -1.3850  1.2016
   93SAPS     P 9089   4.378   5.142   6.459 -0.1217  0.0481  0.1692
   93SAPS   O13 9090   4.293   5.039   6.523 -0.1809 -0.1082  0.0776
   93SAPS   O14 9091   4.487   5.095   6.371 -0.4486 -0.7611 -0.0008
   93SAPS   O12 9092   4.289   5.239   6.360  0.0452 -0.0046 -0.0400
   93SAPS   O11 9093   4.441   5.241   6.565  0.2252  0.0633 -0.5027
   93SAPS    C1 9094   4.486   5.375   6.539 -0.2431 -0.3723 -0.0581
   93SAPS    HA 9095   4.515   5.392   6.433 -0.7753 -1.1593 -0.3372
   93SAPS    HB 9096   4.407   5.447   6.570  1.2210  1.9661 -1.4655
   93SAPS    C2 9097   4.616   5.413   6.619  0.1362 -0.2296  0.0512
   93SAPS    HS 9098   4.701   5.353   6.581  0.0424  0.7433 -1.7661
   93SAPS   O21 9099   4.584   5.392   6.760  0.0424  0.1051  0.1865
   93SAPS   C21 9100   4.691   5.396   6.838 -0.0841  0.8904 -0.3335
   93SAPS   O22 9101   4.805   5.392   6.805 -0.0167  0.1082  0.0029
   93SAPS   C22 9102   4.642   5.393   6.982 -0.1595  0.0975  0.7618
   93SAPS   H2R 9103   4.577   5.483   6.994  2.1738  2.3586 -1.9546
   93SAPS   H2S 9104   4.578   5.304   6.997  1.4202 -1.4422 -1.1494
   93SAPS    C3 9105   4.649   5.559   6.584 -0.0454  0.0637  0.0050
   93SAPS    HX 9106   4.675   5.557   6.476  0.5277 -2.2608  0.1286
   93SAPS    HY 9107   4.737   5.586   6.647 -1.1543 -0.8734  2.0841
   93SAPS   O31 9108   4.541   5.646   6.607 -0.3453 -0.4740 -0.1133
   93SAPS   C31 9109   4.539   5.699   6.729 -0.0697  0.1998  0.3370
   93SAPS   O32 9110   4.625   5.694   6.816  0.0933  0.3065 -0.4816
   93SAPS   C32 9111   4.414   5.784   6.739 -0.1791  0.0269  0.4325
   93SAPS   H2X 9112   4.418   5.850   6.650 -0.1750 -0.5745 -0.0166
   93SAPS   H2Y 9113   4.428   5.840   6.835  3.3945 -0.9886  0.6530
   93SAPS   C23 9114   4.762   5.400   7.084 -0.0838 -0.1634 -0.3235
   93SAPS   H3R 9115   4.853   5.342   7.056 -0.8301 -1.1986 -0.7024
   93SAPS   H3S 9116   4.722   5.352   7.176  0.9044 -0.5071 -0.0660
   93SAPS   C24 9117   4.781   5.546   7.116  0.0694  0.2055  0.5119
   93SAPS   H4R 9118   4.688   5.579   7.167  0.3595  0.6074  0.7800
   93SAPS   H4S 9119   4.783   5.609   7.025 -2.1651 -0.0436  0.2314
   93SAPS   C25 9120   4.911   5.577   7.195  1.3478 -0.0986 -0.3322
   93SAPS   H5R 9121   4.999   5.613   7.139  0.6765  3.2921  0.5589
   93SAPS   C26 9122   4.929   5.588   7.328  0.2032  0.0358 -1.0526
   93SAPS   H6R 9123   5.029   5.618   7.361  1.9238 -5.1295 -0.7297
   93SAPS   C27 9124   4.816   5.577   7.439  0.3638  0.2568  0.0816
   93SAPS   H7R 9125   4.717   5.609   7.401  0.3236 -2.6359 -2.5816
   93SAPS   H7S 9126   4.833   5.654   7.519  2.0860  0.1780 -0.1668
   93SAPS   C28 9127   4.812   5.436   7.495 -0.9079 -0.1718 -0.4501
   93SAPS   H8R 9128   4.817   5.356   7.420 -1.8580  0.7449 -1.5318
   93SAPS   C29 9129   4.824   5.389   7.623  0.1517  0.0511  0.5393
   93SAPS   H9R 9130   4.814   5.282   7.643  1.4336  0.3355  3.1381
   93SAPS  C210 9131   4.820   5.487   7.742 -0.2579  1.1039  0.4110
   93SAPS  H10R 9132   4.758   5.577   7.727 -1.6468  0.7716  3.3923
   93SAPS  H10S 9133   4.924   5.525   7.747  0.3464 -0.4195  0.1322
   93SAPS  C211 9134   4.796   5.406   7.873 -0.1997  0.2801  0.5764
   93SAPS  H11R 9135   4.742   5.311   7.878  0.9318 -0.3437  1.4641
   93SAPS  C212 9136   4.844   5.446   7.996  0.4979 -0.3261 -1.1947
   93SAPS  H12R 9137   4.813   5.388   8.085 -0.0380 -2.4908 -2.6857
   93SAPS  C213 9138   4.908   5.577   8.039  0.0089  0.1712 -0.6009
   93SAPS  H13R 9139   4.975   5.620   7.961  0.8883 -1.2150 -0.6509
   93SAPS  H13S 9140   4.974   5.573   8.128 -1.1769 -0.0934  0.2911
   93SAPS  C214 9141   4.808   5.687   8.064  0.3984  0.0907 -0.0919
   93SAPS  H14R 9142   4.711   5.678   8.013 -0.0724  1.7112  0.4766
   93SAPS  C215 9143   4.822   5.802   8.139 -0.2245  0.0481  0.3030
   93SAPS  H15R 9144   4.736   5.867   8.162 -1.2018 -1.1558  0.1419
   93SAPS  C216 9145   4.950   5.832   8.208 -0.3877 -0.3982 -0.0651
   93SAPS  H16R 9146   4.974   5.938   8.184 -0.9870 -0.2753 -0.1402
   93SAPS  H16S 9147   5.034   5.769   8.172  0.1692  1.0886 -1.4724
   93SAPS  C217 9148   4.946   5.825   8.365  0.0157  0.7430  0.9920
   93SAPS  H17R 9149   4.920   5.723   8.400 -0.9563  0.8309  0.5691
   93SAPS  H17S 9150   4.862   5.892   8.396  1.1572  1.9311  1.6199
   93SAPS  C218 9151   5.083   5.873   8.418 -0.1791 -0.0724  0.5667
   93SAPS  H18R 9152   5.105   5.975   8.379  0.2400  0.4848  2.1833
   93SAPS  H18S 9153   5.157   5.797   8.387 -1.0804 -0.3074 -1.1267
   93SAPS  C219 9154   5.074   5.873   8.571  0.4958 -0.0269 -0.4918
   93SAPS  H19R 9155   5.174   5.891   8.617 -0.5849 -3.4396  3.8375
   93SAPS  H19S 9156   5.042   5.771   8.599 -1.5401  0.8478  0.5957
   93SAPS  C220 9157   4.970   5.958   8.647 -0.6300  0.3826  0.3569
   93SAPS  H20R 9158   4.973   5.933   8.755 -1.0632 -2.9639 -0.2991
   93SAPS  H20S 9159   4.868   5.943   8.607 -0.5506  1.1774 -0.1761
   93SAPS  H20T 9160   4.996   6.066   8.644  0.1360  0.2392  1.2260
   93SAPS   C33 9161   4.282   5.708   6.736  0.1758 -0.2921 -0.6782
   93SAPS   H3X 9162   4.287   5.645   6.644  3.3544 -0.1805 -0.7045
   93SAPS   H3Y 9163   4.204   5.787   6.742  0.6331  0.1147  4.5746
   93SAPS   C34 9164   4.279   5.617   6.856 -0.2354 -0.1275  0.2723
   93SAPS   H4X 9165   4.357   5.539   6.853 -0.5017 -0.3805 -0.2630
   93SAPS   H4Y 9166   4.182   5.565   6.842 -0.9668  1.0358  0.8854
   93SAPS   C35 9167   4.280   5.681   6.995  0.0854  0.7346  0.6423
   93SAPS   H5X 9168   4.184   5.736   7.005  1.4027  3.0393  1.3405
   93SAPS   H5Y 9169   4.375   5.739   6.996  0.0428  1.0543 -2.7945
   93SAPS   C36 9170   4.276   5.597   7.121 -0.5514  0.1788  0.4562
   93SAPS   H6X 9171   4.371   5.541   7.134 -0.4007  0.2877 -0.1426
   93SAPS   H6Y 9172   4.187   5.529   7.119 -1.5866  1.4222  1.9919
   93SAPS   C37 9173   4.261   5.691   7.244 -0.1657  0.3828 -0.5561
   93SAPS   H7X 9174   4.158   5.732   7.251  0.2589  1.5778 -0.9727
   93SAPS   H7Y 9175   4.341   5.768   7.236 -0.6652  0.7192 -3.2313
   93SAPS   C38 9176   4.282   5.605   7.370 -0.0705 -0.1286  0.8018
   93SAPS   H8X 9177   4.390   5.576   7.368 -0.3552 -1.3998  2.0938
   93SAPS   H8Y 9178   4.237   5.504   7.359  0.4303 -0.2068 -0.8512
   93SAPS   C39 9179   4.243   5.680   7.497 -0.4406 -0.1645 -0.2870
   93SAPS   H9X 9180   4.135   5.670   7.520 -0.5909 -0.6974 -1.1985
   93SAPS   H9Y 9181   4.256   5.787   7.471  1.7038 -0.8002 -2.1445
   93SAPS  C310 9182   4.330   5.652   7.619 -0.3737 -0.0451  0.4161
   93SAPS  H10X 9183   4.431   5.691   7.596 -0.8103 -0.1085 -1.7500
   93SAPS  H10Y 9184   4.314   5.542   7.629  2.4272 -0.5727 -0.0992
   93SAPS  C311 9185   4.279   5.730   7.750  0.1487 -0.1507  0.8432
   93SAPS  H11X 9186   4.172   5.703   7.746  0.0613  0.1846 -3.0247
   93SAPS  H11Y 9187   4.290   5.839   7.731  4.8783 -0.6075 -0.4556
   93SAPS  C312 9188   4.350   5.687   7.869 -0.2771 -0.2900 -0.5073
   93SAPS  H12X 9189   4.316   5.752   7.952 -5.8830 -0.9161 -1.9140
   93SAPS  H12Y 9190   4.459   5.696   7.847 -0.4605 -1.1253 -1.9014
   93SAPS  C313 9191   4.316   5.541   7.912  0.0990 -0.2379 -0.7955
   93SAPS  H13X 9192   4.398   5.477   7.872  0.3610  0.3133 -1.1620
   93SAPS  H13Y 9193   4.226   5.508   7.856 -2.9608  0.2035  3.3972
   93SAPS  C314 9194   4.292   5.511   8.068  0.4236 -0.2454  0.3721
   93SAPS  H14X 9195   4.254   5.407   8.073  0.8729 -0.6365 -2.6771
   93SAPS  H14Y 9196   4.209   5.576   8.103 -0.7580 -0.6722 -1.4965
   93SAPS  C315 9197   4.435   5.524   8.144 -0.4142 -0.6441  0.0198
   93SAPS  H15X 9198   4.480   5.620   8.112 -0.2113 -1.2276 -1.5453
   93SAPS  H15Y 9199   4.490   5.439   8.099  0.1853 -2.2790  3.5230
   93SAPS  C316 9200   4.424   5.520   8.297  0.0132 -0.7705  0.7543
   93SAPS  H16X 9201   4.395   5.416   8.321 -1.1028 -0.3290  1.3663
   93SAPS  H16Y 9202   4.344   5.589   8.332 -1.0621 -0.9731 -1.1769
   93SAPS  C317 9203   4.557   5.570   8.346  0.1712  0.1583 -0.2116
   93SAPS  H17X 9204   4.549   5.679   8.328 -2.1211 -0.0159 -0.5082
   93SAPS  H17Y 9205   4.640   5.525   8.287  0.4220 -2.2928  1.8299
   93SAPS  C318 9206   4.581   5.551   8.492  0.2305 -0.6859 -0.4489
   93SAPS  H18X 9207   4.559   5.446   8.522 -1.5878  0.2433  1.8128
   93SAPS  H18Y 9208   4.517   5.608   8.562  1.6247  0.3478  0.0232
   93SAPS  H18Z 9209   4.689   5.558   8.516 -0.2444 -2.4153  2.7674
   94SAPS     N 9210   3.727   1.884   5.425 -1.2154  0.5369 -0.4440
   94SAPS   HN1 9211   3.719   1.939   5.337 -1.8795  2.3855  0.7153
   94SAPS   HN2 9212   3.801   1.813   5.407 -0.4395  1.5360 -1.3630
   94SAPS   HN3 9213   3.644   1.828   5.454 -0.8534 -0.0617 -0.5425
   94SAPS   C12 9214   3.769   1.982   5.533  0.3425 -1.0127 -0.0812
   94SAPS  H12A 9215   3.876   1.993   5.525  0.3000  0.3425  0.8319
   94SAPS   C13 9216   3.699   2.125   5.523  0.5696 -0.0470  0.6099
   94SAPS  O13A 9217   3.626   2.157   5.424 -0.5349 -0.8886  0.0594
   94SAPS  O13B 9218   3.728   2.210   5.605  0.0589  0.4776  0.2631
   94SAPS   C11 9219   3.735   1.924   5.676 -0.6478 -0.1144  0.3638
   94SAPS  H11A 9220   3.626   1.906   5.663 -0.8979  1.6938 -0.3641
   94SAPS  H11B 9221   3.734   1.998   5.759 -2.4590  0.8890 -0.4807
   94SAPS     P 9222   3.930   1.813   5.804 -0.3087 -0.0617 -0.0940
   94SAPS   O13 9223   3.964   1.679   5.845 -0.4108  0.4969 -0.2588
   94SAPS   O14 9224   4.040   1.884   5.736  0.2729 -0.1823  0.4221
   94SAPS   O12 9225   3.805   1.803   5.709  0.4509  0.4404 -0.3653
   94SAPS   O11 9226   3.878   1.897   5.933  0.5804  0.5839  1.1231
   94SAPS    C1 9227   3.749   1.854   5.993 -0.3869  0.1820 -0.0897
   94SAPS    HA 9228   3.683   1.943   6.006 -0.1157  0.2976  0.5342
   94SAPS    HB 9229   3.683   1.788   5.932  0.8126 -2.1497  1.0227
   94SAPS    C2 9230   3.751   1.792   6.134  0.1779 -0.2495  0.1782
   94SAPS    HS 9231   3.645   1.759   6.146  0.0855  0.1024  0.3792
   94SAPS   O21 9232   3.789   1.892   6.233  0.4255 -0.1335  0.0358
   94SAPS   C21 9233   3.747   1.866   6.357  0.5417  0.5915 -0.1318
   94SAPS   O22 9234   3.653   1.795   6.384 -0.2011  0.3595 -0.4250
   94SAPS   C22 9235   3.837   1.937   6.457  0.0045  0.6036 -0.1313
   94SAPS   H2R 9236   3.927   1.949   6.392  0.2877 -1.1444 -0.1186
   94SAPS   H2S 9237   3.782   2.030   6.485  0.3313  0.6230  0.4560
   94SAPS    C3 9238   3.837   1.667   6.140 -0.8896  0.6584 -0.2720
   94SAPS    HX 9239   3.939   1.683   6.098 -0.7888  3.2022  0.7942
   94SAPS    HY 9240   3.787   1.605   6.062  0.1069 -2.0449  1.1042
   94SAPS   O31 9241   3.843   1.603   6.267 -0.4705 -0.4915  0.0091
   94SAPS   C31 9242   3.738   1.519   6.308 -0.7448  0.1979  0.4016
   94SAPS   O32 9243   3.630   1.511   6.256  0.1949  0.5576 -1.0859
   94SAPS   C32 9244   3.786   1.421   6.415 -0.1933 -0.2722 -0.4571
   94SAPS   H2X 9245   3.890   1.384   6.397  1.4865  2.7112  2.0703
   94SAPS   H2Y 9246   3.721   1.332   6.407 -0.1920 -0.3393  0.2678
   94SAPS   C23 9247   3.869   1.852   6.577 -0.2729 -0.5414  1.0835
   94SAPS   H3R 9248   3.948   1.778   6.553  0.4219 -0.1696  2.1360
   94SAPS   H3S 9249   3.778   1.799   6.614 -1.5411 -1.1899 -2.5612
   94SAPS   C24 9250   3.916   1.926   6.700 -0.5916 -0.4200 -0.3662
   94SAPS   H4R 9251   3.847   2.012   6.715  0.5161  0.6054 -0.9474
   94SAPS   H4S 9252   4.014   1.972   6.673 -0.8780 -1.1482 -2.8116
   94SAPS   C25 9253   3.924   1.854   6.830 -0.0837  0.0458  0.4988
   94SAPS   H5R 9254   3.828   1.828   6.876 -0.4514 -0.5125 -0.5472
   94SAPS   C26 9255   4.041   1.821   6.884  0.8609 -0.1849  0.6990
   94SAPS   H6R 9256   4.035   1.776   6.984  1.9595 -0.7663  0.5334
   94SAPS   C27 9257   4.188   1.837   6.839  0.5132 -0.0500 -0.4979
   94SAPS   H7R 9258   4.256   1.862   6.923 -1.1161 -1.9371  1.5023
   94SAPS   H7S 9259   4.202   1.916   6.762  2.8186  0.5433  0.4598
   94SAPS   C28 9260   4.228   1.704   6.784 -0.1172 -0.9996  0.1469
   94SAPS   H8R 9261   4.202   1.697   6.678  0.6054  1.9882 -0.3016
   94SAPS   C29 9262   4.271   1.595   6.853  0.0125 -0.2797 -0.3660
   94SAPS   H9R 9263   4.301   1.512   6.787  0.0295 -0.7785  0.2635
   94SAPS  C210 9264   4.288   1.590   7.003 -0.7392  0.0450  0.1612
   94SAPS  H10R 9265   4.279   1.686   7.058 -4.0548 -0.0794  0.0393
   94SAPS  H10S 9266   4.393   1.558   7.021  0.2465  2.1424 -1.4369
   94SAPS  C211 9267   4.188   1.506   7.070 -0.3912  0.2999  0.2436
   94SAPS  H11R 9268   4.108   1.458   7.011 -1.3067  1.3762  0.5607
   94SAPS  C212 9269   4.167   1.488   7.197  0.5189  0.1190 -0.0653
   94SAPS  H12R 9270   4.077   1.428   7.218 -0.6590  2.1569  1.0286
   94SAPS  C213 9271   4.242   1.523   7.322 -0.8147  0.1902 -0.3635
   94SAPS  H13R 9272   4.295   1.618   7.299  0.3082 -0.5542 -0.9654
   94SAPS  H13S 9273   4.319   1.443   7.331 -1.0130 -0.1895 -1.8492
   94SAPS  C214 9274   4.165   1.540   7.453  0.0639 -0.0740 -0.1935
   94SAPS  H14R 9275   4.084   1.614   7.454 -2.2489 -2.4583 -0.1227
   94SAPS  C215 9276   4.156   1.454   7.551 -0.4773 -0.0724 -0.5071
   94SAPS  H15R 9277   4.110   1.493   7.643 -0.9838  1.9299 -1.5592
   94SAPS  C216 9278   4.230   1.319   7.562  0.2680 -0.5645 -0.0550
   94SAPS  H16R 9279   4.288   1.326   7.657  0.6891 -0.2232 -0.3320
   94SAPS  H16S 9280   4.306   1.307   7.482 -0.2172  1.0744 -0.8229
   94SAPS  C217 9281   4.138   1.201   7.568  0.4489  0.1297  0.1998
   94SAPS  H17R 9282   4.083   1.217   7.664  1.5064 -0.4021  0.9071
   94SAPS  H17S 9283   4.206   1.115   7.585  1.5090  1.1938  1.6151
   94SAPS  C218 9284   4.040   1.170   7.451  0.4436 -0.3344 -0.3559
   94SAPS  H18R 9285   3.967   1.252   7.437  2.4520  2.2797  2.9689
   94SAPS  H18S 9286   3.981   1.080   7.481  2.4793 -1.4940  0.3976
   94SAPS  C219 9287   4.115   1.147   7.321 -0.5911  0.0392  0.0427
   94SAPS  H19R 9288   4.187   1.066   7.346 -1.9767 -1.4307 -0.5051
   94SAPS  H19S 9289   4.188   1.228   7.302  0.6259 -1.0606 -0.1357
   94SAPS  C220 9290   4.039   1.119   7.196  0.3621 -0.0659 -0.1447
   94SAPS  H20R 9291   3.974   1.202   7.162 -0.4068  0.3600  2.1895
   94SAPS  H20S 9292   3.981   1.025   7.180 -0.4515  0.2842  0.6800
   94SAPS  H20T 9293   4.111   1.088   7.117 -0.2985 -1.1283 -0.3502
   94SAPS   C33 9294   3.777   1.480   6.557 -0.7098 -0.2199  0.5754
   94SAPS   H3X 9295   3.678   1.483   6.607 -1.1268 -1.5929 -0.1127
   94SAPS   H3Y 9296   3.836   1.574   6.552  2.1779 -1.9804 -2.2338
   94SAPS   C34 9297   3.863   1.387   6.644  0.1008 -0.3502 -0.4623
   94SAPS   H4X 9298   3.963   1.374   6.599 -0.1867 -1.1238 -0.8990
   94SAPS   H4Y 9299   3.810   1.291   6.662  0.0182 -0.0858  0.8529
   94SAPS   C35 9300   3.898   1.449   6.785 -0.3878  0.0933 -0.2868
   94SAPS   H5X 9301   3.933   1.551   6.760 -1.3963  0.5243  0.0329
   94SAPS   H5Y 9302   3.980   1.389   6.832 -0.3678 -1.0519 -1.6964
   94SAPS   C36 9303   3.786   1.448   6.887 -0.3411  0.1799  0.3622
   94SAPS   H6X 9304   3.722   1.357   6.879  0.3935 -0.3880  0.7385
   94SAPS   H6Y 9305   3.713   1.530   6.873 -2.1909 -1.2479  1.1433
   94SAPS   C37 9306   3.830   1.445   7.030  0.7449  0.3701  0.7054
   94SAPS   H7X 9307   3.907   1.521   7.056  1.1221 -0.2671  1.4726
   94SAPS   H7Y 9308   3.884   1.348   7.042 -1.9751 -1.4356 -0.5608
   94SAPS   C38 9309   3.712   1.443   7.131  0.2910  0.5893  0.4485
   94SAPS   H8X 9310   3.637   1.364   7.113  0.4121  0.3846  0.8138
   94SAPS   H8Y 9311   3.675   1.547   7.135 -1.9643 -0.1744  1.1277
   94SAPS   C39 9312   3.761   1.396   7.276  0.2482  0.8210 -0.2753
   94SAPS   H9X 9313   3.849   1.452   7.314 -0.4943  1.9130 -0.1096
   94SAPS   H9Y 9314   3.805   1.294   7.268  1.9776  1.5076 -0.0198
   94SAPS  C310 9315   3.659   1.391   7.384 -0.2912 -0.7675 -0.3000
   94SAPS  H10X 9316   3.603   1.297   7.369 -2.3822  0.4590 -0.5814
   94SAPS  H10Y 9317   3.584   1.473   7.378  0.4367 -0.0661 -0.0469
   94SAPS  C311 9318   3.728   1.400   7.524  0.1080  0.0328  0.5825
   94SAPS  H11X 9319   3.799   1.486   7.532  0.8458 -0.7151  2.7793
   94SAPS  H11Y 9320   3.792   1.311   7.535 -2.1774 -1.5367  2.1179
   94SAPS  C312 9321   3.624   1.429   7.634  0.2857 -0.2901  0.5115
   94SAPS  H12X 9322   3.564   1.341   7.664  0.2105  0.0280  1.3200
   94SAPS  H12Y 9323   3.551   1.502   7.594  2.0183  1.2064 -0.0943
   94SAPS  C313 9324   3.686   1.490   7.761 -0.4251  0.6879 -0.2153
   94SAPS  H13X 9325   3.778   1.546   7.732  1.2464 -1.4006  0.7012
   94SAPS  H13Y 9326   3.722   1.414   7.833  2.4389  1.3318 -0.8233
   94SAPS  C314 9327   3.584   1.574   7.836 -0.3180 -0.1478 -0.2290
   94SAPS  H14X 9328   3.485   1.523   7.842 -1.0341  1.2777  0.4299
   94SAPS  H14Y 9329   3.564   1.675   7.795  2.5267  1.9519  3.0019
   94SAPS  C315 9330   3.647   1.600   7.976 -0.4244  0.6535  1.0264
   94SAPS  H15X 9331   3.750   1.641   7.965 -0.3244  0.1897  0.1491
   94SAPS  H15Y 9332   3.650   1.502   8.027 -2.9339 -0.5265 -0.8907
   94SAPS  C316 9333   3.553   1.679   8.060  0.3786 -0.2896 -0.4903
   94SAPS  H16X 9334   3.536   1.640   8.163 -1.6352  2.8552  0.5101
   94SAPS  H16Y 9335   3.452   1.667   8.015  0.8652 -1.5294 -1.3076
   94SAPS  C317 9336   3.602   1.819   8.094  0.0142 -0.1049 -0.0484
   94SAPS  H17X 9337   3.653   1.857   8.003 -1.1245 -1.2144 -1.1934
   94SAPS  H17Y 9338   3.678   1.824   8.175  0.0417  1.4300 -0.1491
   94SAPS  C318 9339   3.490   1.916   8.138 -0.7097 -0.1820 -0.4826
   94SAPS  H18X 9340   3.540   2.004   8.183  2.9707 -2.2936 -0.0208
   94SAPS  H18Y 9341   3.424   1.878   8.219  0.6417  2.1299  1.8499
   94SAPS  H18Z 9342   3.418   1.949   8.061 -1.0059 -1.0933 -0.6087
   95SAPS     N 9343   0.061   6.215   6.131  0.1061  0.2629 -0.1700
   95SAPS   HN1 9344  -0.040   6.225   6.153  0.3093 -1.5885  1.8820
   95SAPS   HN2 9345   0.073   6.117   6.101 -0.9592  0.2610 -0.6308
   95SAPS   HN3 9346   0.111   6.233   6.220  2.3104 -1.5636 -0.9418
   95SAPS   C12 9347   0.109   6.306   6.029 -0.7210  0.0267 -0.1075
   95SAPS  H12A 9348   0.204   6.270   5.994 -0.7875  1.3112 -1.7586
   95SAPS   C13 9349   0.029   6.325   5.901 -0.2919 -0.7186 -0.2908
   95SAPS  O13A 9350  -0.080   6.262   5.879  0.3173 -0.2796  0.1434
   95SAPS  O13B 9351   0.071   6.401   5.809  0.0424  0.4237 -0.0843
   95SAPS   C11 9352   0.134   6.442   6.100 -0.4700 -0.3445  0.5586
   95SAPS  H11A 9353   0.038   6.490   6.128  0.4343  0.7216  1.9559
   95SAPS  H11B 9354   0.180   6.508   6.023  0.6518 -4.2072 -2.4096
   95SAPS     P 9355   0.230   6.517   6.334  0.2415  0.7164  0.0259
   95SAPS   O13 9356   0.305   6.446   6.433 -0.5314 -0.1755 -1.1101
   95SAPS   O14 9357   0.275   6.647   6.285  0.1268 -0.2226 -0.4519
   95SAPS   O12 9358   0.221   6.422   6.210  0.5978 -0.0176  0.6597
   95SAPS   O11 9359   0.080   6.533   6.383  0.4499  0.1303 -0.3878
   95SAPS    C1 9360   0.040   6.662   6.439 -0.8543  0.2910  0.9852
   95SAPS    HA 9361   0.004   6.733   6.362  1.1971  0.6415  0.2918
   95SAPS    HB 9362  -0.045   6.640   6.508 -1.9550  1.9312  0.2194
   95SAPS    C2 9363   0.140   6.750   6.521  0.2116  0.1732  0.0841
   95SAPS    HS 9364   0.239   6.761   6.473  0.1827  0.7810  0.1604
   95SAPS   O21 9365   0.144   6.696   6.660  0.2743  0.0780  0.4117
   95SAPS   C21 9366   0.260   6.713   6.717 -0.8041 -0.4031 -0.1349
   95SAPS   O22 9367   0.356   6.773   6.670 -0.0988 -0.1586  0.1506
   95SAPS   C22 9368   0.259   6.627   6.845  0.8982  0.3058 -0.0303
   95SAPS   H2R 9369   0.175   6.669   6.905  1.3147 -0.2438  0.9605
   95SAPS   H2S 9370   0.249   6.520   6.819  0.8035  0.7066 -1.7980
   95SAPS    C3 9371   0.072   6.894   6.529  1.4808  0.3190 -0.5289
   95SAPS    HX 9372   0.088   6.950   6.435 -0.2789 -0.9103 -1.6270
   95SAPS    HY 9373   0.119   6.946   6.616  0.3135  0.2807  0.1521
   95SAPS   O31 9374  -0.074   6.879   6.548 -0.0468  0.7965 -0.3749
   95SAPS   C31 9375  -0.115   6.881   6.673  1.1606  0.6688 -0.8175
   95SAPS   O32 9376  -0.050   6.900   6.779 -0.0233  0.0992  0.3232
   95SAPS   C32 9377  -0.265   6.840   6.670  0.4012  0.2241 -0.1661
   95SAPS   H2X 9378  -0.284   6.731   6.681 -2.6189  0.3627 -2.4624
   95SAPS   H2Y 9379  -0.306   6.868   6.570  1.6588 -1.2107 -1.1253
   95SAPS   C23 9380   0.382   6.655   6.927 -0.3840  0.4545 -0.0590
   95SAPS   H3R 9381   0.391   6.763   6.951  0.9851  0.0918  1.2091
   95SAPS   H3S 9382   0.473   6.633   6.868 -0.2490 -2.2674  1.0045
   95SAPS   C24 9383   0.397   6.550   7.040 -0.3520  0.2048 -0.2094
   95SAPS   H4R 9384   0.493   6.581   7.086  0.5842 -0.2989 -1.7252
   95SAPS   H4S 9385   0.408   6.447   6.998 -0.8584 -0.0208  0.1920
   95SAPS   C25 9386   0.277   6.557   7.142  0.6017 -0.4258  0.7602
   95SAPS   H5R 9387   0.177   6.575   7.101 -0.8281  1.6020  4.6558
   95SAPS   C26 9388   0.284   6.545   7.278  0.3692 -0.1877  0.5072
   95SAPS   H6R 9389   0.197   6.571   7.340  0.4304 -1.9697  1.4040
   95SAPS   C27 9390   0.409   6.508   7.356 -0.2427 -0.3067  0.5082
   95SAPS   H7R 9391   0.480   6.455   7.290 -0.1189  0.0332  0.3635
   95SAPS   H7S 9392   0.399   6.443   7.445  0.8632 -2.2669 -0.7093
   95SAPS   C28 9393   0.471   6.642   7.389  0.1131 -0.5671  0.0168
   95SAPS   H8R 9394   0.503   6.715   7.312 -0.3253 -0.7009 -0.2947
   95SAPS   C29 9395   0.482   6.687   7.512 -0.4173 -0.5429  0.2051
   95SAPS   H9R 9396   0.518   6.790   7.526  0.3283 -0.7947  0.1933
   95SAPS  C210 9397   0.438   6.615   7.640  0.1250 -0.1654 -0.8751
   95SAPS  H10R 9398   0.330   6.586   7.632 -0.4904  1.8530 -0.3504
   95SAPS  H10S 9399   0.437   6.699   7.712  0.4311 -2.3621  1.8549
   95SAPS  C211 9400   0.534   6.506   7.682 -0.1607 -0.1931 -0.9010
   95SAPS  H11R 9401   0.590   6.461   7.598  0.3176  2.1187 -1.9083
   95SAPS  C212 9402   0.556   6.475   7.808 -0.0591  0.3191 -0.1076
   95SAPS  H12R 9403   0.623   6.389   7.823  1.6499  1.6422  0.1467
   95SAPS  C213 9404   0.483   6.529   7.928 -0.3152 -0.5232  0.4579
   95SAPS  H13R 9405   0.414   6.612   7.904 -3.6093 -3.0071  0.5504
   95SAPS  H13S 9406   0.559   6.572   7.997 -0.5347 -0.8775  0.9334
   95SAPS  C214 9407   0.389   6.437   8.000  0.4011  0.2903  0.0983
   95SAPS  H14R 9408   0.313   6.384   7.941  2.1592 -1.8190 -0.4389
   95SAPS  C215 9409   0.390   6.397   8.130  0.0324  0.0931  0.1392
   95SAPS  H15R 9410   0.319   6.323   8.170  0.3848 -0.6054 -0.5131
   95SAPS  C216 9411   0.486   6.444   8.236 -0.3597  0.0962  0.3507
   95SAPS  H16R 9412   0.572   6.502   8.197 -0.2683 -1.3737 -1.8228
   95SAPS  H16S 9413   0.530   6.354   8.283 -1.8550  1.2337  4.2473
   95SAPS  C217 9414   0.418   6.521   8.346 -0.1835 -1.1883 -0.0241
   95SAPS  H17R 9415   0.340   6.455   8.389 -2.0774  0.9120 -0.0197
   95SAPS  H17S 9416   0.362   6.612   8.316 -0.1100 -0.7472  1.1011
   95SAPS  C218 9417   0.515   6.560   8.468 -0.5207  0.0753  0.4721
   95SAPS  H18R 9418   0.459   6.617   8.545 -0.6413  1.9428 -0.9234
   95SAPS  H18S 9419   0.596   6.625   8.429 -0.0558 -1.0004 -0.4051
   95SAPS  C219 9420   0.579   6.436   8.533  0.3411 -0.5966 -0.5807
   95SAPS  H19R 9421   0.632   6.470   8.625 -0.2207  0.2241 -0.5511
   95SAPS  H19S 9422   0.657   6.399   8.463  0.1571  1.4752 -1.9800
   95SAPS  C220 9423   0.489   6.315   8.560 -0.1181  0.5674  0.1042
   95SAPS  H20R 9424   0.399   6.351   8.613 -0.3214  4.2046 -2.3109
   95SAPS  H20S 9425   0.532   6.232   8.620 -0.1591  0.4815  0.0153
   95SAPS  H20T 9426   0.445   6.274   8.467  1.0999  0.1334 -0.3097
   95SAPS   C33 9427  -0.352   6.916   6.779 -0.4844  0.6357  0.0923
   95SAPS   H3X 9428  -0.459   6.917   6.749 -0.2385 -1.1137 -0.9809
   95SAPS   H3Y 9429  -0.314   7.020   6.784  0.1898  0.5534 -2.0570
   95SAPS   C34 9430  -0.347   6.853   6.920 -0.0155  0.1808  0.0819
   95SAPS   H4X 9431  -0.249   6.800   6.918 -0.6090 -0.9245 -0.6208
   95SAPS   H4Y 9432  -0.418   6.769   6.932  2.1033 -1.8292 -0.4779
   95SAPS   C35 9433  -0.353   6.945   7.042  0.5224  0.2414  0.0007
   95SAPS   H5X 9434  -0.442   7.012   7.038  0.5914  0.2734 -1.6899
   95SAPS   H5Y 9435  -0.253   6.992   7.050  1.4334 -1.1719 -2.0456
   95SAPS   C36 9436  -0.388   6.858   7.171 -0.6274 -0.1310  0.4972
   95SAPS   H6X 9437  -0.310   6.790   7.211 -1.9305 -0.0751  3.3575
   95SAPS   H6Y 9438  -0.467   6.783   7.150  0.9203 -1.2456 -1.8128
   95SAPS   C37 9439  -0.409   6.956   7.291 -0.2243 -0.0863 -0.6639
   95SAPS   H7X 9440  -0.512   6.997   7.283 -0.2304  0.1785  0.5334
   95SAPS   H7Y 9441  -0.340   7.043   7.289 -0.1136  0.0069  2.3323
   95SAPS   C38 9442  -0.385   6.890   7.429  0.1894 -0.2876 -0.5239
   95SAPS   H8X 9443  -0.279   6.861   7.443 -0.8488 -4.1515  0.3331
   95SAPS   H8Y 9444  -0.443   6.796   7.428  0.1425 -0.2672 -2.2933
   95SAPS   C39 9445  -0.447   6.977   7.538 -0.5543  0.3777 -0.1965
   95SAPS   H9X 9446  -0.555   6.980   7.509 -0.0613 -1.0343 -2.4643
   95SAPS   H9Y 9447  -0.401   7.076   7.552  1.3841 -0.8336  3.1006
   95SAPS  C310 9448  -0.428   6.907   7.675  0.6070 -0.0376 -1.1129
   95SAPS  H10X 9449  -0.318   6.892   7.682  0.4116 -1.4982 -0.8237
   95SAPS  H10Y 9450  -0.486   6.812   7.676  1.7817 -0.7775 -0.9926
   95SAPS  C311 9451  -0.469   7.005   7.784 -0.5933 -0.3293 -0.5230
   95SAPS  H11X 9452  -0.578   7.020   7.793 -0.5144 -0.2938  0.6071
   95SAPS  H11Y 9453  -0.425   7.107   7.775 -1.2555  0.0442  0.2953
   95SAPS  C312 9454  -0.410   6.964   7.922 -0.2115 -0.0693  0.1356
   95SAPS  H12X 9455  -0.308   6.925   7.901  1.1329  3.0747  0.2135
   95SAPS  H12Y 9456  -0.469   6.885   7.973 -3.6298  0.3362 -2.7399
   95SAPS  C313 9457  -0.395   7.077   8.021  0.1068 -0.4819 -0.7636
   95SAPS  H13X 9458  -0.352   7.171   7.980 -1.7923  1.3847  1.2397
   95SAPS  H13Y 9459  -0.327   7.053   8.106 -0.3255 -0.6447 -0.4630
   95SAPS  C314 9460  -0.532   7.133   8.079  0.0142 -0.1983  0.9164
   95SAPS  H14X 9461  -0.583   7.052   8.134 -0.9758 -0.4498 -0.3252
   95SAPS  H14Y 9462  -0.602   7.166   7.999 -0.3944  2.6339  2.3276
   95SAPS  C315 9463  -0.509   7.259   8.165  0.2185 -0.0705 -0.1387
   95SAPS  H15X 9464  -0.605   7.293   8.210 -0.0188 -2.7974  1.6478
   95SAPS  H15Y 9465  -0.460   7.342   8.109 -0.3622  1.4310  1.4753
   95SAPS  C316 9466  -0.425   7.224   8.288  0.3750  0.9316 -0.6722
   95SAPS  H16X 9467  -0.318   7.225   8.261  0.7433 -0.8592  0.5467
   95SAPS  H16Y 9468  -0.444   7.119   8.321  0.4147  0.7955 -1.0663
   95SAPS  C317 9469  -0.443   7.326   8.401  0.0651  0.4025 -0.0464
   95SAPS  H17X 9470  -0.378   7.302   8.488  0.5100  0.6670 -0.3023
   95SAPS  H17Y 9471  -0.552   7.313   8.417  0.3399 -2.0762  0.2416
   95SAPS  C318 9472  -0.416   7.473   8.368  0.5385 -0.4182 -0.5300
   95SAPS  H18X 9473  -0.483   7.496   8.282  0.5678  0.4032 -0.3353
   95SAPS  H18Y 9474  -0.315   7.507   8.338 -0.4201  3.2349 -0.0264
   95SAPS  H18Z 9475  -0.453   7.524   8.459  0.4116 -0.6586 -0.4435
   96SAPS     N 9476   2.180   6.527   6.412  0.0507 -0.7099 -0.2964
   96SAPS   HN1 9477   2.211   6.429   6.400 -1.2453 -1.5690  2.3656
   96SAPS   HN2 9478   2.265   6.584   6.431 -0.1428 -0.4700 -0.1231
   96SAPS   HN3 9479   2.124   6.540   6.499  0.9390  1.6864  0.0173
   96SAPS   C12 9480   2.114   6.582   6.292 -0.1081 -0.7899  0.1113
   96SAPS  H12A 9481   2.123   6.689   6.306  0.7520 -0.9586  0.9850
   96SAPS   C13 9482   2.181   6.549   6.154  0.0015  0.0608  0.8614
   96SAPS  O13A 9483   2.294   6.495   6.151 -0.2628  0.5060 -0.0834
   96SAPS  O13B 9484   2.132   6.602   6.050  0.1533 -0.6800  0.2001
   96SAPS   C11 9485   1.962   6.538   6.282  0.4969  0.6570 -0.2071
   96SAPS  H11A 9486   1.957   6.429   6.264  1.2019  0.7374 -0.9986
   96SAPS  H11B 9487   1.920   6.590   6.193  1.0222 -0.8190 -1.3524
   96SAPS     P 9488   1.763   6.679   6.387  0.0061 -0.5822  0.2351
   96SAPS   O13 9489   1.818   6.804   6.324  0.1346  0.6742  0.2473
   96SAPS   O14 9490   1.660   6.606   6.310 -0.1359 -0.1584 -0.0534
   96SAPS   O12 9491   1.885   6.579   6.396 -0.4376 -0.3892  0.1391
   96SAPS   O11 9492   1.728   6.702   6.537  0.0263  0.2168  0.3291
   96SAPS    C1 9493   1.834   6.720   6.636 -0.2154  0.0986 -0.2113
   96SAPS    HA 9494   1.905   6.636   6.623  1.3606  1.1737  1.0492
   96SAPS    HB 9495   1.887   6.818   6.632  0.0769 -0.0322  0.3984
   96SAPS    C2 9496   1.780   6.714   6.784  0.1891 -0.4960 -0.3413
   96SAPS    HS 9497   1.714   6.626   6.780 -1.2199  0.5719 -1.6897
   96SAPS   O21 9498   1.701   6.836   6.786  0.2241  0.7242  0.6322
   96SAPS   C21 9499   1.600   6.831   6.872  0.2111  0.4642  0.3939
   96SAPS   O22 9500   1.573   6.740   6.946 -0.5147 -0.2116  0.1031
   96SAPS   C22 9501   1.528   6.967   6.875 -0.3684  1.0405  0.1670
   96SAPS   H2R 9502   1.605   7.041   6.844 -1.5312  3.4908  2.6692
   96SAPS   H2S 9503   1.448   6.968   6.798  0.5497 -2.1187 -0.9722
   96SAPS    C3 9504   1.890   6.713   6.898  0.4656 -0.0788 -0.6730
   96SAPS    HX 9505   1.956   6.802   6.889  0.2380  0.5114  2.3436
   96SAPS    HY 9506   1.947   6.623   6.870 -0.4025 -0.4336 -1.3280
   96SAPS   O31 9507   1.838   6.702   7.036 -0.2844  0.2493  0.2367
   96SAPS   C31 9508   1.844   6.812   7.111  0.5665  0.3986 -0.5487
   96SAPS   O32 9509   1.894   6.916   7.073  0.1214 -0.1051 -0.0512
   96SAPS   C32 9510   1.797   6.789   7.248  0.0702 -0.4017  0.0656
   96SAPS   H2X 9511   1.820   6.684   7.277  1.7480 -0.1061 -0.1165
   96SAPS   H2Y 9512   1.686   6.791   7.241 -0.1315  0.2550  2.5102
   96SAPS   C23 9513   1.481   7.007   7.018 -0.1116  0.0160  0.5619
   96SAPS   H3R 9514   1.535   6.950   7.096 -1.9716 -0.2589  1.7388
   96SAPS   H3S 9515   1.373   6.979   7.026  0.6212 -3.1617  0.7375
   96SAPS   C24 9516   1.496   7.159   7.045  1.2360  0.5796  0.2621
   96SAPS   H4R 9517   1.429   7.177   7.132  1.5038 -0.8020  0.7859
   96SAPS   H4S 9518   1.456   7.224   6.964  0.7170  0.0849  0.1091
   96SAPS   C25 9519   1.640   7.187   7.088 -0.0531 -0.0290 -0.1717
   96SAPS   H5R 9520   1.711   7.185   7.004 -0.8815 -0.7581 -0.8791
   96SAPS   C26 9521   1.675   7.225   7.215 -0.5652 -1.3228 -0.0075
   96SAPS   H6R 9522   1.784   7.237   7.226 -0.5953 -1.7423  0.7774
   96SAPS   C27 9523   1.588   7.240   7.336 -0.0922  0.7821 -0.0353
   96SAPS   H7R 9524   1.614   7.155   7.403 -1.8920  0.1068 -0.1282
   96SAPS   H7S 9525   1.483   7.221   7.304 -0.4847 -0.0601  1.6222
   96SAPS   C28 9526   1.593   7.374   7.416 -0.3718 -0.0863 -0.2176
   96SAPS   H8R 9527   1.567   7.457   7.347  0.0290  0.5863  0.4278
   96SAPS   C29 9528   1.626   7.405   7.539 -0.3995 -0.0093 -0.7667
   96SAPS   H9R 9529   1.619   7.509   7.576 -2.4507  0.1840 -1.5679
   96SAPS  C210 9530   1.665   7.297   7.640 -0.2187  0.1592  0.1229
   96SAPS  H10R 9531   1.757   7.320   7.698  0.6487 -1.6822 -0.4335
   96SAPS  H10S 9532   1.704   7.204   7.593  1.8911 -0.3695  2.6376
   96SAPS  C211 9533   1.551   7.265   7.729 -0.3178  0.5680  0.4045
   96SAPS  H11R 9534   1.481   7.196   7.679  0.2258  1.4847 -1.7310
   96SAPS  C212 9535   1.539   7.309   7.858  0.7958  1.0324  0.5766
   96SAPS  H12R 9536   1.446   7.296   7.914  1.6544 -0.8675  1.6404
   96SAPS  C213 9537   1.638   7.397   7.935 -0.1603 -0.4850 -0.2275
   96SAPS  H13R 9538   1.596   7.461   8.016  1.2007 -1.2674  1.1594
   96SAPS  H13S 9539   1.681   7.476   7.871  0.1417 -0.2148  0.3011
   96SAPS  C214 9540   1.746   7.309   7.991  0.5494  0.9702  0.4023
   96SAPS  H14R 9541   1.833   7.303   7.924  0.4275  1.9353  0.1437
   96SAPS  C215 9542   1.755   7.247   8.114 -0.5710  0.2608  0.6402
   96SAPS  H15R 9543   1.852   7.201   8.137  0.2442  2.3416  1.6065
   96SAPS  C216 9544   1.661   7.237   8.227 -0.0377 -0.6355 -0.1499
   96SAPS  H16R 9545   1.716   7.277   8.314 -0.7959 -0.3479  0.1996
   96SAPS  H16S 9546   1.645   7.133   8.264  1.0493  0.4188  3.7399
   96SAPS  C217 9547   1.530   7.305   8.236  0.5003  0.1174 -0.5406
   96SAPS  H17R 9548   1.456   7.269   8.161  0.4962  1.2233 -1.0793
   96SAPS  H17S 9549   1.548   7.413   8.221  0.1299  0.3833  0.7875
   96SAPS  C218 9550   1.451   7.287   8.368  0.7526  0.2225 -0.1658
   96SAPS  H18R 9551   1.451   7.180   8.400  0.5019  0.2100 -0.2076
   96SAPS  H18S 9552   1.346   7.319   8.350  1.2907  0.6160 -2.9865
   96SAPS  C219 9553   1.505   7.377   8.482  0.2861 -0.3574  0.0009
   96SAPS  H19R 9554   1.526   7.477   8.438  1.6276  0.3366  2.0914
   96SAPS  H19S 9555   1.608   7.345   8.508  0.5262  0.0466 -0.4520
   96SAPS  C220 9556   1.411   7.406   8.595 -0.5396  0.7857  0.2094
   96SAPS  H20R 9557   1.409   7.339   8.684 -3.1179  0.9715  0.3688
   96SAPS  H20S 9558   1.314   7.404   8.541 -0.6921  2.7632  0.3491
   96SAPS  H20T 9559   1.428   7.507   8.638 -0.6635  0.6286  0.6358
   96SAPS   C33 9560   1.827   6.911   7.356 -0.1360 -0.0691 -1.0734
   96SAPS   H3X 9561   1.765   6.994   7.315 -1.8378 -1.2142 -0.9107
   96SAPS   H3Y 9562   1.936   6.934   7.356  0.9492 -4.1823 -3.7874
   96SAPS   C34 9563   1.804   6.863   7.497 -0.0302 -0.1915 -0.1625
   96SAPS   H4X 9564   1.855   6.766   7.517  0.3154 -0.0618 -0.4158
   96SAPS   H4Y 9565   1.693   6.857   7.510  0.2577 -1.9851  2.0710
   96SAPS   C35 9566   1.875   6.949   7.606  0.1204  0.1393 -0.0930
   96SAPS   H5X 9567   1.867   7.059   7.590 -0.7803 -0.0362 -0.9223
   96SAPS   H5Y 9568   1.981   6.917   7.592  0.1752  0.2237  0.1268
   96SAPS   C36 9569   1.824   6.906   7.747  0.1676  0.8727 -0.3769
   96SAPS   H6X 9570   1.821   6.795   7.741  1.6374  0.8062 -0.2140
   96SAPS   H6Y 9571   1.717   6.934   7.758 -0.5412 -1.7490  0.2841
   96SAPS   C37 9572   1.907   6.954   7.868 -0.0960 -0.1958  0.0822
   96SAPS   H7X 9573   1.907   7.065   7.871  0.8826 -0.2062  1.4064
   96SAPS   H7Y 9574   2.008   6.918   7.839 -0.2973 -0.7296  0.0229
   96SAPS   C38 9575   1.856   6.900   8.006 -0.5682  0.0541  0.1836
   96SAPS   H8X 9576   1.823   6.795   7.993 -0.3454 -0.0008  0.0634
   96SAPS   H8Y 9577   1.766   6.949   8.049 -2.1096 -0.7671 -1.9650
   96SAPS   C39 9578   1.970   6.903   8.110 -0.1516  0.1301 -0.6617
   96SAPS   H9X 9579   1.996   7.011   8.114  0.9435 -0.1551  0.5263
   96SAPS   H9Y 9580   2.049   6.841   8.062 -0.0369  1.2121 -1.9291
   96SAPS  C310 9581   1.931   6.858   8.255  0.0224 -0.2156  0.1474
   96SAPS  H10X 9582   1.824   6.883   8.272  0.1434  0.3245  0.1516
   96SAPS  H10Y 9583   2.004   6.910   8.321  1.4919  0.1731 -1.7032
   96SAPS  C311 9584   1.951   6.706   8.273  0.9561  0.9427 -0.5162
   96SAPS  H11X 9585   2.041   6.659   8.227 -0.2849 -2.2384  0.1030
   96SAPS  H11Y 9586   1.869   6.656   8.217  0.5351  0.1327  0.7996
   96SAPS  C312 9587   1.954   6.653   8.420 -0.2576  0.0085  0.3549
   96SAPS  H12X 9588   1.943   6.542   8.412  0.1045 -0.1018  1.2490
   96SAPS  H12Y 9589   1.861   6.679   8.474 -0.1365  1.3303 -0.0566
   96SAPS  C313 9590   2.076   6.699   8.496  0.0369  0.0430  0.1812
   96SAPS  H13X 9591   2.068   6.807   8.520 -2.0581  0.2208 -1.0847
   96SAPS  H13Y 9592   2.169   6.680   8.439 -0.1645  2.1837 -0.9593
   96SAPS  C314 9593   2.082   6.634   8.637  0.0655  0.6138 -0.0414
   96SAPS  H14X 9594   2.177   6.668   8.684  0.4876  1.0010 -1.1379
   96SAPS  H14Y 9595   2.074   6.524   8.623  1.4905  0.5285 -0.3640
   96SAPS  C315 9596   1.974   6.689   8.732  0.3128 -0.1651  0.2345
   96SAPS  H15X 9597   1.868   6.666   8.704 -0.3237  0.9957  1.5685
   96SAPS  H15Y 9598   1.969   6.800   8.730 -1.2067 -0.1845 -2.1451
   96SAPS  C316 9599   2.000   6.639   8.883  0.6940  0.8904 -0.1165
   96SAPS  H16X 9600   2.106   6.664   8.904  0.9740  1.1027 -1.6223
   96SAPS  H16Y 9601   1.985   6.530   8.876 -0.0063  0.9191  0.7736
   96SAPS  C317 9602   1.909   6.693   8.992  0.0272 -0.0532  0.5274
   96SAPS  H17X 9603   1.800   6.682   8.973  0.0254 -0.3974  0.7363
   96SAPS  H17Y 9604   1.934   6.801   8.996  0.8451 -0.2628  2.9388
   96SAPS  C318 9605   1.943   6.619   9.126  0.1851 -0.3478  0.0304
   96SAPS  H18X 9606   1.941   6.510   9.104  1.7150 -0.4268  0.1456
   96SAPS  H18Y 9607   1.864   6.647   9.198 -0.2223 -1.1666 -0.0944
   96SAPS  H18Z 9608   2.050   6.638   9.151  0.6827 -0.5331 -1.7935
   97SAPS     N 9609   3.383   4.970   6.139  0.3039 -0.1835  0.1243
   97SAPS   HN1 9610   3.285   4.972   6.105 -1.2566  1.7201  4.1079
   97SAPS   HN2 9611   3.437   4.905   6.079  0.9334  1.2285 -0.9137
   97SAPS   HN3 9612   3.370   4.957   6.241 -1.3704  1.3665  0.1715
   97SAPS   C12 9613   3.449   5.100   6.102  0.3681 -0.3452  0.2452
   97SAPS  H12A 9614   3.535   5.114   6.165  2.0295 -1.2938 -1.6840
   97SAPS   C13 9615   3.496   5.104   5.955 -0.7932 -0.2426  0.2460
   97SAPS  O13A 9616   3.489   4.998   5.881 -0.4474  0.3675 -0.2497
   97SAPS  O13B 9617   3.550   5.209   5.915 -0.3209  0.9969 -0.4430
   97SAPS   C11 9618   3.354   5.223   6.138 -0.2773  0.6637 -0.1118
   97SAPS  H11A 9619   3.264   5.216   6.074 -1.1277  1.2480  0.9799
   97SAPS  H11B 9620   3.412   5.315   6.116  0.3424  0.6013  1.1566
   97SAPS     P 9621   3.282   5.353   6.362  0.0965 -0.1230  0.0908
   97SAPS   O13 9622   3.360   5.469   6.320  0.0936 -0.1768  0.2830
   97SAPS   O14 9623   3.133   5.361   6.358 -0.5078 -0.4957 -1.1427
   97SAPS   O12 9624   3.332   5.223   6.281  0.3231 -0.2473 -0.1274
   97SAPS   O11 9625   3.317   5.322   6.514 -0.2299 -0.0648 -0.4411
   97SAPS    C1 9626   3.318   5.195   6.563  0.7091  0.0183  0.4233
   97SAPS    HA 9627   3.394   5.134   6.510  0.3554  0.2705 -0.3920
   97SAPS    HB 9628   3.361   5.209   6.664  1.3062 -0.9051  0.3114
   97SAPS    C2 9629   3.176   5.125   6.578 -0.2491 -0.0238 -0.3912
   97SAPS    HS 9630   3.124   5.135   6.481 -0.2383  1.5007 -0.2660
   97SAPS   O21 9631   3.105   5.209   6.672 -0.2550  0.3903  0.4693
   97SAPS   C21 9632   2.974   5.189   6.689 -0.0647  0.2720 -0.0397
   97SAPS   O22 9633   2.910   5.102   6.633 -0.2694 -0.0975  0.1317
   97SAPS   C22 9634   2.927   5.282   6.801 -0.3030  0.1018 -0.3604
   97SAPS   H2R 9635   2.994   5.371   6.798  0.9621 -0.8342 -2.8221
   97SAPS   H2S 9636   2.823   5.310   6.776  0.2976  0.7911 -2.3034
   97SAPS    C3 9637   3.190   4.982   6.631  0.5380  0.3354  0.3378
   97SAPS    HX 9638   3.247   4.919   6.560 -0.5203 -1.2767  0.8508
   97SAPS    HY 9639   3.090   4.936   6.645 -0.1779  2.2139  1.8428
   97SAPS   O31 9640   3.261   4.989   6.754 -0.1556 -0.3617  0.3934
   97SAPS   C31 9641   3.301   4.869   6.792 -0.2409  0.3557  0.3178
   97SAPS   O32 9642   3.294   4.761   6.734  0.3252  0.0833  0.3597
   97SAPS   C32 9643   3.346   4.881   6.940  0.1104 -0.1726  0.1453
   97SAPS   H2X 9644   3.278   4.959   6.981 -1.0290 -0.6254 -0.8094
   97SAPS   H2Y 9645   3.453   4.907   6.948  0.2599  0.2007 -2.3240
   97SAPS   C23 9646   2.932   5.210   6.942 -0.0314 -0.4518 -0.6596
   97SAPS   H3R 9647   2.873   5.116   6.941 -0.5690 -0.1254 -0.6055
   97SAPS   H3S 9648   2.883   5.274   7.018  0.7028 -0.1790 -0.4095
   97SAPS   C24 9649   3.077   5.192   6.992  0.1654  0.1650  0.3001
   97SAPS   H4R 9650   3.104   5.295   7.023 -1.3399  0.9189 -0.7759
   97SAPS   H4S 9651   3.133   5.156   6.903 -0.2064  1.1772 -0.3562
   97SAPS   C25 9652   3.076   5.094   7.105 -0.5362 -0.7001 -0.6303
   97SAPS   H5R 9653   3.063   4.986   7.095 -2.0999 -0.7391  1.1537
   97SAPS   C26 9654   3.091   5.125   7.231 -0.0342 -0.9031 -0.0634
   97SAPS   H6R 9655   3.079   5.048   7.308 -1.0802  0.3713  1.1131
   97SAPS   C27 9656   3.109   5.263   7.299  0.0630 -0.0719  0.8817
   97SAPS   H7R 9657   3.153   5.337   7.230 -1.3171  0.3050  0.3845
   97SAPS   H7S 9658   3.175   5.261   7.389 -2.1652 -1.1297  2.5966
   97SAPS   C28 9659   2.977   5.313   7.344  0.9307 -0.1726  0.0719
   97SAPS   H8R 9660   2.900   5.321   7.266  0.5916 -0.2394  0.4002
   97SAPS   C29 9661   2.948   5.352   7.465  0.1740  1.1189 -0.8193
   97SAPS   H9R 9662   2.841   5.366   7.487  1.1282  1.8211  5.3820
   97SAPS  C210 9663   3.045   5.357   7.585  0.3605 -0.2530 -0.1585
   97SAPS  H10R 9664   3.016   5.447   7.643  0.0489  0.9174 -2.0515
   97SAPS  H10S 9665   3.151   5.364   7.551  0.7573  1.9737  1.3127
   97SAPS  C211 9666   3.017   5.242   7.674  0.2281 -0.1511 -0.1997
   97SAPS  H11R 9667   3.010   5.145   7.623  1.2349 -0.2525 -0.1746
   97SAPS  C212 9668   3.032   5.252   7.811 -0.5243  0.8470 -0.0066
   97SAPS  H12R 9669   3.022   5.164   7.875  0.5491  0.9739  0.3540
   97SAPS  C213 9670   3.073   5.372   7.883 -0.3357 -0.1594  0.1809
   97SAPS  H13R 9671   3.126   5.449   7.822 -2.4129  2.0945  1.0229
   97SAPS  H13S 9672   3.142   5.342   7.964  2.4364  1.2916 -1.4863
   97SAPS  C214 9673   2.951   5.445   7.941  0.2013  0.2039  0.6033
   97SAPS  H14R 9674   2.899   5.493   7.857  0.9367 -0.5377 -0.2942
   97SAPS  C215 9675   2.908   5.460   8.069 -0.0990  0.6906 -0.3240
   97SAPS  H15R 9676   2.810   5.508   8.081 -1.8530 -2.7744  0.2014
   97SAPS  C216 9677   2.974   5.411   8.191 -0.7220  0.2551  0.4061
   97SAPS  H16R 9678   3.054   5.338   8.167  1.1097  2.1043  0.6427
   97SAPS  H16S 9679   2.911   5.352   8.261  0.5052 -1.7329 -0.0930
   97SAPS  C217 9680   3.034   5.513   8.286  0.1614  1.1966  0.2958
   97SAPS  H17R 9681   2.972   5.605   8.284  1.7577  2.3006 -0.6568
   97SAPS  H17S 9682   3.132   5.552   8.250  1.8564 -2.9539 -0.0773
   97SAPS  C218 9683   3.045   5.453   8.422  0.0007 -0.3979 -0.0686
   97SAPS  H18R 9684   3.087   5.351   8.415 -0.8323 -0.6195 -2.9428
   97SAPS  H18S 9685   2.945   5.450   8.468  0.0366  0.8744  0.1356
   97SAPS  C219 9686   3.113   5.551   8.518  0.3668 -0.9011  0.0958
   97SAPS  H19R 9687   3.061   5.649   8.513  0.3896 -0.8659  0.4804
   97SAPS  H19S 9688   3.219   5.571   8.491  0.3352 -0.4129  0.3228
   97SAPS  C220 9689   3.096   5.504   8.666  0.4436 -0.1775 -0.4787
   97SAPS  H20R 9690   3.194   5.484   8.714  0.8758 -2.8811 -2.2727
   97SAPS  H20S 9691   3.046   5.406   8.679  0.2406 -0.4507 -2.8691
   97SAPS  H20T 9692   3.053   5.586   8.727  0.9240 -0.5797  0.4178
   97SAPS   C33 9693   3.325   4.745   7.014 -0.1588 -0.7820  0.0927
   97SAPS   H3X 9694   3.376   4.653   6.979 -5.0006 -4.0718  0.7269
   97SAPS   H3Y 9695   3.216   4.727   7.001  0.0852 -1.2152 -1.6843
   97SAPS   C34 9696   3.355   4.760   7.164  0.0758 -0.2614 -0.4201
   97SAPS   H4X 9697   3.318   4.860   7.196 -0.6584 -0.6180 -0.1255
   97SAPS   H4Y 9698   3.465   4.765   7.180  0.2478 -2.1340 -0.7815
   97SAPS   C35 9699   3.289   4.650   7.241 -0.6898 -0.4744 -0.8040
   97SAPS   H5X 9700   3.308   4.548   7.200 -1.0019 -1.2890  0.9717
   97SAPS   H5Y 9701   3.180   4.661   7.225 -0.2988  1.5977 -2.5585
   97SAPS   C36 9702   3.331   4.639   7.397 -0.3424  0.4853  0.9083
   97SAPS   H6X 9703   3.437   4.608   7.408 -0.7553 -1.0992  0.5357
   97SAPS   H6Y 9704   3.266   4.563   7.444 -1.0026  1.7403  2.0901
   97SAPS   C37 9705   3.299   4.769   7.465  0.0783 -0.3275 -0.1337
   97SAPS   H7X 9706   3.195   4.789   7.429 -1.8185 -3.6556  2.8963
   97SAPS   H7Y 9707   3.371   4.849   7.437  0.5924 -0.3571  1.0457
   97SAPS   C38 9708   3.305   4.766   7.618 -0.2619 -0.2582 -0.2332
   97SAPS   H8X 9709   3.357   4.859   7.651  1.2119 -0.2060 -2.4604
   97SAPS   H8Y 9710   3.367   4.683   7.655 -0.4274  0.4724  1.7689
   97SAPS   C39 9711   3.176   4.754   7.689 -0.7970 -0.5105 -0.4178
   97SAPS   H9X 9712   3.129   4.656   7.666 -1.0938 -0.5663  0.3789
   97SAPS   H9Y 9713   3.119   4.845   7.661  1.2873  1.0516  0.0754
   97SAPS  C310 9714   3.173   4.756   7.843 -0.1549 -0.4890  0.1429
   97SAPS  H10X 9715   3.232   4.671   7.883  0.0894 -0.5335 -0.2946
   97SAPS  H10Y 9716   3.070   4.728   7.872 -0.8665  0.0259 -1.7532
   97SAPS  C311 9717   3.229   4.876   7.913 -1.6289 -0.1280  0.2574
   97SAPS  H11X 9718   3.164   4.967   7.913 -1.1819  0.2507 -2.0151
   97SAPS  H11Y 9719   3.324   4.911   7.867 -0.4964 -1.5749  1.4182
   97SAPS  C312 9720   3.259   4.859   8.062  0.3365 -0.3335 -0.3497
   97SAPS  H12X 9721   3.301   4.955   8.099 -1.6073  1.0493 -1.5395
   97SAPS  H12Y 9722   3.325   4.775   8.091 -1.3029 -0.6195  3.0927
   97SAPS  C313 9723   3.134   4.850   8.148  0.0511  0.4294 -0.1147
   97SAPS  H13X 9724   3.067   4.764   8.125  0.0209  0.4965 -0.2768
   97SAPS  H13Y 9725   3.076   4.944   8.139  0.2434  0.6715  1.0034
   97SAPS  C314 9726   3.167   4.839   8.297  0.1086  0.4305 -0.1077
   97SAPS  H14X 9727   3.209   4.935   8.335  1.7153 -0.4713  0.4510
   97SAPS  H14Y 9728   3.237   4.755   8.317 -0.8180 -0.1566  0.7686
   97SAPS  C315 9729   3.034   4.809   8.366 -0.2707  0.2093  0.2589
   97SAPS  H15X 9730   2.977   4.734   8.308 -3.2283  2.5784 -0.1426
   97SAPS  H15Y 9731   2.966   4.896   8.357 -1.5375 -0.5955  1.6895
   97SAPS  C316 9732   3.049   4.748   8.504 -0.3267  0.0604  0.5918
   97SAPS  H16X 9733   3.103   4.651   8.503  0.8615  0.6984  1.0038
   97SAPS  H16Y 9734   2.945   4.732   8.539 -0.4148 -0.4907  0.1011
   97SAPS  C317 9735   3.109   4.835   8.610 -0.0527 -0.1902 -0.8414
   97SAPS  H17X 9736   3.058   4.934   8.609 -0.3883 -0.3175  0.5765
   97SAPS  H17Y 9737   3.213   4.861   8.581 -1.1514  3.7992 -1.7651
   97SAPS  C318 9738   3.097   4.786   8.758  0.0626 -0.3356  0.1280
   97SAPS  H18X 9739   3.133   4.685   8.787 -0.7382 -0.7237 -0.1731
   97SAPS  H18Y 9740   2.993   4.804   8.792  0.0312  0.9459 -0.5616
   97SAPS  H18Z 9741   3.152   4.856   8.824 -0.7904  0.1343  0.3497
   98SAPS     N 9742   5.334   6.337   6.019  0.0579 -0.3882  0.2553
   98SAPS   HN1 9743   5.266   6.381   5.954  3.5499  1.6891 -2.3297
   98SAPS   HN2 9744   5.365   6.244   5.984  1.7099 -0.0749  0.7995
   98SAPS   HN3 9745   5.287   6.313   6.108 -0.0655 -0.0006  0.2958
   98SAPS   C12 9746   5.456   6.423   6.046 -0.6536  0.0950 -0.4988
   98SAPS  H12A 9747   5.541   6.405   5.980 -0.4904  0.4161 -0.3814
   98SAPS   C13 9748   5.433   6.573   6.063 -0.3454  0.0384  0.4914
   98SAPS  O13A 9749   5.322   6.621   6.035  0.1216 -0.4735 -0.1536
   98SAPS  O13B 9750   5.529   6.643   6.099 -0.0328  0.0367  0.6624
   98SAPS   C11 9751   5.523   6.366   6.173 -0.8074 -0.2277 -0.1450
   98SAPS  H11A 9752   5.447   6.365   6.254  1.0690 -0.8242  1.6999
   98SAPS  H11B 9753   5.595   6.440   6.213  0.0741 -1.5966  0.9023
   98SAPS     P 9754   5.722   6.212   6.125  0.2930 -0.2554  0.1921
   98SAPS   O13 9755   5.741   6.066   6.117 -0.3133  0.5629 -0.3428
   98SAPS   O14 9756   5.754   6.279   5.996 -0.0235  0.3596  0.2175
   98SAPS   O12 9757   5.571   6.236   6.158 -0.2559 -0.2567 -0.0434
   98SAPS   O11 9758   5.817   6.278   6.243 -0.3816  0.3880 -0.2004
   98SAPS    C1 9759   5.773   6.323   6.369  0.3812 -0.7149 -0.2020
   98SAPS    HA 9760   5.796   6.431   6.380 -1.5289 -0.2733 -0.1877
   98SAPS    HB 9761   5.663   6.315   6.383  0.1905  0.6555 -0.7847
   98SAPS    C2 9762   5.858   6.243   6.478  0.3186 -0.2396 -0.5786
   98SAPS    HS 9763   5.962   6.247   6.441  0.7848  0.6251  0.7364
   98SAPS   O21 9764   5.802   6.111   6.483  0.3980 -0.4771  0.1867
   98SAPS   C21 9765   5.857   6.004   6.430 -0.1474 -0.0775  0.3740
   98SAPS   O22 9766   5.975   5.993   6.393  0.0729 -0.5174  0.0129
   98SAPS   C22 9767   5.753   5.891   6.426 -0.0872  0.1076  0.3488
   98SAPS   H2R 9768   5.708   5.876   6.526 -2.2465  0.3558 -0.5319
   98SAPS   H2S 9769   5.678   5.932   6.355  3.4303  3.2828 -1.9120
   98SAPS    C3 9770   5.857   6.314   6.623  0.1343  0.4132 -0.4808
   98SAPS    HX 9771   5.752   6.334   6.655 -0.0079 -0.4465 -0.3984
   98SAPS    HY 9772   5.908   6.413   6.615 -0.0726  0.4531 -1.4816
   98SAPS   O31 9773   5.931   6.232   6.712  0.4011 -0.3624  0.3366
   98SAPS   C31 9774   5.853   6.154   6.788 -0.7776  0.3727 -0.6292
   98SAPS   O32 9775   5.732   6.150   6.790  0.2114  0.2908  0.8407
   98SAPS   C32 9776   5.942   6.065   6.880  0.3427  0.0718  0.1591
   98SAPS   H2X 9777   5.934   5.968   6.827  0.0901  0.5375 -0.6744
   98SAPS   H2Y 9778   5.887   6.049   6.975  1.0619 -0.0259  0.5652
   98SAPS   C23 9779   5.825   5.767   6.362  0.1229  0.5335  0.2506
   98SAPS   H3R 9780   5.886   5.808   6.278  0.5281 -0.9323 -0.2091
   98SAPS   H3S 9781   5.750   5.701   6.313  0.8679  0.0931 -0.3228
   98SAPS   C24 9782   5.910   5.692   6.462 -0.0125  0.0216 -0.6545
   98SAPS   H4R 9783   5.959   5.767   6.527 -1.8362  2.1110 -1.5809
   98SAPS   H4S 9784   5.999   5.647   6.411  1.1487  1.4968 -0.0033
   98SAPS   C25 9785   5.837   5.586   6.547 -0.0329  0.5335 -0.1094
   98SAPS   H5R 9786   5.838   5.484   6.506 -3.0241  0.1340  0.5596
   98SAPS   C26 9787   5.780   5.600   6.675 -0.4278  0.1030  0.9157
   98SAPS   H6R 9788   5.751   5.511   6.733  0.6230 -0.3191  0.8212
   98SAPS   C27 9789   5.763   5.725   6.754  1.1979  0.2225  0.0425
   98SAPS   H7R 9790   5.674   5.777   6.712 -0.0461 -1.1616  0.8190
   98SAPS   H7S 9791   5.849   5.792   6.735  0.2380  1.7810  0.9451
   98SAPS   C28 9792   5.747   5.718   6.899 -0.9819 -0.1389  0.2846
   98SAPS   H8R 9793   5.646   5.738   6.938 -0.3383  0.7791  1.5382
   98SAPS   C29 9794   5.847   5.698   6.991  0.4287  0.8544  0.4256
   98SAPS   H9R 9795   5.809   5.694   7.094  0.5755 -0.7111  0.4432
   98SAPS  C210 9796   5.996   5.666   6.969 -0.3463 -0.6768  0.4522
   98SAPS  H10R 9797   6.055   5.712   7.051  1.3650  0.9615 -1.5704
   98SAPS  H10S 9798   6.023   5.720   6.876  2.4116  0.3456  1.7366
   98SAPS  C211 9799   6.030   5.519   6.965 -0.1580  0.1260 -0.5764
   98SAPS  H11R 9800   6.038   5.467   6.868  0.4517 -0.6426 -0.1272
   98SAPS  C212 9801   6.054   5.446   7.074  0.2375  0.1216 -0.3379
   98SAPS  H12R 9802   6.096   5.347   7.050  1.2460  0.4966 -0.1798
   98SAPS  C213 9803   6.054   5.485   7.225  0.2300  0.1593  0.0824
   98SAPS  H13R 9804   6.082   5.592   7.234  1.9879 -0.2125 -0.5796
   98SAPS  H13S 9805   6.132   5.426   7.278 -0.9115 -0.2038  1.4039
   98SAPS  C214 9806   5.929   5.465   7.292  0.1969  0.1626  0.6914
   98SAPS  H14R 9807   5.877   5.381   7.243 -0.1327  0.4399  0.5581
   98SAPS  C215 9808   5.877   5.532   7.395  0.2764 -0.4506 -0.1845
   98SAPS  H15R 9809   5.777   5.492   7.422 -0.2078 -0.5672 -2.0227
   98SAPS  C216 9810   5.933   5.643   7.473 -0.3709 -0.3870 -0.4669
   98SAPS  H16R 9811   5.847   5.704   7.509 -0.1103 -0.1619 -0.2220
   98SAPS  H16S 9812   5.991   5.711   7.406 -1.2202 -0.5927 -1.4326
   98SAPS  C217 9813   6.037   5.597   7.587  0.3492 -0.7239 -0.4108
   98SAPS  H17R 9814   6.071   5.689   7.639 -0.3628 -0.6156 -0.1279
   98SAPS  H17S 9815   6.131   5.555   7.546  0.2827 -0.2532 -1.0718
   98SAPS  C218 9816   5.983   5.505   7.691  0.4184 -0.1601 -0.3159
   98SAPS  H18R 9817   5.951   5.407   7.650 -0.8818  0.4581 -0.8327
   98SAPS  H18S 9818   5.888   5.549   7.729  0.3887  0.6484 -1.2697
   98SAPS  C219 9819   6.081   5.477   7.805 -0.0225  0.2252  0.1686
   98SAPS  H19R 9820   6.038   5.418   7.889 -0.6148  0.3412 -0.0444
   98SAPS  H19S 9821   6.100   5.574   7.856  1.4664  0.6266 -1.0726
   98SAPS  C220 9822   6.208   5.403   7.763 -0.2405  0.8801  0.1042
   98SAPS  H20R 9823   6.246   5.451   7.670  0.2808 -1.1015 -0.7592
   98SAPS  H20S 9824   6.174   5.300   7.738 -0.0911  0.7726  0.3459
   98SAPS  H20T 9825   6.288   5.404   7.840  3.0322  1.5771 -3.0499
   98SAPS   C33 9826   6.079   6.118   6.917  0.1398 -0.5575  0.2639
   98SAPS   H3X 9827   6.068   6.209   6.981 -0.5846 -1.0837  0.8928
   98SAPS   H3Y 9828   6.136   6.138   6.824  0.5452 -1.1804  0.3735
   98SAPS   C34 9829   6.161   6.010   6.989  0.2280  0.2047  0.3968
   98SAPS   H4X 9830   6.183   5.929   6.916 -0.3420 -0.6833  1.1843
   98SAPS   H4Y 9831   6.108   5.970   7.078 -0.5323 -0.5213 -0.3718
   98SAPS   C35 9832   6.294   6.052   7.043 -0.1281  0.1620 -0.3342
   98SAPS   H5X 9833   6.359   6.072   6.955  1.3301 -2.1251  0.1351
   98SAPS   H5Y 9834   6.326   5.966   7.106  0.3345  0.8340  0.3625
   98SAPS   C36 9835   6.295   6.174   7.132  0.2840 -0.5108  0.1531
   98SAPS   H6X 9836   6.258   6.265   7.079 -2.6477 -1.4412  0.4169
   98SAPS   H6Y 9837   6.397   6.197   7.170  0.0139  1.2838 -0.1013
   98SAPS   C37 9838   6.202   6.162   7.257 -0.4618  0.2671  0.1431
   98SAPS   H7X 9839   6.094   6.140   7.240 -0.4259 -1.3138  1.7016
   98SAPS   H7Y 9840   6.210   6.259   7.310 -0.0781  0.2438  0.1337
   98SAPS   C38 9841   6.228   6.056   7.363 -0.5908 -0.4954  0.7321
   98SAPS   H8X 9842   6.339   6.050   7.369 -0.5330  0.8848  1.4363
   98SAPS   H8Y 9843   6.195   5.958   7.323 -0.6339 -0.6964  1.2557
   98SAPS   C39 9844   6.162   6.085   7.508  0.6495  0.2477  0.3189
   98SAPS   H9X 9845   6.052   6.086   7.496  0.6569  2.5086  0.0206
   98SAPS   H9Y 9846   6.199   6.189   7.525  2.4418 -0.2431 -0.2877
   98SAPS  C310 9847   6.210   5.981   7.616  0.1769 -0.2294  0.4355
   98SAPS  H10X 9848   6.318   5.958   7.623  0.2013  0.1167  1.3212
   98SAPS  H10Y 9849   6.158   5.893   7.573  0.2617 -0.9124  1.6758
   98SAPS  C311 9850   6.152   6.007   7.755  0.0635 -0.2827  0.3930
   98SAPS  H11X 9851   6.041   6.010   7.746  0.0993 -1.4034 -0.8164
   98SAPS  H11Y 9852   6.196   6.103   7.789  1.3706 -0.3794 -0.9653
   98SAPS  C312 9853   6.190   5.887   7.843 -0.3742 -0.1730  0.0091
   98SAPS  H12X 9854   6.295   5.855   7.826  0.0790  0.6051  1.1919
   98SAPS  H12Y 9855   6.121   5.803   7.820 -1.2235  0.2481  0.9207
   98SAPS  C313 9856   6.171   5.912   7.986 -0.3406  0.2173 -0.9893
   98SAPS  H13X 9857   6.203   5.812   8.023 -0.9952  1.8852  5.1802
   98SAPS  H13Y 9858   6.062   5.926   8.002 -0.7006 -3.1309  0.2042
   98SAPS  C314 9859   6.270   6.012   8.051 -0.0065 -0.4771 -0.0098
   98SAPS  H14X 9860   6.236   6.117   8.038  1.8888  0.0615 -0.8992
   98SAPS  H14Y 9861   6.364   6.005   7.991  0.6429 -0.6447  1.0049
   98SAPS  C315 9862   6.272   5.979   8.199 -0.1411  0.1782 -0.1466
   98SAPS  H15X 9863   6.307   5.877   8.225 -0.1769  0.7175  2.2643
   98SAPS  H15Y 9864   6.168   5.985   8.236  0.2392  1.5002  0.7826
   98SAPS  C316 9865   6.360   6.080   8.281 -0.0810 -0.4425  0.1603
   98SAPS  H16X 9866   6.314   6.180   8.264  0.0030  0.0046  2.3196
   98SAPS  H16Y 9867   6.459   6.086   8.231  0.0571  1.9964  0.6006
   98SAPS  C317 9868   6.379   6.070   8.433 -0.1944  0.2151  0.3911
   98SAPS  H17X 9869   6.289   6.105   8.487 -0.1248  0.6349  0.2388
   98SAPS  H17Y 9870   6.453   6.150   8.457 -0.0143  0.2343 -0.2115
   98SAPS  C318 9871   6.432   5.928   8.469  0.6470 -0.0251 -0.2653
   98SAPS  H18X 9872   6.360   5.849   8.438 -1.0150  1.8352 -1.3688
   98SAPS  H18Y 9873   6.456   5.918   8.577  1.3348  0.3467 -0.3711
   98SAPS  H18Z 9874   6.528   5.912   8.415  0.6046 -0.2410 -0.2779
   99SAPS     N 9875   6.599   3.406   6.312 -0.6686 -0.1191  0.5905
   99SAPS   HN1 9876   6.667   3.412   6.390 -1.7574 -1.2564  1.6918
   99SAPS   HN2 9877   6.541   3.492   6.317 -1.1027 -0.2988 -0.8890
   99SAPS   HN3 9878   6.543   3.318   6.318 -1.1930  0.2204  0.7124
   99SAPS   C12 9879   6.677   3.408   6.183  0.1674  0.0162 -0.2857
   99SAPS  H12A 9880   6.749   3.327   6.172  0.0688 -0.2201  0.7011
   99SAPS   C13 9881   6.587   3.395   6.060  0.2266 -0.1923  0.2748
   99SAPS  O13A 9882   6.476   3.332   6.057  0.0865 -0.1148 -0.4519
   99SAPS  O13B 9883   6.642   3.413   5.943 -0.0787 -0.0537 -0.5131
   99SAPS   C11 9884   6.744   3.550   6.170 -0.5629  0.2200 -0.4172
   99SAPS  H11A 9885   6.670   3.632   6.177  1.5630  2.2710 -0.4974
   99SAPS  H11B 9886   6.794   3.550   6.071  1.0069  1.4426  0.3235
   99SAPS     P 9887   6.942   3.693   6.260  0.1361  0.0324 -0.2463
   99SAPS   O13 9888   7.075   3.665   6.320 -0.1777 -0.3158 -0.3521
   99SAPS   O14 9889   6.958   3.727   6.115  0.3861 -0.6341 -0.1592
   99SAPS   O12 9890   6.850   3.565   6.265  0.9451 -0.2231 -0.4490
   99SAPS   O11 9891   6.865   3.803   6.347 -0.0695  0.0904  0.1656
   99SAPS    C1 9892   6.772   3.775   6.454 -0.5103  1.4162  0.5480
   99SAPS    HA 9893   6.671   3.810   6.427 -1.1542 -0.8403 -0.2128
   99SAPS    HB 9894   6.759   3.666   6.471  0.7264  0.9501 -1.2018
   99SAPS    C2 9895   6.807   3.837   6.591  0.6077  0.1675 -0.0181
   99SAPS    HS 9896   6.813   3.947   6.578  2.1459 -0.2232 -3.9673
   99SAPS   O21 9897   6.915   3.777   6.652 -0.1236  0.6926 -0.3853
   99SAPS   C21 9898   7.030   3.838   6.643  0.2836 -0.3662 -0.4830
   99SAPS   O22 9899   7.048   3.938   6.578 -0.0071  0.4203 -0.1590
   99SAPS   C22 9900   7.135   3.768   6.730  0.4342  0.2597 -0.3059
   99SAPS   H2R 9901   7.102   3.662   6.732  1.7388 -0.1598 -0.3501
   99SAPS   H2S 9902   7.234   3.773   6.679  1.9889 -2.3183  2.1674
   99SAPS    C3 9903   6.677   3.798   6.679 -0.0301  0.4192 -1.1285
   99SAPS    HX 9904   6.619   3.712   6.639 -0.0008  0.0762 -0.4354
   99SAPS    HY 9905   6.611   3.887   6.664 -2.0223 -1.1771 -2.3147
   99SAPS   O31 9906   6.702   3.773   6.825  0.7400 -0.0929  0.0807
   99SAPS   C31 9907   6.727   3.645   6.860  0.0710 -0.1489  0.0835
   99SAPS   O32 9908   6.725   3.550   6.784  0.4199 -0.7535 -0.0946
   99SAPS   C32 9909   6.778   3.655   7.004 -0.1576 -0.1818 -0.5502
   99SAPS   H2X 9910   6.736   3.749   7.047  0.4050 -0.1789  0.0122
   99SAPS   H2Y 9911   6.887   3.674   6.993  0.2760 -2.7389 -1.3658
   99SAPS   C23 9912   7.146   3.829   6.866 -0.3492  0.0092  0.0824
   99SAPS   H3R 9913   7.040   3.826   6.900  0.1633 -0.9494  1.6750
   99SAPS   H3S 9914   7.189   3.929   6.843  0.6679 -0.5425 -0.4699
   99SAPS   C24 9915   7.251   3.755   6.965 -0.3298  0.8430  0.6294
   99SAPS   H4R 9916   7.346   3.753   6.906 -0.5489  0.0147  0.2903
   99SAPS   H4S 9917   7.209   3.652   6.965 -2.3379  1.5633 -1.3694
   99SAPS   C25 9918   7.258   3.829   7.096 -0.0493  0.2353 -0.2004
   99SAPS   H5R 9919   7.263   3.939   7.090  0.8034  0.2265  0.1936
   99SAPS   C26 9920   7.250   3.771   7.218  0.6223  0.2940  0.9059
   99SAPS   H6R 9921   7.230   3.835   7.305  0.9828  0.4511  0.8773
   99SAPS   C27 9922   7.245   3.626   7.255 -0.6273  0.2167  0.0837
   99SAPS   H7R 9923   7.307   3.599   7.343 -0.2627 -0.4796 -0.3837
   99SAPS   H7S 9924   7.281   3.564   7.170  0.0399  1.6089 -0.6922
   99SAPS   C28 9925   7.107   3.593   7.300  0.3988  0.0953  0.8577
   99SAPS   H8R 9926   7.056   3.527   7.228  0.3373  1.0505 -0.0095
   99SAPS   C29 9927   7.043   3.631   7.412 -0.4900  0.0303 -0.6302
   99SAPS   H9R 9928   6.942   3.590   7.424 -0.1647 -1.0315 -1.3257
   99SAPS  C210 9929   7.090   3.713   7.526  0.1560 -0.9789 -0.2309
   99SAPS  H10R 9930   7.158   3.796   7.495 -2.9260  1.5382 -0.8569
   99SAPS  H10S 9931   7.149   3.644   7.589  0.7059 -1.4269 -1.2027
   99SAPS  C211 9932   6.980   3.771   7.610 -0.1025  0.7783  0.1081
   99SAPS  H11R 9933   6.940   3.867   7.575  1.0397  1.3507  0.3141
   99SAPS  C212 9934   6.950   3.732   7.735  0.0190 -0.2380  0.1443
   99SAPS  H12R 9935   6.866   3.785   7.784 -1.2008 -1.5415 -0.4619
   99SAPS  C213 9936   7.004   3.623   7.816 -0.7472 -0.0217 -0.2539
   99SAPS  H13R 9937   7.010   3.666   7.918  1.5179  1.2159 -0.8404
   99SAPS  H13S 9938   7.109   3.594   7.791 -0.7291 -1.0957  0.9618
   99SAPS  C214 9939   6.942   3.491   7.825  0.0274  0.0485  0.4820
   99SAPS  H14R 9940   6.918   3.439   7.731  2.0572 -4.0051  1.9831
   99SAPS  C215 9941   6.909   3.419   7.930 -0.9007  0.2812  0.1347
   99SAPS  H15R 9942   6.865   3.321   7.909 -1.3899  1.0931 -3.2277
   99SAPS  C216 9943   6.925   3.461   8.071  1.0205 -0.3227 -0.5192
   99SAPS  H16R 9944   7.004   3.538   8.086 -0.8908  1.6628 -0.3449
   99SAPS  H16S 9945   6.962   3.372   8.128  0.7528  0.0330  0.2199
   99SAPS  C217 9946   6.792   3.522   8.128  0.4746  0.8746 -0.0511
   99SAPS  H17R 9947   6.740   3.587   8.054 -0.8853  0.3861  0.4314
   99SAPS  H17S 9948   6.821   3.570   8.224  1.9677 -0.5951  0.2837
   99SAPS  C218 9949   6.695   3.411   8.164  0.1189 -0.4865 -0.4209
   99SAPS  H18R 9950   6.686   3.346   8.074  0.1806  0.8480 -1.4197
   99SAPS  H18S 9951   6.599   3.457   8.195  0.1367 -0.2802 -0.6694
   99SAPS  C219 9952   6.740   3.336   8.288  0.3181 -0.2046 -0.5784
   99SAPS  H19R 9953   6.798   3.405   8.352  0.4871  0.2813 -1.2395
   99SAPS  H19S 9954   6.816   3.260   8.260  1.8974  0.3873  1.8354
   99SAPS  C220 9955   6.626   3.266   8.356 -0.0516 -0.1517 -0.2875
   99SAPS  H20R 9956   6.572   3.192   8.293 -3.2294  1.5976  0.1518
   99SAPS  H20S 9957   6.557   3.341   8.399  3.0434  1.8531  1.5748
   99SAPS  H20T 9958   6.672   3.212   8.441 -0.1970  1.9485  1.1865
   99SAPS   C33 9959   6.774   3.535   7.096  0.2592 -0.0785 -0.2714
   99SAPS   H3X 9960   6.866   3.473   7.103  0.6543  0.0722 -3.0405
   99SAPS   H3Y 9961   6.693   3.464   7.068 -0.5555  0.4159  0.7740
   99SAPS   C34 9962   6.721   3.575   7.235 -0.0974  0.1931 -0.3594
   99SAPS   H4X 9963   6.623   3.625   7.219 -0.5758 -1.0112 -1.3625
   99SAPS   H4Y 9964   6.790   3.649   7.281 -0.6886  1.1786 -1.0059
   99SAPS   C35 9965   6.701   3.453   7.336 -0.0814  0.0530  0.2324
   99SAPS   H5X 9966   6.801   3.409   7.354  0.6295  1.3470 -0.4419
   99SAPS   H5Y 9967   6.630   3.380   7.292 -2.6233  2.5985 -0.1799
   99SAPS   C36 9968   6.635   3.509   7.467  0.1730  0.4993  0.5308
   99SAPS   H6X 9969   6.538   3.556   7.438 -0.7196 -1.0638  0.8952
   99SAPS   H6Y 9970   6.700   3.582   7.520  0.3255  0.5655  0.2515
   99SAPS   C37 9971   6.632   3.394   7.566  0.1522  0.3029 -0.2607
   99SAPS   H7X 9972   6.736   3.355   7.558  0.4274  0.8287  0.5670
   99SAPS   H7Y 9973   6.563   3.312   7.538  0.3874 -2.3089  5.4345
   99SAPS   C38 9974   6.593   3.437   7.706  0.7375  0.0925  0.3907
   99SAPS   H8X 9975   6.671   3.499   7.754 -1.1069  1.9247  1.2013
   99SAPS   H8Y 9976   6.577   3.342   7.761 -0.9183  0.1067 -0.0184
   99SAPS   C39 9977   6.464   3.505   7.694  0.3357  0.2651 -0.0730
   99SAPS   H9X 9978   6.393   3.450   7.629  0.8603 -0.2102 -0.2531
   99SAPS   H9Y 9979   6.472   3.612   7.665 -0.2570 -0.2230 -2.2337
   99SAPS  C310 9980   6.394   3.521   7.833  0.7964 -0.0497 -0.1952
   99SAPS  H10X 9981   6.377   3.419   7.875 -0.4087 -1.1035 -2.9724
   99SAPS  H10Y 9982   6.296   3.570   7.816  1.5630  0.7590 -2.8667
   99SAPS  C311 9983   6.473   3.606   7.936  0.3963  0.4556 -0.6114
   99SAPS  H11X 9984   6.486   3.707   7.892 -0.1361 -0.5187 -3.1704
   99SAPS  H11Y 9985   6.569   3.550   7.945  0.6872  1.3367  3.5410
   99SAPS  C312 9986   6.396   3.612   8.068  0.0914  0.1555  0.0800
   99SAPS  H12X 9987   6.392   3.514   8.119  0.7835  1.0784  2.0258
   99SAPS  H12Y 9988   6.292   3.650   8.065 -0.5807 -1.3596  2.1106
   99SAPS  C313 9989   6.465   3.703   8.168  0.2398  0.3424 -0.6093
   99SAPS  H13X 9990   6.487   3.806   8.135  0.7639  1.2648  2.2743
   99SAPS  H13Y 9991   6.568   3.663   8.187 -0.1456  0.0096  0.9813
   99SAPS  C314 9992   6.393   3.688   8.299 -0.0327  0.3659 -1.1673
   99SAPS  H14X 9993   6.379   3.579   8.311  0.1997  0.1525 -2.6162
   99SAPS  H14Y 9994   6.298   3.743   8.313 -0.0432  0.0584  0.1411
   99SAPS  C315 9995   6.489   3.729   8.419 -0.3444 -0.2440  0.2413
   99SAPS  H15X 9996   6.499   3.839   8.405  0.8759 -0.4234 -0.4487
   99SAPS  H15Y 9997   6.584   3.674   8.403 -1.4626 -1.3395 -3.6226
   99SAPS  C316 9998   6.429   3.725   8.560  0.2132 -0.0394  0.4304
   99SAPS  H16X 9999   6.326   3.760   8.537 -0.0779 -1.1569 -0.0194
   99SAPS  H16Y10000   6.498   3.791   8.617  1.3874 -0.5146 -0.4119
   99SAPS  C31710001   6.428   3.587   8.632 -0.0338  0.2948  0.1567
   99SAPS  H17X10002   6.532   3.555   8.656  0.0280  1.5359  1.7517
   99SAPS  H17Y10003   6.376   3.512   8.569 -0.0035  0.3503  0.0660
   99SAPS  C31810004   6.349   3.587   8.763  0.1564  0.6325  0.4225
   99SAPS  H18X10005   6.421   3.615   8.843  0.0240  1.0712  0.3882
   99SAPS  H18Y10006   6.311   3.485   8.786  1.7233 -0.2040 -0.5284
   99SAPS  H18Z10007   6.274   3.669   8.767 -0.1925  0.3927 -0.8532
  100SAPS     N10008   2.762   4.342   5.875  0.2885 -0.4420  0.2653
  100SAPS   HN110009   2.853   4.392   5.863  0.1656  0.0126  1.1347
  100SAPS   HN210010   2.707   4.363   5.790  0.2705  0.4215  0.4761
  100SAPS   HN310011   2.724   4.386   5.962 -3.0187 -0.0008 -1.2479
  100SAPS   C1210012   2.803   4.199   5.883  0.1177 -0.2125  0.4320
  100SAPS  H12A10013   2.719   4.145   5.926 -0.7232  1.0132  0.3785
  100SAPS   C1310014   2.847   4.122   5.756 -0.8158  0.2213 -0.2713
  100SAPS  O13A10015   2.856   4.182   5.650 -0.0537 -0.4606  0.0351
  100SAPS  O13B10016   2.883   4.003   5.763  0.0725  0.1191 -0.4543
  100SAPS   C1110017   2.912   4.193   5.997 -0.2319 -0.2635 -0.0637
  100SAPS  H11A10018   3.002   4.235   5.948  0.5112 -0.7367  0.8532
  100SAPS  H11B10019   2.940   4.086   6.010 -1.4950 -0.7794 -1.3226
  100SAPS     P10020   2.974   4.252   6.240  0.3671 -0.9890  0.2096
  100SAPS   O1310021   2.979   4.112   6.292  0.0303 -0.1613 -0.3477
  100SAPS   O1410022   3.101   4.310   6.197 -0.0434 -0.4219  0.9546
  100SAPS   O1210023   2.873   4.254   6.118 -0.7641 -0.3001  0.4623
  100SAPS   O1110024   2.902   4.357   6.337 -0.5062 -0.6420  0.2291
  100SAPS    C110025   2.771   4.336   6.398  0.9367 -0.5924  0.8523
  100SAPS    HA10026   2.707   4.406   6.340  0.5829 -2.4630 -1.1276
  100SAPS    HB10027   2.732   4.232   6.389  1.0899 -0.7610  2.0138
  100SAPS    C210028   2.768   4.363   6.550 -0.5421 -0.0616 -0.4832
  100SAPS    HS10029   2.782   4.473   6.559 -2.9139  0.0788  4.4365
  100SAPS   O2110030   2.878   4.286   6.607  0.0689 -0.5364 -0.5389
  100SAPS   C2110031   2.995   4.356   6.599 -0.1611 -0.6318  0.0233
  100SAPS   O2210032   3.018   4.465   6.557 -0.5067  0.2655  0.5623
  100SAPS   C2210033   3.106   4.271   6.679  0.5996 -0.0053 -0.2437
  100SAPS   H2R10034   3.060   4.217   6.765 -0.8881  0.7000 -0.5616
  100SAPS   H2S10035   3.143   4.191   6.612 -0.9990 -1.6157  0.6972
  100SAPS    C310036   2.635   4.321   6.614  0.7336 -0.1061  0.0783
  100SAPS    HX10037   2.595   4.227   6.569 -0.7822 -1.1622  3.2910
  100SAPS    HY10038   2.557   4.398   6.594 -0.4993 -1.3497 -0.0762
  100SAPS   O3110039   2.645   4.287   6.751  0.1249  0.2537 -0.1629
  100SAPS   C3110040   2.531   4.251   6.810  0.6421 -0.0648  0.3320
  100SAPS   O3210041   2.429   4.212   6.753 -0.0980 -0.3725  0.1376
  100SAPS   C3210042   2.530   4.271   6.957  0.0726  0.6299  0.2237
  100SAPS   H2X10043   2.586   4.365   6.977 -0.1496  0.5226  1.4322
  100SAPS   H2Y10044   2.580   4.193   7.018 -0.7750  0.3325  0.5501
  100SAPS   C2310045   3.220   4.358   6.739  0.3344 -0.9893  0.3182
  100SAPS   H3R10046   3.271   4.411   6.656  1.7407 -2.2931  0.3052
  100SAPS   H3S10047   3.300   4.293   6.781 -0.0763 -3.8998 -2.9745
  100SAPS   C2410048   3.174   4.458   6.851 -0.1603 -1.0014 -0.0165
  100SAPS   H4R10049   3.085   4.508   6.807 -0.3945 -1.8144 -0.4831
  100SAPS   H4S10050   3.248   4.541   6.858 -2.1392  0.7259  1.6532
  100SAPS   C2510051   3.134   4.401   6.984  0.2054  0.3409  0.1315
  100SAPS   H5R10052   3.207   4.323   7.010 -0.6831 -1.3278 -1.9943
  100SAPS   C2610053   3.029   4.423   7.060 -0.5728 -0.0640 -0.9355
  100SAPS   H6R10054   3.013   4.360   7.148 -0.3143 -1.3125 -1.7630
  100SAPS   C2710055   2.916   4.523   7.042  0.1431  0.0113  0.3437
  100SAPS   H7R10056   2.969   4.620   7.054  3.4936 -1.4928 -1.0396
  100SAPS   H7S10057   2.847   4.529   7.129 -0.1354  1.3665  0.0399
  100SAPS   C2810058   2.847   4.526   6.905  0.4300 -0.1527  0.6904
  100SAPS   H8R10059   2.831   4.439   6.839  0.3472  0.7022 -0.4584
  100SAPS   C2910060   2.792   4.641   6.855  0.7304 -0.2747 -0.8718
  100SAPS   H9R10061   2.747   4.639   6.754  0.4902  0.1671 -0.7764
  100SAPS  C21010062   2.794   4.778   6.919  0.0708  0.2126 -0.1223
  100SAPS  H10R10063   2.896   4.817   6.903  0.4612 -0.6895  0.1094
  100SAPS  H10S10064   2.797   4.775   7.030 -0.8793 -2.1618 -0.0994
  100SAPS  C21110065   2.690   4.871   6.866  0.3498 -0.4054 -0.9838
  100SAPS  H11R10066   2.706   4.891   6.759  2.2861  1.3231 -0.4367
  100SAPS  C21210067   2.603   4.948   6.936 -0.2187 -1.0511 -0.1930
  100SAPS  H12R10068   2.536   5.013   6.878  4.0071  2.7303 -1.3668
  100SAPS  C21310069   2.587   4.951   7.084 -0.2176  0.4169 -0.3429
  100SAPS  H13R10070   2.663   4.885   7.132  0.7935  0.8590 -1.2996
  100SAPS  H13S10071   2.487   4.908   7.110 -1.1290  1.8918 -1.2828
  100SAPS  C21410072   2.609   5.086   7.139 -0.7304 -0.4884  0.0525
  100SAPS  H14R10073   2.714   5.116   7.125 -0.9064 -0.1406 -0.5363
  100SAPS  C21510074   2.533   5.161   7.224 -0.0044  1.0172  0.1570
  100SAPS  H15R10075   2.581   5.255   7.256  3.3866  0.2463 -2.0934
  100SAPS  C21610076   2.399   5.127   7.286 -0.3333  0.3856 -0.0373
  100SAPS  H16R10077   2.343   5.068   7.211 -0.7415  1.7354 -0.8434
  100SAPS  H16S10078   2.351   5.227   7.290 -1.1454 -0.0121  0.1744
  100SAPS  C21710079   2.426   5.065   7.427 -0.0616  0.3434  0.3900
  100SAPS  H17R10080   2.489   4.974   7.419 -0.2375  0.3164 -0.9529
  100SAPS  H17S10081   2.322   5.034   7.448 -0.0466 -1.0908 -1.4113
  100SAPS  C21810082   2.473   5.165   7.536 -0.0451 -0.4880 -0.1258
  100SAPS  H18R10083   2.390   5.238   7.549 -1.3496 -1.7876 -0.9597
  100SAPS  H18S10084   2.569   5.212   7.503 -0.0563  1.9108  2.8171
  100SAPS  C21910085   2.492   5.109   7.685 -0.3715 -0.5936  0.3979
  100SAPS  H19R10086   2.539   5.192   7.742 -1.3348  0.6024 -0.4987
  100SAPS  H19S10087   2.561   5.023   7.670  1.1223  0.6079  0.2533
  100SAPS  C22010088   2.354   5.063   7.737  0.1841  0.0419  0.1995
  100SAPS  H20R10089   2.334   4.971   7.677  1.4478  0.7501 -1.4023
  100SAPS  H20S10090   2.272   5.132   7.708  0.6398  0.1669 -0.8759
  100SAPS  H20T10091   2.353   5.039   7.845  0.0915  0.8137  0.3794
  100SAPS   C3310092   2.383   4.297   7.012 -0.0614  0.0224 -0.1353
  100SAPS   H3X10093   2.329   4.203   6.989  0.4644 -0.7127  1.4535
  100SAPS   H3Y10094   2.339   4.377   6.949 -2.1988  0.7812  2.1791
  100SAPS   C3410095   2.372   4.343   7.162  0.2083  0.6767  0.5097
  100SAPS   H4X10096   2.419   4.278   7.239  3.1383 -0.2137 -1.8495
  100SAPS   H4Y10097   2.262   4.351   7.179  0.3231  3.5885  0.3671
  100SAPS   C3510098   2.448   4.474   7.185 -0.6483 -0.1279 -0.0987
  100SAPS   H5X10099   2.374   4.541   7.234 -0.1338 -0.1898  0.7705
  100SAPS   H5Y10100   2.468   4.539   7.097  0.1151  0.5932  0.5939
  100SAPS   C3610101   2.577   4.471   7.268  0.0527 -0.0540  0.1734
  100SAPS   H6X10102   2.655   4.416   7.211  0.3706 -1.1263  1.5863
  100SAPS   H6Y10103   2.555   4.423   7.366 -0.1743  1.5591  0.9453
  100SAPS   C3710104   2.621   4.622   7.276  0.6959  0.0720 -0.1436
  100SAPS   H7X10105   2.530   4.682   7.295 -1.6629 -2.6098 -2.0541
  100SAPS   H7Y10106   2.656   4.647   7.174  3.4310 -1.0530  0.4423
  100SAPS   C3810107   2.724   4.655   7.382  0.1674 -0.0947  0.1555
  100SAPS   H8X10108   2.821   4.602   7.369  0.5675 -0.3131  3.1814
  100SAPS   H8Y10109   2.692   4.628   7.485 -1.3365 -0.7744 -0.4626
  100SAPS   C3910110   2.758   4.806   7.381 -0.0301  0.0062  0.6000
  100SAPS   H9X10111   2.667   4.869   7.374  0.8244  1.0922 -1.6847
  100SAPS   H9Y10112   2.822   4.835   7.294 -0.0398  0.2836  0.6856
  100SAPS  C31010113   2.836   4.864   7.506  0.3013  0.2335 -0.8402
  100SAPS  H10X10114   2.846   4.974   7.493 -1.3518  0.4339 -0.6266
  100SAPS  H10Y10115   2.939   4.823   7.508  0.4662  0.6717  0.0136
  100SAPS  C31110116   2.773   4.821   7.637  0.4130  0.3575 -0.3908
  100SAPS  H11X10117   2.782   4.713   7.662 -3.6781 -0.1550 -0.4432
  100SAPS  H11Y10118   2.664   4.835   7.624  0.6741  1.5196 -1.5855
  100SAPS  C31210119   2.828   4.907   7.749 -0.0061  0.6841 -0.0873
  100SAPS  H12X10120   2.800   5.012   7.727 -1.4506  1.1277  3.2929
  100SAPS  H12Y10121   2.938   4.891   7.756 -0.0589 -0.5575 -1.6015
  100SAPS  C31310122   2.766   4.877   7.885  0.1394  0.0436 -0.8076
  100SAPS  H13X10123   2.790   4.775   7.922 -0.0858  0.2921  0.0275
  100SAPS  H13Y10124   2.655   4.875   7.883 -0.0411 -1.9501  2.8017
  100SAPS  C31410125   2.806   4.997   7.984  0.2535  0.6365  0.2161
  100SAPS  H14X10126   2.763   5.088   7.936 -1.9075  0.0463  0.9213
  100SAPS  H14Y10127   2.915   5.000   8.002  0.3989 -0.2486 -0.4054
  100SAPS  C31510128   2.738   4.982   8.124  0.3435 -0.6138  0.2577
  100SAPS  H15X10129   2.774   4.884   8.163 -0.2473 -0.3404  1.5684
  100SAPS  H15Y10130   2.628   4.983   8.112  0.4448  2.3722 -1.1322
  100SAPS  C31610131   2.780   5.088   8.220 -0.6811  0.2498  0.7809
  100SAPS  H16X10132   2.768   5.189   8.177  0.2319 -0.6881 -1.9481
  100SAPS  H16Y10133   2.890   5.083   8.234 -0.7547 -1.5813  1.0002
  100SAPS  C31710134   2.720   5.065   8.356  0.0660 -0.1159 -0.5036
  100SAPS  H17X10135   2.746   4.958   8.370  2.5110  0.3906 -0.6729
  100SAPS  H17Y10136   2.612   5.091   8.358  0.2006  0.4784 -0.5219
  100SAPS  C31810137   2.791   5.151   8.457  0.2387  0.1598 -0.8439
  100SAPS  H18X10138   2.894   5.113   8.473  0.0357  0.4518  1.5196
  100SAPS  H18Y10139   2.746   5.130   8.557 -1.2534  2.0287 -1.0555
  100SAPS  H18Z10140   2.787   5.259   8.428 -1.4727 -0.4858 -3.2879
  101OSM      N10141   1.352   4.101  11.116  0.1439 -0.8165  0.4329
  101OSM    C1510142   1.372   4.119  10.972 -0.1308  0.8328  0.5681
  101OSM   H15A10143   1.451   4.191  10.960  0.5504  0.0888  0.4914
  101OSM   H15B10144   1.289   4.153  10.912  0.5612  0.5836 -0.5609
  101OSM   H15C10145   1.404   4.024  10.932 -4.3191  0.7600 -3.4303
  101OSM    C1410146   1.266   3.978  11.148 -0.5364 -0.6517  1.1530
  101OSM   H14A10147   1.225   3.990  11.247 -0.1148 -1.0542  1.3828
  101OSM   H14B10148   1.320   3.885  11.133 -0.9207 -0.3872 -2.7278
  101OSM   H14C10149   1.184   3.973  11.079  1.2498 -2.1483 -0.9993
  101OSM    C1310150   1.486   4.081  11.184  0.3691  0.2441 -0.4389
  101OSM   H13A10151   1.527   4.179  11.203  1.1738  0.5194 -3.2256
  101OSM   H13B10152   1.549   4.009  11.134 -1.7870 -0.1237 -2.8276
  101OSM   H13C10153   1.460   4.038  11.280  0.7318 -1.0944 -0.9076
  101OSM    C1210154   1.289   4.221  11.164  0.1649 -0.2903 -0.6181
  101OSM   H12A10155   1.355   4.305  11.152  1.3441 -1.0307  0.3948
  101OSM   H12B10156   1.262   4.211  11.268  1.2875  0.5239 -0.2294
  101OSM    C1110157   1.149   4.259  11.111  0.3028 -0.0095  1.1099
  101OSM   H11A10158   1.100   4.333  11.177  0.8549  0.6158  0.8335
  101OSM   H11B10159   1.086   4.168  11.119  0.4744 -0.1107  1.3380
  101OSM      P10160   1.217   4.458  10.952  0.1855  0.1458 -0.4492
  101OSM    O1310161   1.122   4.561  10.997 -0.0273 -0.6777  0.0530
  101OSM    O1410162   1.352   4.462  11.013  0.1874  0.4085 -0.3861
  101OSM    O1110163   1.247   4.466  10.799  0.2003  0.1847 -0.0814
  101OSM    O1210164   1.160   4.312  10.976  0.1844  0.3675 -0.0630
  101OSM    C1S10165   1.161   4.396  10.705  0.0308  0.3003 -1.2543
  101OSM    H1S10166   1.054   4.418  10.726 -0.1603 -0.7677 -1.0223
  101OSM    H1T10167   1.168   4.286  10.717 -0.5537  0.4197  0.4503
  101OSM     NF10168   1.130   4.337  10.471 -0.6813  0.4056 -0.4688
  101OSM    HNF10169   1.166   4.252  10.433 -0.4407  0.7706 -1.0835
  101OSM    C2S10170   1.215   4.417  10.562 -0.9963  0.2905 -0.6626
  101OSM    H2S10171   1.199   4.525  10.538  0.0548  0.7419  0.5384
  101OSM    C3S10172   1.367   4.389  10.546  0.1394  0.6178 -0.0846
  101OSM    H3S10173   1.384   4.282  10.574 -1.0655  0.3022 -0.5181
  101OSM     O310174   1.454   4.462  10.632  0.0952  0.0516  0.5053
  101OSM    HO310175   1.395   4.482  10.705 -0.9252  1.4465 -0.6290
  101OSM    C4S10176   1.401   4.410  10.400 -0.0105 -0.2377 -0.1273
  101OSM    H4S10177   1.397   4.317  10.343 -0.2083 -0.8228  0.8164
  101OSM    C5S10178   1.423   4.520  10.340 -0.5817 -0.4850 -0.3717
  101OSM    H5S10179   1.435   4.609  10.403  2.3600 -2.8380  2.7748
  101OSM    C6S10180   1.450   4.537  10.191 -0.4083 -0.1931 -0.5102
  101OSM    H6S10181   1.508   4.457  10.141 -0.8642  0.9674 -3.0744
  101OSM    H6T10182   1.517   4.625  10.183 -1.3236  0.4732 -1.0789
  101OSM    C7S10183   1.326   4.570  10.114  0.0550  0.4874 -0.1408
  101OSM    H7S10184   1.354   4.615  10.016  1.8436  1.1806  0.6460
  101OSM    H7T10185   1.256   4.643  10.161 -3.3763 -3.2407  1.0849
  101OSM    C8S10186   1.239   4.450  10.074 -0.3785  0.3504  0.0664
  101OSM    H8S10187   1.142   4.490  10.039 -0.4217 -0.7322 -1.1168
  101OSM    H8T10188   1.210   4.403  10.170  0.6291  1.3108  0.8710
  101OSM    C9S10189   1.301   4.355   9.970 -0.1395  0.2557 -0.6073
  101OSM    H9S10190   1.402   4.315   9.991 -0.3682  0.5660  1.2098
  101OSM    H9T10191   1.309   4.425   9.884 -3.3306 -0.0091 -1.2543
  101OSM   C10S10192   1.205   4.242   9.945 -0.1491  0.1795 -0.6118
  101OSM   H10S10193   1.105   4.289   9.934 -1.1621 -2.0124 -1.3052
  101OSM   H10T10194   1.205   4.178  10.036 -3.7153 -0.2123 -0.7734
  101OSM   C11S10195   1.229   4.154   9.823  0.4369  0.2006  0.8427
  101OSM   H11S10196   1.149   4.076   9.820  1.3720 -0.7536  0.0568
  101OSM   H11T10197   1.316   4.086   9.827  0.0136 -0.3920  0.3748
  101OSM   C12S10198   1.236   4.223   9.683 -0.4201 -0.0609 -0.2013
  101OSM   H12S10199   1.324   4.288   9.665 -1.1291  0.6836 -1.0799
  101OSM   H12T10200   1.153   4.297   9.677 -1.0825 -0.7007  0.6515
  101OSM   C13S10201   1.223   4.128   9.566 -0.0016 -0.4098  0.2404
  101OSM   H13S10202   1.121   4.089   9.543 -0.1080  0.7924 -1.5614
  101OSM   H13T10203   1.286   4.037   9.576 -1.2867 -1.6466 -1.9803
  101OSM   C14S10204   1.276   4.190   9.430  0.5430  0.0298 -0.0583
  101OSM   H14S10205   1.385   4.209   9.443  0.3472  1.1146  0.0214
  101OSM   H14T10206   1.226   4.287   9.413  1.0506  0.4023  0.5758
  101OSM   C15S10207   1.247   4.091   9.315 -0.3760 -0.0229  0.6256
  101OSM   H15S10208   1.139   4.081   9.290 -0.9206 -1.2992  3.1467
  101OSM   H15T10209   1.285   3.997   9.359  0.1910  0.4113  1.0787
  101OSM   C16S10210   1.322   4.135   9.190  0.5512  0.4842  0.1949
  101OSM   H16S10211   1.432   4.120   9.185  0.5859  1.0073 -2.8515
  101OSM   H16T10212   1.307   4.244   9.175 -3.6942 -0.0823 -0.8979
  101OSM   C17S10213   1.270   4.053   9.072 -0.1351 -0.0942 -0.3872
  101OSM   H17S10214   1.161   4.075   9.070 -0.5410 -1.3327  2.6678
  101OSM   H17T10215   1.283   3.944   9.089  1.2840  0.2274  0.8829
  101OSM   C18S10216   1.343   4.092   8.943  0.2180  0.1564  0.7079
  101OSM   H18S10217   1.452   4.072   8.943  0.5513  1.3810 -2.7155
  101OSM   H18T10218   1.335   4.202   8.930  1.2279  0.1261 -0.3422
  101OSM   H18U10219   1.294   4.033   8.864 -0.3487  1.2570  0.2092
  101OSM    C1F10220   1.000   4.350  10.453 -0.5161  0.7381 -0.4320
  101OSM     OF10221   0.953   4.447  10.516 -0.2522  0.5123 -0.5340
  101OSM    C2F10222   0.920   4.247  10.374 -0.0627 -0.2991 -0.0422
  101OSM    H2F10223   0.865   4.183  10.446 -1.4683 -0.4507 -1.1912
  101OSM    H2G10224   0.990   4.188  10.311 -1.4207 -0.1524 -1.7735
  101OSM    C3F10225   0.826   4.314  10.274 -0.1554  0.0931  0.6618
  101OSM    H3F10226   0.750   4.385  10.314 -0.6228  1.4943 -2.3954
  101OSM    H3G10227   0.766   4.232  10.231  0.8646 -1.3227  1.8567
  101OSM    C4F10228   0.899   4.372  10.148  0.4540 -0.3540 -0.0420
  101OSM    H4F10229   0.920   4.279  10.091 -0.9653  0.5601 -2.1447
  101OSM    H4G10230   0.999   4.412  10.173 -0.2366  1.7956 -0.5418
  101OSM    C5F10231   0.820   4.463  10.058  0.0564 -0.5875 -0.2812
  101OSM    H5F10232   0.893   4.512   9.991  1.5624 -0.0934  1.6503
  101OSM    H5G10233   0.771   4.535  10.127  0.1941  0.6474 -1.4414
  101OSM    C6F10234   0.702   4.394   9.983  0.1973 -0.0746  0.4283
  101OSM    H6F10235   0.624   4.367  10.057 -1.7397  2.5291 -0.4996
  101OSM    H6G10236   0.740   4.295   9.950 -0.5229 -0.0971 -0.3574
  101OSM    C7F10237   0.640   4.479   9.866 -0.1228  0.5974 -0.0938
  101OSM    H7F10238   0.627   4.583   9.905  0.8507  0.9522 -0.6701
  101OSM    H7G10239   0.534   4.452   9.851 -0.1536  0.5919  0.1287
  101OSM    C8F10240   0.718   4.486   9.736 -0.1329  0.4025  0.5837
  101OSM    H8F10241   0.822   4.522   9.747 -0.2189  0.6364  0.6311
  101OSM    H8G10242   0.670   4.563   9.672 -0.9515  1.8118  2.7808
  101OSM    C9F10243   0.724   4.341   9.687 -0.1148 -0.0215  0.5410
  101OSM    H9F10244   0.780   4.273   9.753 -1.3309 -1.4167  0.1903
  101OSM   C10F10245   0.675   4.301   9.572 -0.3329  0.7428  0.3648
  101OSM   H10F10246   0.693   4.197   9.539  3.4471  0.9035  1.5311
  101OSM   C11F10247   0.589   4.375   9.473 -0.3092  0.5293 -0.5818
  101OSM   H11F10248   0.608   4.484   9.472  1.4420  0.2554 -0.9067
  101OSM   H11G10249   0.481   4.352   9.482  0.1294 -1.3082  0.6918
  101OSM   C12F10250   0.634   4.328   9.330  0.2982 -0.0619  0.4818
  101OSM   H12F10251   0.572   4.397   9.269  0.6403  0.0168  0.2219
  101OSM   H12G10252   0.600   4.224   9.314 -0.9432 -0.2377  3.5396
  101OSM   C13F10253   0.781   4.351   9.291  0.0237  0.1210  0.4598
  101OSM   H13F10254   0.844   4.260   9.295 -0.0810  0.0583  0.7711
  101OSM   H13G10255   0.816   4.423   9.367 -0.2038 -0.0561  0.7367
  101OSM   C14F10256   0.805   4.426   9.151  0.2135 -0.3044  0.1519
  101OSM   H14F10257   0.909   4.462   9.165  0.1946  0.2123 -1.0013
  101OSM   H14G10258   0.744   4.519   9.148  1.4662  0.5448  0.3753
  101OSM   C15F10259   0.797   4.322   9.045 -0.3556 -0.4688  0.2850
  101OSM   H15F10260   0.691   4.289   9.044 -1.3566  2.3371  1.5165
  101OSM   H15G10261   0.870   4.241   9.064  1.4599  1.2553  1.0453
  101OSM   C16F10262   0.822   4.394   8.908  0.5018 -0.3679  0.1105
  101OSM   H16F10263   0.924   4.436   8.909  0.6168 -0.6412  0.0433
  101OSM   H16G10264   0.747   4.476   8.908 -2.6534 -3.0060  0.6528
  101OSM   C17F10265   0.804   4.297   8.795 -0.5454  0.0682 -0.2108
  101OSM   H17F10266   0.721   4.225   8.816  0.6162 -1.3708 -0.3787
  101OSM   H17G10267   0.898   4.241   8.780  0.2539  0.5908  2.3803
  101OSM   C18F10268   0.773   4.361   8.664 -0.5141 -0.0231  0.2950
  101OSM   H18F10269   0.680   4.421   8.669 -0.7421 -0.4781  2.5826
  101OSM   H18G10270   0.769   4.288   8.580 -1.5345  0.6397 -0.2576
  101OSM   H18H10271   0.838   4.448   8.645 -0.8717  0.6715  2.0555
  102OSM      N10272   0.425   4.607  10.989  0.1440 -0.2491  0.4326
  102OSM    C1510273   0.344   4.494  11.057 -0.1576  0.3520  0.2400
  102OSM   H15A10274   0.375   4.397  11.020  1.5528  1.6856 -2.1520
  102OSM   H15B10275   0.240   4.510  11.034  0.1729  0.2266 -1.5559
  102OSM   H15C10276   0.358   4.497  11.164 -0.6759 -0.3520  0.3300
  102OSM    C1410277   0.417   4.587  10.842  0.3365 -0.3895  0.5751
  102OSM   H14A10278   0.323   4.626  10.807  1.5752  1.5890 -0.7203
  102OSM   H14B10279   0.416   4.482  10.816 -1.8944 -0.4182  0.6210
  102OSM   H14C10280   0.499   4.639  10.796  0.9195 -1.0775  0.8183
  102OSM    C1310281   0.358   4.741  11.016 -0.1606 -0.0833 -0.4392
  102OSM   H13A10282   0.407   4.823  10.966 -0.5969  2.8378  3.5114
  102OSM   H13B10283   0.358   4.772  11.119  0.5940  0.6460 -0.6475
  102OSM   H13C10284   0.255   4.741  10.982 -0.1054 -0.5393 -0.6275
  102OSM    C1210285   0.568   4.603  11.036 -0.3845 -0.3126 -0.8013
  102OSM   H12A10286   0.589   4.497  11.038  0.0593 -0.2495  1.6688
  102OSM   H12B10287   0.567   4.623  11.142  1.1037 -2.0328 -0.4181
  102OSM    C1110288   0.686   4.690  10.975  0.6386  0.4308 -0.3070
  102OSM   H11A10289   0.695   4.662  10.868  1.0957  0.5292 -0.2948
  102OSM   H11B10290   0.776   4.644  11.019 -0.0430 -1.5244 -0.8470
  102OSM      P10291   0.734   4.943  10.931 -0.2150 -0.4485 -0.0202
  102OSM    O1310292   0.681   5.077  10.969  0.4826 -0.3667 -0.2124
  102OSM    O1410293   0.880   4.925  10.928  0.0393 -0.1928 -0.0706
  102OSM    O1110294   0.685   4.920  10.790 -0.4899 -1.4459 -0.2235
  102OSM    O1210295   0.663   4.824  11.014 -0.3937  0.3525 -0.1647
  102OSM    C1S10296   0.557   4.969  10.740 -0.2267 -0.2301 -0.5386
  102OSM    H1S10297   0.550   5.080  10.741  0.6472 -0.1677 -0.3367
  102OSM    H1T10298   0.476   4.930  10.805  0.2259  0.0767  0.2287
  102OSM     NF10299   0.383   4.943  10.571  0.4866 -0.6885 -0.0534
  102OSM    HNF10300   0.331   4.860  10.550  0.9677 -0.8028 -0.8303
  102OSM    C2S10301   0.529   4.932  10.590 -0.2581 -0.8213  0.2881
  102OSM    H2S10302   0.581   5.004  10.523  0.7332 -1.4199  0.3829
  102OSM    C3S10303   0.585   4.786  10.553 -0.0290 -0.4006 -0.6351
  102OSM    H3S10304   0.545   4.706  10.619 -2.4314 -0.0854 -1.6210
  102OSM     O310305   0.727   4.770  10.576  0.1248  0.4107 -0.5563
  102OSM    HO310306   0.742   4.832  10.648 -2.5107 -0.1699  0.6355
  102OSM    C4S10307   0.570   4.748  10.414 -0.5647 -0.6859 -0.2737
  102OSM    H4S10308   0.632   4.803  10.342 -0.1234  1.0165  1.3516
  102OSM    C5S10309   0.481   4.662  10.368  0.2073  0.0982  0.1307
  102OSM    H5S10310   0.393   4.626  10.423 -0.7474  0.3561 -1.1715
  102OSM    C6S10311   0.476   4.621  10.223  0.5840 -0.5788  0.2702
  102OSM    H6S10312   0.470   4.510  10.222 -1.2313 -0.5063 -0.4758
  102OSM    H6T10313   0.560   4.660  10.162 -0.6233  2.5275  0.3987
  102OSM    C7S10314   0.348   4.684  10.168 -0.7875 -0.4455 -0.3897
  102OSM    H7S10315   0.360   4.794  10.177  2.2791 -0.6938 -0.4038
  102OSM    H7T10316   0.257   4.654  10.225  0.0448 -1.9606  0.1846
  102OSM    C8S10317   0.324   4.652  10.019  0.3541 -0.1311  0.6278
  102OSM    H8S10318   0.321   4.541  10.010 -0.4538 -0.1780  1.3037
  102OSM    H8T10319   0.417   4.694   9.975 -0.7372  2.1816  0.4171
  102OSM    C9S10320   0.206   4.727   9.960  0.3614 -0.8107 -0.7270
  102OSM    H9S10321   0.215   4.837   9.975  2.7234 -1.1533  0.9417
  102OSM    H9T10322   0.107   4.709  10.006  1.0514 -0.4321  0.9945
  102OSM   C10S10323   0.196   4.718   9.807 -0.2783 -0.7422 -0.0800
  102OSM   H10S10324   0.299   4.737   9.770  0.7188  0.2873  2.9611
  102OSM   H10T10325   0.137   4.806   9.771  0.1620 -0.4544 -0.1086
  102OSM   C11S10326   0.140   4.586   9.752 -0.7420 -0.2080  0.1356
  102OSM   H11S10327   0.051   4.554   9.811  0.6302 -2.8877  0.8887
  102OSM   H11T10328   0.218   4.509   9.770 -1.0667 -0.9504 -1.5160
  102OSM   C12S10329   0.088   4.603   9.611 -0.0763  0.1893 -0.2115
  102OSM   H12S10330   0.029   4.697   9.603  1.1403  0.8704 -1.4999
  102OSM   H12T10331   0.018   4.517   9.599 -2.9207  2.3149  0.0977
  102OSM   C13S10332   0.188   4.603   9.498  0.7150  0.7755 -0.9737
  102OSM   H13S10333   0.253   4.515   9.519  0.1898  0.3960 -0.9473
  102OSM   H13T10334   0.249   4.696   9.489  1.2544  0.5887  0.3929
  102OSM   C14S10335   0.130   4.570   9.365 -0.1796 -0.5254 -0.0756
  102OSM   H14S10336   0.100   4.672   9.334  1.0134 -0.2779 -0.4632
  102OSM   H14T10337   0.047   4.496   9.376  1.4177 -2.1892  1.4309
  102OSM   C15S10338   0.236   4.518   9.270  0.3442  0.4602  0.0981
  102OSM   H15S10339   0.261   4.414   9.300  1.1184  1.1994  2.1604
  102OSM   H15T10340   0.332   4.573   9.278  0.7378 -0.2690  0.5100
  102OSM   C16S10341   0.179   4.516   9.128 -0.3178  0.5918  0.0115
  102OSM   H16S10342   0.147   4.614   9.088 -1.0955  0.1175 -0.5684
  102OSM   H16T10343   0.089   4.451   9.121 -0.9758  1.2378  1.8390
  102OSM   C17S10344   0.278   4.437   9.038 -0.5824  0.1921  0.3551
  102OSM   H17S10345   0.295   4.334   9.076  0.0301 -0.2907 -1.1636
  102OSM   H17T10346   0.380   4.480   9.041 -0.0489 -0.7194 -2.2832
  102OSM   C18S10347   0.237   4.431   8.892  0.4459  0.2529  0.3392
  102OSM   H18S10348   0.276   4.342   8.838 -0.3754  0.5615 -0.8045
  102OSM   H18T10349   0.271   4.522   8.840  0.9324  1.1981  2.2019
  102OSM   H18U10350   0.125   4.433   8.890  0.4060  1.3075  1.7509
  102OSM    C1F10351   0.320   5.060  10.564  0.2792 -0.0887 -0.2464
  102OSM     OF10352   0.383   5.163  10.585  0.0047  0.1540 -0.5983
  102OSM    C2F10353   0.170   5.058  10.535  0.1593  0.0982  0.4979
  102OSM    H2F10354   0.118   5.145  10.580 -1.2665 -1.2861  1.6240
  102OSM    H2G10355   0.126   4.970  10.587  0.9618 -0.1787  0.7289
  102OSM    C3F10356   0.139   5.039  10.386  0.1682  0.2604  0.0940
  102OSM    H3F10357   0.029   5.046  10.375  0.2204 -1.1925 -1.8057
  102OSM    H3G10358   0.161   4.935  10.356 -2.1159  0.4183 -2.5172
  102OSM    C4F10359   0.219   5.140  10.300 -0.0002  0.4394  0.2495
  102OSM    H4F10360   0.326   5.114  10.311 -0.8542 -3.0526  1.8230
  102OSM    H4G10361   0.196   5.239  10.344  1.4170  0.1306  1.7667
  102OSM    C5F10362   0.192   5.120  10.149  0.3761 -0.2949  0.2449
  102OSM    H5F10363   0.084   5.118  10.124  0.2822  2.2337  0.1587
  102OSM    H5G10364   0.227   5.017  10.124 -1.9143 -1.0840  0.0401
  102OSM    C6F10365   0.264   5.214  10.060  0.4104 -0.0585 -0.3121
  102OSM    H6F10366   0.371   5.192  10.082  0.5669 -2.0350 -2.6090
  102OSM    H6G10367   0.248   5.314  10.106  0.6006  0.4656 -1.3572
  102OSM    C7F10368   0.235   5.196   9.913 -0.2245  0.2994 -0.6077
  102OSM    H7F10369   0.129   5.170   9.894 -0.0457 -0.1739 -0.9817
  102OSM    H7G10370   0.292   5.108   9.875  1.3040  0.9213  0.1276
  102OSM    C8F10371   0.272   5.319   9.829  0.6404  0.2597  0.1913
  102OSM    H8F10372   0.374   5.352   9.861  0.8011 -0.2107  0.1661
  102OSM    H8G10373   0.200   5.399   9.858  1.7763  1.0423  0.9508
  102OSM    C9F10374   0.278   5.296   9.685 -0.7290 -0.3153  0.4728
  102OSM    H9F10375   0.189   5.325   9.628 -0.7889  2.4040  1.7729
  102OSM   C10F10376   0.384   5.263   9.608  0.1727  0.5292 -0.0065
  102OSM   H10F10377   0.377   5.254   9.498 -2.5124  1.1109  0.0571
  102OSM   C11F10378   0.525   5.242   9.667  0.1330 -0.3574 -0.5883
  102OSM   H11F10379   0.572   5.159   9.610 -2.1497 -0.3520 -2.6520
  102OSM   H11G10380   0.525   5.210   9.773 -0.8430 -1.3476 -0.8622
  102OSM   C12F10381   0.606   5.378   9.669  0.1565  0.1920  0.0512
  102OSM   H12F10382   0.711   5.354   9.699  1.0829  1.3964 -2.0364
  102OSM   H12G10383   0.565   5.441   9.751  2.8524 -0.6301  2.1952
  102OSM   C13F10384   0.613   5.455   9.534 -0.5417  0.6266  0.0179
  102OSM   H13F10385   0.520   5.502   9.495 -0.9139 -2.0922 -2.7832
  102OSM   H13G10386   0.626   5.380   9.453 -0.9114 -0.7727  1.2233
  102OSM   C14F10387   0.729   5.561   9.530  0.5881 -0.5919  0.2299
  102OSM   H14F10388   0.713   5.615   9.434 -2.7166 -1.8994 -0.0624
  102OSM   H14G10389   0.831   5.516   9.531  0.7419 -0.2907 -0.5076
  102OSM   C15F10390   0.713   5.669   9.631 -0.7547 -0.0136  0.8674
  102OSM   H15F10391   0.758   5.634   9.726  0.3479  0.7478  0.6501
  102OSM   H15G10392   0.603   5.684   9.643 -0.4029  2.2320  1.7408
  102OSM   C16F10393   0.772   5.804   9.587 -0.2774 -0.1679 -0.2992
  102OSM   H16F10394   0.689   5.849   9.529 -0.9906  0.4502  1.1454
  102OSM   H16G10395   0.859   5.768   9.527 -1.6561 -0.1506 -2.4320
  102OSM   C17F10396   0.805   5.894   9.699 -1.0687  0.2386 -0.3483
  102OSM   H17F10397   0.862   5.981   9.661  0.8314 -0.5699  0.5146
  102OSM   H17G10398   0.863   5.851   9.783 -1.8833  2.1783  1.2896
  102OSM   C18F10399   0.677   5.964   9.767  0.5571  0.4095 -0.8909
  102OSM   H18F10400   0.629   5.877   9.819  1.9707 -0.5598 -1.1392
  102OSM   H18G10401   0.610   6.011   9.692  0.2423 -0.9818 -1.5278
  102OSM   H18H10402   0.708   6.040   9.842 -0.5832  0.8281 -0.8155
  103OSM      N10403   2.727   0.810  11.124  0.5012  0.7842  0.2835
  103OSM    C1510404   2.620   0.832  11.226  0.9480 -0.7053 -0.2684
  103OSM   H15A10405   2.525   0.855  11.182  1.1431 -1.0098 -0.8585
  103OSM   H15B10406   2.650   0.915  11.288 -0.9713 -0.5287  0.4670
  103OSM   H15C10407   2.624   0.744  11.289 -1.1218  0.2408  1.3001
  103OSM    C1410408   2.743   0.934  11.041  0.7688 -0.4198  0.4279
  103OSM   H14A10409   2.659   0.949  10.975 -1.2124 -0.7967  2.7205
  103OSM   H14B10410   2.836   0.931  10.987  2.9831 -0.1806  3.9204
  103OSM   H14C10411   2.750   1.022  11.102 -0.9085 -0.1965  0.3550
  103OSM    C1310412   2.857   0.788  11.190 -0.1693  0.7270 -0.2570
  103OSM   H13A10413   2.856   0.704  11.258  0.4023  1.9195  1.2791
  103OSM   H13B10414   2.886   0.877  11.243  0.9459 -0.0999  0.5716
  103OSM   H13C10415   2.929   0.768  11.113 -1.0416 -0.6767 -0.7516
  103OSM    C1210416   2.685   0.697  11.026  0.2261  0.5601 -0.0584
  103OSM   H12A10417   2.669   0.606  11.082  1.9204  0.9739  1.1759
  103OSM   H12B10418   2.766   0.670  10.960 -0.1206 -1.0923  0.1440
  103OSM    C1110419   2.548   0.723  10.957  0.3934  0.3756  0.0917
  103OSM   H11A10420   2.548   0.666  10.862  0.0424  1.1109 -0.3558
  103OSM   H11B10421   2.551   0.828  10.923  2.0226 -0.0140 -1.1000
  103OSM      P10422   2.381   0.537  11.041 -0.1392  0.0264 -0.6593
  103OSM    O1310423   2.483   0.468  11.122  0.2727 -0.1389  0.2240
  103OSM    O1410424   2.241   0.529  11.086  0.6365  0.2677  0.5287
  103OSM    O1110425   2.387   0.483  10.893  0.3346  0.0785 -0.1037
  103OSM    O1210426   2.429   0.688  11.035  0.2265 -0.3672  0.3650
  103OSM    C1S10427   2.305   0.553  10.802  0.0267 -0.3230  0.0323
  103OSM    H1S10428   2.333   0.659  10.781  1.3547 -0.5496  0.5716
  103OSM    H1T10429   2.197   0.551  10.826  0.5730  0.7257  2.8688
  103OSM     NF10430   2.258   0.556  10.558 -0.2580 -0.5068 -1.1996
  103OSM    HNF10431   2.169   0.515  10.542  0.0773 -0.5027 -3.4440
  103OSM    C2S10432   2.331   0.484  10.663  0.5506  0.6442 -0.5083
  103OSM    H2S10433   2.441   0.480  10.643  0.5588 -0.8678 -0.3273
  103OSM    C3S10434   2.283   0.328  10.690 -0.7052  0.4655  0.5685
  103OSM    H3S10435   2.182   0.328  10.736 -0.9742 -3.1058  0.2471
  103OSM     O310436   2.361   0.247  10.779 -0.0733  0.2075  0.6554
  103OSM    HO310437   2.404   0.319  10.825 -0.4363  1.4749 -0.8998
  103OSM    C4S10438   2.263   0.259  10.555  0.6006  0.4006  0.2840
  103OSM    H4S10439   2.161   0.279  10.518  0.1665 -1.1466  0.5504
  103OSM    C5S10440   2.335   0.171  10.481  0.3717  0.3892  0.1281
  103OSM    H5S10441   2.434   0.140  10.519  0.8347 -2.0547 -2.6652
  103OSM    C6S10442   2.298   0.110  10.345 -0.0558  0.6114  0.2743
  103OSM    H6S10443   2.284  -0.000  10.354 -0.7726  0.7258  0.6348
  103OSM    H6T10444   2.380   0.104  10.271 -0.2792  2.7006 -0.2016
  103OSM    C7S10445   2.175   0.174  10.286  0.6446  0.1594  0.9416
  103OSM    H7S10446   2.200   0.282  10.288  0.4160  0.3077 -1.6207
  103OSM    H7T10447   2.091   0.154  10.356 -0.0600 -1.0059 -0.2117
  103OSM    C8S10448   2.129   0.135  10.143  1.1672 -0.3830  0.3922
  103OSM    H8S10449   2.106   0.027  10.127  0.0741 -0.1137  0.1120
  103OSM    H8T10450   2.214   0.162  10.076  0.0603  1.1472 -0.4381
  103OSM    C9S10451   2.004   0.209  10.097 -0.4184  0.9018 -0.2997
  103OSM    H9S10452   2.008   0.304  10.153  2.6061  0.5570  0.2589
  103OSM    H9T10453   1.914   0.149  10.123  0.0396 -0.1371 -1.0092
  103OSM   C10S10454   2.013   0.230   9.938  0.7009  0.0365 -0.7059
  103OSM   H10S10455   2.102   0.291   9.913 -0.3254  1.4752 -1.0299
  103OSM   H10T10456   1.927   0.299   9.921 -0.5143 -1.6420 -1.6976
  103OSM   C11S10457   1.974   0.105   9.861 -0.6208 -0.2614 -0.6034
  103OSM   H11S10458   1.876   0.078   9.907  0.3180 -1.0547  1.0365
  103OSM   H11T10459   2.050   0.026   9.878  0.9508  1.4692  0.8011
  103OSM   C12S10460   1.958   0.138   9.712 -0.2463  0.4552 -0.8395
  103OSM   H12S10461   2.055   0.165   9.665  0.2068 -1.9391 -1.4384
  103OSM   H12T10462   1.901   0.232   9.698  4.7126  3.7491 -1.7791
  103OSM   C13S10463   1.895   0.018   9.642 -0.4516  0.0222  0.1204
  103OSM   H13S10464   1.804  -0.008   9.701  0.8603 -0.8142  1.8610
  103OSM   H13T10465   1.959  -0.072   9.644  0.5568  0.6728 -1.3065
  103OSM   C14S10466   1.850   0.042   9.490 -0.2668  0.3837  0.1661
  103OSM   H14S10467   1.791  -0.042   9.447  0.6140  0.5276 -1.4009
  103OSM   H14T10468   1.942   0.062   9.430  0.0312  0.2341  0.5684
  103OSM   C15S10469   1.763   0.168   9.468  0.0041  0.4502 -0.3304
  103OSM   H15S10470   1.824   0.257   9.494  0.8327 -0.7094  1.9562
  103OSM   H15T10471   1.687   0.148   9.547  0.1130  1.2936 -0.0002
  103OSM   C16S10472   1.710   0.185   9.319  0.9354 -0.4533  0.0508
  103OSM   H16S10473   1.654   0.092   9.298 -0.8923  0.7023 -0.4277
  103OSM   H16T10474   1.790   0.176   9.242 -1.4416 -0.6303 -2.5543
  103OSM   C17S10475   1.613   0.298   9.292  0.1127  0.1957  1.2554
  103OSM   H17S10476   1.587   0.292   9.184  1.5685 -0.5961  0.9308
  103OSM   H17T10477   1.659   0.399   9.303  0.0164  0.7148 -2.0780
  103OSM   C18S10478   1.482   0.292   9.368 -0.8256  0.1144  0.6027
  103OSM   H18S10479   1.435   0.191   9.369 -0.1657 -0.2274 -0.5769
  103OSM   H18T10480   1.413   0.368   9.326 -0.5920 -0.7055 -1.4028
  103OSM   H18U10481   1.497   0.321   9.474 -2.8678 -1.2477  1.3225
  103OSM    C1F10482   2.292   0.675  10.507  0.5214 -0.2009  0.0285
  103OSM     OF10483   2.399   0.728  10.535 -0.5106  0.3421  0.5437
  103OSM    C2F10484   2.203   0.739  10.402 -0.0128  0.4852 -0.4104
  103OSM    H2F10485   2.098   0.749  10.436  0.2400  1.0333  0.2299
  103OSM    H2G10486   2.206   0.665  10.319 -0.7917  0.6228 -0.5645
  103OSM    C3F10487   2.260   0.877  10.365  0.1595  0.1905  0.3838
  103OSM    H3F10488   2.368   0.868  10.340 -0.5441  0.2269 -3.0296
  103OSM    H3G10489   2.258   0.952  10.447 -0.1837  2.1324 -1.3342
  103OSM    C4F10490   2.192   0.935  10.239 -0.4665 -1.0096  0.2377
  103OSM    H4F10491   2.083   0.924  10.255 -0.4180 -2.1973 -0.1623
  103OSM    H4G10492   2.219   0.876  10.149 -0.3305  1.1789 -1.2202
  103OSM    C5F10493   2.239   1.077  10.208  0.3174 -0.0004 -0.7993
  103OSM    H5F10494   2.348   1.068  10.186  0.2271  0.7118 -1.5680
  103OSM    H5G10495   2.230   1.145  10.296  1.5615 -0.0955 -0.5822
  103OSM    C6F10496   2.168   1.142  10.086 -0.2126 -0.5895  0.6375
  103OSM    H6F10497   2.057   1.137  10.087 -0.2768 -2.1535 -1.9114
  103OSM    H6G10498   2.207   1.085   9.999 -0.0512 -0.1471  0.4213
  103OSM    C7F10499   2.217   1.287  10.071  0.1002 -0.1409 -0.4842
  103OSM    H7F10500   2.326   1.290  10.093  0.1425 -2.1736 -0.1710
  103OSM    H7G10501   2.166   1.349  10.148  2.3381  0.6377  0.4493
  103OSM    C8F10502   2.194   1.367   9.941  0.2377  0.1264  0.5217
  103OSM    H8F10503   2.253   1.461   9.943 -1.6821  1.4484 -1.2489
  103OSM    H8G10504   2.084   1.380   9.932  0.3448 -0.2598 -3.9450
  103OSM    C9F10505   2.251   1.291   9.825  0.2966 -0.4519 -0.4940
  103OSM    H9F10506   2.325   1.212   9.844  0.5552  0.1816  1.2455
  103OSM   C10F10507   2.224   1.311   9.699  0.2536 -0.2768  0.1884
  103OSM   H10F10508   2.263   1.246   9.619 -0.8141  1.2642 -1.6817
  103OSM   C11F10509   2.127   1.421   9.634 -0.4089 -0.2179  0.6268
  103OSM   H11F10510   2.136   1.511   9.697 -0.9149 -0.1321  0.5783
  103OSM   H11G10511   2.019   1.392   9.632 -0.8672  1.4119  0.7970
  103OSM   C12F10512   2.157   1.461   9.486  0.2454 -0.9511  0.3031
  103OSM   H12F10513   2.103   1.558   9.481  1.7161  0.1955  3.8274
  103OSM   H12G10514   2.119   1.381   9.418  2.3138 -1.3726 -0.4107
  103OSM   C13F10515   2.302   1.488   9.461  0.2224 -0.7804 -0.2997
  103OSM   H13F10516   2.339   1.536   9.554 -3.8920 -1.3357  1.9091
  103OSM   H13G10517   2.356   1.392   9.450  0.6624 -0.4347 -1.1813
  103OSM   C14F10518   2.333   1.570   9.337  0.2409 -0.4568  1.2405
  103OSM   H14F10519   2.444   1.575   9.347  0.2027  0.6312  1.2941
  103OSM   H14G10520   2.297   1.675   9.348 -0.3332 -0.3703 -1.0075
  103OSM   C15F10521   2.275   1.497   9.208 -0.0630 -0.0709  0.3075
  103OSM   H15F10522   2.166   1.475   9.217  0.0128  0.1996  2.4605
  103OSM   H15G10523   2.310   1.392   9.211  0.8175  0.2336  2.3387
  103OSM   C16F10524   2.324   1.553   9.071 -0.0995  0.6929 -0.3751
  103OSM   H16F10525   2.435   1.561   9.076  0.1668 -1.3991 -1.3751
  103OSM   H16G10526   2.287   1.653   9.043  1.7475  1.0508 -1.7418
  103OSM   C17F10527   2.287   1.465   8.942  0.3416 -0.3455  0.0225
  103OSM   H17F10528   2.342   1.369   8.948  0.0089 -0.8290 -3.1432
  103OSM   H17G10529   2.324   1.511   8.848  0.9374  0.4210  0.6128
  103OSM   C18F10530   2.139   1.451   8.934 -0.0220 -0.5713  0.6715
  103OSM   H18F10531   2.101   1.400   8.843 -0.3050 -1.4302  1.2710
  103OSM   H18G10532   2.089   1.550   8.934  1.4250  0.1965  1.4751
  103OSM   H18H10533   2.109   1.398   9.027  0.7746  0.6947  1.6882
  104OSM      N10534   5.747   6.473  10.919 -0.1169 -0.7342 -0.4505
  104OSM    C1510535   5.897   6.449  10.922 -0.1238  0.0571  0.8272
  104OSM   H15A10536   5.944   6.452  10.825  2.4985  0.2451  2.0218
  104OSM   H15B10537   5.932   6.354  10.960 -0.2926 -0.9446 -1.3404
  104OSM   H15C10538   5.939   6.534  10.974 -0.6440  1.0162 -0.2616
  104OSM    C1410539   5.704   6.403  10.793  1.0808 -0.3291 -0.4586
  104OSM   H14A10540   5.597   6.405  10.779  0.8805  1.1534  0.9592
  104OSM   H14B10541   5.733   6.299  10.795  0.9221 -0.4439 -2.4257
  104OSM   H14C10542   5.749   6.454  10.709  2.7338  0.9755  1.1269
  104OSM    C1310543   5.680   6.412  11.037  0.5448 -0.1737 -0.0587
  104OSM   H13A10544   5.730   6.455  11.122  1.4591 -2.8155  0.8422
  104OSM   H13B10545   5.688   6.305  11.050 -1.9008 -0.2122  1.9035
  104OSM   H13C10546   5.575   6.431  11.056  0.4049 -1.3106  0.3756
  104OSM    C1210547   5.710   6.620  10.912  0.5104 -0.7074  0.4557
  104OSM   H12A10548   5.722   6.663  11.011  2.6490 -1.3828  0.5448
  104OSM   H12B10549   5.610   6.640  10.877  1.1862  1.0027 -0.6049
  104OSM    C1110550   5.797   6.701  10.810  0.1092 -0.6240 -0.1328
  104OSM   H11A10551   5.808   6.649  10.712 -0.1780  1.4086 -1.2985
  104OSM   H11B10552   5.901   6.722  10.843 -0.7287  1.1829  1.5928
  104OSM      P10553   5.782   6.962  10.794 -0.2191  0.0507 -0.1683
  104OSM    O1310554   5.672   7.051  10.769  0.9043 -0.9690  0.9322
  104OSM    O1410555   5.865   6.976  10.918 -0.4016 -0.6296  0.6234
  104OSM    O1110556   5.884   6.961  10.673  0.6243  0.5765 -0.4179
  104OSM    O1210557   5.720   6.818  10.788  0.6441 -0.4221 -0.4119
  104OSM    C1S10558   5.836   6.964  10.540 -0.2321 -0.6764 -0.5150
  104OSM    H1S10559   5.752   7.035  10.528  0.4310  0.3139  0.4983
  104OSM    H1T10560   5.786   6.869  10.511 -0.9985  0.4652 -3.2803
  104OSM     NF10561   5.918   7.034  10.309 -0.1666 -0.1449 -0.2361
  104OSM    HNF10562   5.902   6.968  10.236  0.4093  0.7914 -1.2398
  104OSM    C2S10563   5.954   6.994  10.446 -0.2812 -0.2438  0.0633
  104OSM    H2S10564   6.018   7.077  10.484 -0.3611  0.0559 -0.4558
  104OSM    C3S10565   6.053   6.870  10.457 -0.2540  0.1247  0.4796
  104OSM    H3S10566   5.991   6.779  10.438  0.3435 -0.6967  2.2080
  104OSM     O310567   6.104   6.842  10.586  0.4132  0.0112  0.2150
  104OSM    HO310568   6.042   6.891  10.640 -2.7133 -1.9603 -1.3381
  104OSM    C4S10569   6.179   6.880  10.364  0.2243  0.6162  0.6895
  104OSM    H4S10570   6.182   6.810  10.280  0.3942  0.6463  0.6698
  104OSM    C5S10571   6.287   6.959  10.380 -0.4961 -0.2777 -0.3218
  104OSM    H5S10572   6.293   7.027  10.466  1.3437 -0.8932  0.0891
  104OSM    C6S10573   6.415   6.969  10.298  0.5213  0.4105  1.1402
  104OSM    H6S10574   6.500   6.928  10.356 -1.1517 -0.7384  2.9134
  104OSM    H6T10575   6.436   7.077  10.289 -0.3756  0.4420 -1.5200
  104OSM    C7S10576   6.409   6.907  10.155  0.4014  0.4437  0.5745
  104OSM    H7S10577   6.380   6.800  10.162 -0.0997  0.5940  0.8928
  104OSM    H7T10578   6.514   6.910  10.121 -0.3169  1.1224 -1.7567
  104OSM    C8S10579   6.319   6.977  10.053  0.3209  0.4142  0.0830
  104OSM    H8S10580   6.345   7.084  10.037 -0.0074  0.6028  0.7914
  104OSM    H8T10581   6.217   6.972  10.096  0.7283  0.1143  1.0526
  104OSM    C9S10582   6.311   6.895   9.916  0.5627 -0.5603 -0.7773
  104OSM    H9S10583   6.280   6.791   9.940  1.2815 -0.4867  0.5804
  104OSM    H9T10584   6.415   6.893   9.875  0.0517  0.0062 -2.1572
  104OSM   C10S10585   6.223   6.956   9.810 -0.1656  0.0571 -0.8497
  104OSM   H10S10586   6.238   7.065   9.822  0.3458  0.0026 -0.9706
  104OSM   H10T10587   6.117   6.934   9.833 -0.7634  1.0436 -2.5306
  104OSM   C11S10588   6.268   6.910   9.671 -0.2261  0.2397  0.2759
  104OSM   H11S10589   6.261   6.799   9.667  1.3452  0.1244  0.2878
  104OSM   H11T10590   6.371   6.948   9.656 -0.1952  1.3618  2.9061
  104OSM   C12S10591   6.159   6.967   9.577 -0.5446  0.3559  0.1120
  104OSM   H12S10592   6.161   7.078   9.584  0.1701  0.3261  0.4347
  104OSM   H12T10593   6.056   6.932   9.599 -0.6256  1.0268  0.8772
  104OSM   C13S10594   6.196   6.937   9.428  0.1860 -0.6271 -0.2706
  104OSM   H13S10595   6.094   6.912   9.390 -1.2723 -1.9636  3.8419
  104OSM   H13T10596   6.248   6.838   9.427 -0.3675 -0.9709  1.3230
  104OSM   C14S10597   6.258   7.049   9.342  0.1032  0.2854 -0.6749
  104OSM   H14S10598   6.350   7.075   9.398 -1.0177  0.9732  0.9094
  104OSM   H14T10599   6.188   7.133   9.356 -1.0863 -0.7834 -0.0177
  104OSM   C15S10600   6.264   7.004   9.202 -0.1184  0.7454  0.0462
  104OSM   H15S10601   6.166   7.014   9.151 -0.2871  1.4023  0.4939
  104OSM   H15T10602   6.288   6.895   9.200  1.8338  0.9488  3.7341
  104OSM   C16S10603   6.364   7.086   9.125  0.2987  0.8290  0.3014
  104OSM   H16S10604   6.465   7.054   9.157  0.2122 -3.0376 -2.7005
  104OSM   H16T10605   6.351   7.196   9.140 -1.2431  0.7668 -0.4060
  104OSM   C17S10606   6.363   7.068   8.969 -0.4021  0.7856 -0.9531
  104OSM   H17S10607   6.392   7.153   8.904 -2.6347  1.7413 -0.7943
  104OSM   H17T10608   6.255   7.071   8.944 -0.1616 -0.3891 -2.2198
  104OSM   C18S10609   6.430   6.944   8.925 -0.5764 -0.3669  0.9535
  104OSM   H18S10610   6.426   6.930   8.814 -3.1472 -2.1133  1.1685
  104OSM   H18T10611   6.374   6.853   8.956 -0.1014 -0.9771  0.0707
  104OSM   H18U10612   6.534   6.946   8.964 -0.8058 -2.3033  1.7944
  104OSM    C1F10613   5.865   7.148  10.279  0.5997 -0.4587  0.2081
  104OSM     OF10614   5.857   7.237  10.365 -0.1910  0.4242 -0.7203
  104OSM    C2F10615   5.812   7.160  10.134  0.2225 -0.7000 -0.6243
  104OSM    H2F10616   5.758   7.257  10.136  1.4183 -0.0104  1.3168
  104OSM    H2G10617   5.730   7.091  10.108 -1.5659  1.3191 -0.6313
  104OSM    C3F10618   5.925   7.170  10.034 -0.5399  0.3486 -0.1492
  104OSM    H3F10619   5.954   7.064  10.020  1.2959  0.8818 -0.5337
  104OSM    H3G10620   6.008   7.231  10.075 -0.2558 -0.4612  0.4845
  104OSM    C4F10621   5.899   7.235   9.893  1.0312 -0.7871  0.2131
  104OSM    H4F10622   5.965   7.187   9.817 -0.1986  0.0006 -1.4143
  104OSM    H4G10623   5.926   7.342   9.901  0.0762 -0.4837 -0.4122
  104OSM    C5F10624   5.758   7.220   9.833  0.2400  0.5518 -0.3115
  104OSM    H5F10625   5.683   7.274   9.894  0.9918  0.8397  0.3733
  104OSM    H5G10626   5.729   7.112   9.836 -1.2384  0.8771 -1.6609
  104OSM    C6F10627   5.741   7.267   9.677 -0.1681  0.4483 -0.3580
  104OSM    H6F10628   5.779   7.370   9.660 -1.9441  1.1377 -0.3837
  104OSM    H6G10629   5.631   7.272   9.662 -0.0422  2.4409 -0.9062
  104OSM    C7F10630   5.816   7.164   9.589 -0.4553 -0.0355  0.0781
  104OSM    H7F10631   5.760   7.068   9.586  1.6430 -1.3479  0.5059
  104OSM    H7G10632   5.915   7.127   9.624  0.7172  1.6528 -1.3020
  104OSM    C8F10633   5.844   7.225   9.451 -0.9166 -0.3067 -0.1312
  104OSM    H8F10634   5.928   7.167   9.406 -0.2780  0.8704 -0.4957
  104OSM    H8G10635   5.887   7.327   9.451  1.7002 -1.3216  0.5535
  104OSM    C9F10636   5.720   7.216   9.367 -0.0330 -0.1886 -0.2736
  104OSM    H9F10637   5.633   7.270   9.407 -0.2003  0.0398 -0.9299
  104OSM   C10F10638   5.718   7.170   9.245  0.2295  0.6219  0.7105
  104OSM   H10F10639   5.618   7.165   9.198  1.0564  1.9524 -1.3101
  104OSM   C11F10640   5.839   7.115   9.170  0.6369  0.0820 -0.1250
  104OSM   H11F10641   5.903   7.050   9.233  0.2396 -3.1482 -2.8190
  104OSM   H11G10642   5.908   7.187   9.120  1.1665 -0.3144  0.0242
  104OSM   C12F10643   5.792   7.030   9.054  0.1252  0.0171 -0.3516
  104OSM   H12F10644   5.739   7.097   8.983 -1.5145 -0.3062  0.5033
  104OSM   H12G10645   5.723   6.945   9.074  2.1653 -1.3399  1.4642
  104OSM   C13F10646   5.917   6.977   8.979 -0.4026  0.0104 -0.2495
  104OSM   H13F10647   5.958   6.899   9.047 -1.1664 -1.5218 -1.4798
  104OSM   H13G10648   5.993   7.058   8.969  1.6403 -1.8345 -0.6607
  104OSM   C14F10649   5.897   6.907   8.845 -0.3258  0.3823  0.0459
  104OSM   H14F10650   5.847   6.980   8.778  0.9615  0.9385 -0.3390
  104OSM   H14G10651   5.837   6.814   8.848  0.7774 -0.3327  0.5554
  104OSM   C15F10652   6.031   6.860   8.792  0.2210 -0.3385 -0.0168
  104OSM   H15F10653   6.063   6.771   8.849 -0.8741  0.0225  1.2271
  104OSM   H15G10654   6.108   6.938   8.809  0.9342 -1.4676  2.4605
  104OSM   C16F10655   6.018   6.829   8.642  0.7154 -0.4060  0.4855
  104OSM   H16F10656   5.918   6.783   8.628  1.2501 -1.4050 -0.1551
  104OSM   H16G10657   6.093   6.754   8.607  0.9093  0.1772 -0.3568
  104OSM   C17F10658   6.029   6.964   8.566 -0.7438 -0.3654  0.2223
  104OSM   H17F10659   6.126   7.015   8.583  0.3192 -1.6199 -1.6741
  104OSM   H17G10660   5.954   7.038   8.600 -2.8527 -1.6624 -1.3040
  104OSM   C18F10661   6.009   6.947   8.419 -0.1980  0.1144  0.3587
  104OSM   H18F10662   5.905   6.909   8.408  0.0696 -1.6188  2.9503
  104OSM   H18G10663   6.080   6.870   8.380  0.1023  1.7418 -2.5573
  104OSM   H18H10664   6.017   7.042   8.362  1.5756  0.3937  1.0103
  105OSM      N10665   6.459   0.181  10.847 -0.1219 -0.0144 -0.0363
  105OSM    C1510666   6.492   0.229  10.707  0.1606  0.9639  0.4151
  105OSM   H15A10667   6.412   0.292  10.670 -1.1814 -0.7069  0.3308
  105OSM   H15B10668   6.510   0.141  10.646 -0.3236  0.6227  0.7633
  105OSM   H15C10669   6.583   0.287  10.705  0.9864 -0.2986 -0.9182
  105OSM    C1410670   6.428   0.306  10.932 -0.1234  0.1377 -0.6940
  105OSM   H14A10671   6.514   0.371  10.921  0.1254  0.4323  2.2257
  105OSM   H14B10672   6.408   0.285  11.036 -1.1782  0.3321 -0.8512
  105OSM   H14C10673   6.339   0.353  10.892 -0.0871  1.5602  0.7884
  105OSM    C1310674   6.347   0.091  10.839 -0.6669 -0.2289 -0.5842
  105OSM   H13A10675   6.305   0.057  10.932 -1.6613  0.2504 -0.8337
  105OSM   H13B10676   6.373  -0.000  10.787  1.2916  0.9197 -1.7345
  105OSM   H13C10677   6.263   0.135  10.787  0.0026  2.4718  0.5020
  105OSM    C1210678   6.582   0.107  10.910  0.1452  1.0004 -0.4696
  105OSM   H12A10679   6.558   0.054  11.001 -0.2995  0.5910 -0.8194
  105OSM   H12B10680   6.652   0.184  10.939 -2.0443  3.1792 -0.6031
  105OSM    C1110681   6.640  -0.012  10.828  0.2479  0.4306  0.3042
  105OSM   H11A10682   6.741  -0.048  10.857  0.5176  0.5529 -0.4608
  105OSM   H11B10683   6.667   0.036  10.732 -0.3593 -0.2311 -0.2051
  105OSM      P10684   6.535  -0.253  10.863 -0.2792  0.0326  0.4514
  105OSM    O1310685   6.650  -0.283  10.951  0.4708  0.3757 -0.0034
  105OSM    O1410686   6.402  -0.271  10.929  0.0899 -0.2728  0.3836
  105OSM    O1110687   6.542  -0.350  10.734 -0.0369 -0.0061 -0.5151
  105OSM    O1210688   6.545  -0.107  10.796  0.4804  0.5194 -0.7865
  105OSM    C1S10689   6.453  -0.321  10.620 -0.5350  0.3981 -0.2589
  105OSM    H1S10690   6.514  -0.249  10.561 -0.6667  0.2718 -0.5510
  105OSM    H1T10691   6.359  -0.270  10.652 -0.8058 -1.0035  1.3451
  105OSM     NF10692   6.366  -0.409  10.411  0.1977 -0.1486  0.1615
  105OSM    HNF10693   6.267  -0.418  10.407  0.2744 -1.2322  0.3295
  105OSM    C2S10694   6.427  -0.443  10.539  0.3049  0.7084  0.5850
  105OSM    H2S10695   6.524  -0.492  10.517 -1.6399 -2.4678 -2.0520
  105OSM    C3S10696   6.356  -0.554  10.624  0.3657 -0.2484  0.4870
  105OSM    H3S10697   6.247  -0.530  10.623 -0.2863 -2.8029  1.1141
  105OSM     O310698   6.396  -0.569  10.758 -0.0563  0.1188  0.7710
  105OSM    HO310699   6.457  -0.497  10.770  2.3373 -1.7458  0.5683
  105OSM    C4S10700   6.363  -0.681  10.551  0.4619 -0.2790  0.0903
  105OSM    H4S10701   6.295  -0.695  10.465  0.8449  1.9080 -0.6209
  105OSM    C5S10702   6.467  -0.763  10.559  0.3997 -0.0986  0.3449
  105OSM    H5S10703   6.544  -0.740  10.634  0.8049  1.8846 -0.5977
  105OSM    C6S10704   6.493  -0.887  10.473 -0.2725 -0.3970  0.2490
  105OSM    H6S10705   6.469  -0.980  10.529  1.0507  0.0705  1.6766
  105OSM    H6T10706   6.604  -0.881  10.463 -0.1210 -2.4880  0.1840
  105OSM    C7S10707   6.440  -0.887  10.331 -0.5775 -0.1890 -0.1417
  105OSM    H7S10708   6.335  -0.851  10.323 -0.1901  1.5357  1.7144
  105OSM    H7T10709   6.449  -0.995  10.305  2.3201 -0.2352  0.6543
  105OSM    C8S10710   6.527  -0.804  10.232 -0.0836 -0.1165  0.1376
  105OSM    H8S10711   6.626  -0.853  10.242 -0.9496 -1.5055  3.1203
  105OSM    H8T10712   6.550  -0.701  10.267 -0.7726  0.5961 -1.4010
  105OSM    C9S10713   6.471  -0.793  10.094  0.5875 -0.0504 -0.0201
  105OSM    H9S10714   6.542  -0.738  10.028  0.3181 -0.4034 -0.6133
  105OSM    H9T10715   6.379  -0.730  10.092 -0.0642 -0.9648  0.4205
  105OSM   C10S10716   6.422  -0.923  10.027 -0.5839  0.5835 -0.2996
  105OSM   H10S10717   6.317  -0.946  10.055 -0.4217 -0.3444 -0.4364
  105OSM   H10T10718   6.476  -1.010  10.069 -0.1089  0.2785 -1.4993
  105OSM   C11S10719   6.446  -0.932   9.878  0.5665  0.0011 -0.7863
  105OSM   H11S10720   6.438  -1.038   9.846 -0.4135 -0.7086  1.6286
  105OSM   H11T10721   6.551  -0.906   9.853  0.5868  0.7461  0.0122
  105OSM   C12S10722   6.334  -0.856   9.804 -0.4453 -0.5783 -0.0752
  105OSM   H12S10723   6.331  -0.745   9.816 -1.3843 -0.4946 -0.8869
  105OSM   H12T10724   6.235  -0.896   9.834 -1.3339  1.1842 -0.4979
  105OSM   C13S10725   6.350  -0.893   9.657  0.3929  0.6415  0.3254
  105OSM   H13S10726   6.367  -1.003   9.648 -3.7585 -0.1111 -0.4149
  105OSM   H13T10727   6.431  -0.836   9.608 -0.7296  0.9480 -1.2505
  105OSM   C14S10728   6.231  -0.858   9.570  0.4871 -0.1980 -0.6296
  105OSM   H14S10729   6.216  -0.751   9.595 -0.1171 -1.2731  4.7741
  105OSM   H14T10730   6.138  -0.905   9.610  0.1528  1.2955  0.4318
  105OSM   C15S10731   6.253  -0.891   9.425 -0.0680  0.0576  0.1514
  105OSM   H15S10732   6.266  -1.001   9.415  0.5102 -0.4102  4.4505
  105OSM   H15T10733   6.351  -0.846   9.398  0.5741 -1.1079  0.4635
  105OSM   C16S10734   6.149  -0.838   9.326 -0.0472 -1.0479 -0.9656
  105OSM   H16S10735   6.146  -0.727   9.332  3.9452 -0.8542  1.1554
  105OSM   H16T10736   6.057  -0.884   9.369 -0.9050  1.2961 -0.1699
  105OSM   C17S10737   6.164  -0.883   9.181 -0.5391 -0.3235 -0.2469
  105OSM   H17S10738   6.163  -0.994   9.177  2.1721 -0.3957 -1.2683
  105OSM   H17T10739   6.267  -0.851   9.152 -0.6866 -0.1999 -0.6301
  105OSM   C18S10740   6.058  -0.814   9.094 -0.3216  0.0795 -0.6423
  105OSM   H18S10741   6.070  -0.705   9.077 -1.7603  0.2539 -0.6209
  105OSM   H18T10742   5.959  -0.833   9.141  0.0186  0.4728  0.2689
  105OSM   H18U10743   6.058  -0.853   8.990  3.5911  2.6501 -1.8496
  105OSM    C1F10744   6.433  -0.343  10.314 -0.7759  0.5076  0.1153
  105OSM     OF10745   6.553  -0.310  10.333  0.3868  0.2476 -0.0223
  105OSM    C2F10746   6.356  -0.310  10.184  0.4527  0.2808  0.4336
  105OSM    H2F10747   6.386  -0.205  10.164  1.1956 -0.2044 -1.2240
  105OSM    H2G10748   6.246  -0.322  10.195  0.4350  0.4097  0.4012
  105OSM    C3F10749   6.404  -0.397  10.066 -0.1283  0.0715  0.1828
  105OSM    H3F10750   6.384  -0.502  10.093  1.4939 -0.1658  0.5730
  105OSM    H3G10751   6.515  -0.397  10.057 -0.2094  0.6042 -1.1601
  105OSM    C4F10752   6.332  -0.356   9.931  0.1793 -0.2612  0.2083
  105OSM    H4F10753   6.346  -0.246   9.924 -0.5792 -0.0670  1.3108
  105OSM    H4G10754   6.222  -0.370   9.928 -0.0105  1.2636 -1.6926
  105OSM    C5F10755   6.387  -0.417   9.805 -0.0290 -0.6400 -0.1437
  105OSM    H5F10756   6.389  -0.526   9.826 -0.4322 -0.5317  0.4643
  105OSM    H5G10757   6.487  -0.373   9.786 -0.9787  1.3987 -0.6829
  105OSM    C6F10758   6.298  -0.399   9.678 -0.1210 -0.0158 -0.4807
  105OSM    H6F10759   6.266  -0.294   9.660 -3.2289 -0.3140  2.4311
  105OSM    H6G10760   6.208  -0.455   9.710 -0.9364  1.6514  0.2505
  105OSM    C7F10761   6.362  -0.468   9.556  0.1241  0.3430 -0.1877
  105OSM    H7F10762   6.381  -0.575   9.574  0.1340  0.0698 -1.6620
  105OSM    H7G10763   6.457  -0.413   9.540 -0.4091  0.8226 -2.0487
  105OSM    C8F10764   6.278  -0.432   9.433  0.0790 -0.2917  0.8252
  105OSM    H8F10765   6.255  -0.323   9.434 -0.0097 -0.2567 -1.1430
  105OSM    H8G10766   6.177  -0.479   9.438  0.4161 -0.9395  1.9014
  105OSM    C9F10767   6.336  -0.464   9.297  1.0780  0.0998 -1.4204
  105OSM    H9F10768   6.388  -0.561   9.302  0.0530 -0.4511 -1.0076
  105OSM   C10F10769   6.319  -0.405   9.185 -0.3517  0.9976  0.2438
  105OSM   H10F10770   6.384  -0.441   9.104  2.0053  0.4165  2.2703
  105OSM   C11F10771   6.236  -0.285   9.155  0.1357 -0.5602  0.5505
  105OSM   H11F10772   6.253  -0.219   9.242 -0.6389  1.5066 -0.8086
  105OSM   H11G10773   6.129  -0.314   9.159 -0.3579  1.0889 -0.0142
  105OSM   C12F10774   6.268  -0.207   9.017 -0.7583  0.0476 -0.1185
  105OSM   H12F10775   6.376  -0.187   9.002 -0.5855  0.4145  1.4251
  105OSM   H12G10776   6.214  -0.110   9.020 -1.4331 -0.2062 -2.1177
  105OSM   C13F10777   6.219  -0.298   8.896 -0.6200 -0.6299  0.4527
  105OSM   H13F10778   6.292  -0.380   8.878 -0.2890  0.0699 -1.6627
  105OSM   H13G10779   6.212  -0.227   8.811 -1.0744  0.1387  1.1104
  105OSM   C14F10780   6.076  -0.359   8.915 -0.0980  0.2585  0.3363
  105OSM   H14F10781   5.994  -0.285   8.918 -0.6121 -0.3003  0.3705
  105OSM   H14G10782   6.072  -0.420   9.008  0.5504  0.0596  0.2410
  105OSM   C15F10783   6.045  -0.443   8.790  0.5020 -0.6766 -0.2960
  105OSM   H15F10784   6.127  -0.518   8.789  1.6553  0.5103  1.0579
  105OSM   H15G10785   6.049  -0.393   8.691  0.1925 -0.5564 -0.2480
  105OSM   C16F10786   5.912  -0.517   8.796  0.7340 -0.7678 -0.4407
  105OSM   H16F10787   5.833  -0.439   8.801  0.1135 -1.2025 -2.6899
  105OSM   H16G10788   5.896  -0.569   8.893 -2.1365 -0.8968 -0.8973
  105OSM   C17F10789   5.896  -0.625   8.686 -0.5205 -0.2888 -0.0863
  105OSM   H17F10790   5.981  -0.697   8.690  0.0523  0.3241 -1.0416
  105OSM   H17G10791   5.910  -0.579   8.586  0.8011 -0.2685  0.0833
  105OSM   C18F10792   5.762  -0.692   8.696 -0.0932 -0.4603 -0.0508
  105OSM   H18F10793   5.757  -0.767   8.614  1.9650 -0.9757  0.2356
  105OSM   H18G10794   5.682  -0.616   8.683 -1.4870 -2.2642 -2.8896
  105OSM   H18H10795   5.732  -0.733   8.795 -2.1259  0.1660 -0.3781
  106OSM      N10796   6.521   4.455  11.201 -0.4194  0.1604 -0.3492
  106OSM    C1510797   6.553   4.607  11.204 -0.1410  0.5499  1.0742
  106OSM   H15A10798   6.529   4.654  11.110  0.4436 -0.7527  0.2360
  106OSM   H15B10799   6.659   4.626  11.214 -0.1914  1.2387  0.3611
  106OSM   H15C10800   6.506   4.655  11.289 -0.9958 -0.3706  1.1440
  106OSM    C1410801   6.558   4.403  11.336  0.6255 -0.6293 -0.5477
  106OSM   H14A10802   6.657   4.439  11.360  0.2695 -1.6312  2.9662
  106OSM   H14B10803   6.559   4.295  11.344  0.7625 -0.5048  2.7403
  106OSM   H14C10804   6.490   4.433  11.414  1.8641 -0.4036  0.4900
  106OSM    C1310805   6.372   4.439  11.177 -0.1047  0.3433 -0.4984
  106OSM   H13A10806   6.349   4.467  11.075  0.1602  0.3930 -0.5442
  106OSM   H13B10807   6.304   4.505  11.230 -1.2554  0.3557 -1.9208
  106OSM   H13C10808   6.348   4.335  11.191  0.3088  0.3575  0.3921
  106OSM    C1210809   6.595   4.393  11.086  0.5048  0.2585 -0.0311
  106OSM   H12A10810   6.570   4.433  10.989  0.6073 -1.4173 -0.7951
  106OSM   H12B10811   6.564   4.290  11.077  1.7789 -0.1798  0.3595
  106OSM    C1110812   6.745   4.401  11.098  0.2543 -0.0605  0.2911
  106OSM   H11A10813   6.791   4.310  11.054  0.6330 -0.1074  0.7834
  106OSM   H11B10814   6.772   4.378  11.203 -1.2139 -3.0280  0.1114
  106OSM      P10815   6.775   4.558  10.888  0.1702 -0.1988 -0.2867
  106OSM    O1310816   6.639   4.610  10.868 -0.3887 -0.0373 -0.3379
  106OSM    O1410817   6.882   4.641  10.832 -0.0677 -0.3018 -0.5666
  106OSM    O1110818   6.781   4.418  10.817  0.3019  0.3172 -0.4172
  106OSM    O1210819   6.796   4.527  11.047 -0.5447  0.0159  0.5032
  106OSM    C1S10820   6.779   4.418  10.672  0.4379 -0.5618  0.2891
  106OSM    H1S10821   6.755   4.512  10.619  2.1179  0.2419  0.8811
  106OSM    H1T10822   6.698   4.348  10.641  2.6344 -1.2447 -4.9843
  106OSM     NF10823   6.875   4.315  10.469  0.1669 -0.6163  0.0914
  106OSM    HNF10824   6.873   4.219  10.441  0.8171 -0.5739 -0.1266
  106OSM    C2S10825   6.906   4.354  10.609 -0.7274  0.2024  0.0924
  106OSM    H2S10826   6.979   4.437  10.611  0.3333 -0.7058  2.8524
  106OSM    C3S10827   6.973   4.236  10.699 -1.2462 -0.8648 -0.5934
  106OSM    H3S10828   6.896   4.157  10.707 -2.0002  0.0530  2.7651
  106OSM     O310829   6.989   4.272  10.838  0.3702  0.6904  0.4860
  106OSM    HO310830   6.914   4.327  10.859 -1.1906 -0.8503 -0.7498
  106OSM    C4S10831   7.098   4.185  10.636 -0.2651 -0.0607  0.0649
  106OSM    H4S10832   7.066   4.102  10.571  2.0238  0.1390 -1.4390
  106OSM    C5S10833   7.229   4.228  10.632 -1.0692  0.4165 -0.1643
  106OSM    H5S10834   7.245   4.321  10.688  1.1173 -0.9674  1.6804
  106OSM    C6S10835   7.340   4.175  10.546  0.3588  0.2869 -0.0493
  106OSM    H6S10836   7.418   4.124  10.606  0.3892  1.1356  0.6510
  106OSM    H6T10837   7.397   4.264  10.512  0.2792  1.8029  3.3744
  106OSM    C7S10838   7.300   4.093  10.420  0.5884  0.3261 -0.0015
  106OSM    H7S10839   7.247   4.000  10.448  2.4315 -1.2297 -1.4052
  106OSM    H7T10840   7.392   4.067  10.363 -0.7828 -4.8256 -0.3924
  106OSM    C8S10841   7.226   4.179  10.313 -0.6126  0.2437 -0.8608
  106OSM    H8S10842   7.261   4.284  10.307 -0.4285  0.3729  1.4407
  106OSM    H8T10843   7.120   4.173  10.344 -1.2488 -0.9007 -3.0788
  106OSM    C9S10844   7.242   4.115  10.174  0.0580  0.2825 -0.3442
  106OSM    H9S10845   7.222   4.006  10.180  1.6028 -0.1006 -1.4562
  106OSM    H9T10846   7.345   4.116  10.131  0.6062 -2.6290  0.7170
  106OSM   C10S10847   7.142   4.162  10.063  0.2841  0.1580 -0.1139
  106OSM   H10S10848   7.162   4.270  10.047 -2.2453  0.3559 -2.8224
  106OSM   H10T10849   7.041   4.142  10.104  0.1849 -1.0696 -0.8882
  106OSM   C11S10850   7.155   4.087   9.931 -0.2100 -0.8525 -0.6192
  106OSM   H11S10851   7.113   3.984   9.928 -2.2702 -0.2916  2.8503
  106OSM   H11T10852   7.261   4.074   9.901 -0.0556 -0.0869 -0.4477
  106OSM   C12S10853   7.084   4.169   9.820 -0.1729 -0.3153  0.8996
  106OSM   H12S10854   7.129   4.270   9.824 -0.4685 -0.1734  0.6980
  106OSM   H12T10855   6.978   4.177   9.852 -0.0877 -0.5486  1.2476
  106OSM   C13S10856   7.104   4.106   9.680 -0.2427 -0.1265 -0.7048
  106OSM   H13S10857   7.071   4.000   9.677 -1.9686  0.2405  1.7853
  106OSM   H13T10858   7.214   4.100   9.665 -0.2754 -0.3660 -0.8617
  106OSM   C14S10859   7.032   4.193   9.571  0.4115  0.0222  0.5751
  106OSM   H14S10860   7.070   4.297   9.583  0.7946  0.4388 -2.9799
  106OSM   H14T10861   6.923   4.198   9.596  0.1747  1.6356 -0.6171
  106OSM   C15S10862   7.059   4.146   9.429 -0.1060 -0.2843 -0.6040
  106OSM   H15S10863   7.169   4.140   9.420  0.0036 -1.9118  1.0796
  106OSM   H15T10864   7.017   4.221   9.358 -0.9067  0.7243  0.8696
  106OSM   C16S10865   6.997   4.008   9.395  0.0752 -0.1738 -0.6515
  106OSM   H16S10866   6.893   4.020   9.431  0.1465 -0.7498 -0.2367
  106OSM   H16T10867   7.027   3.918   9.452 -3.3704 -1.2477 -0.3053
  106OSM   C17S10868   7.005   3.964   9.249 -0.2506 -0.5909 -0.1172
  106OSM   H17S10869   7.110   3.953   9.213 -0.6835 -2.0177 -1.0496
  106OSM   H17T10870   6.964   4.048   9.188 -0.2330 -0.5256 -0.0390
  106OSM   C18S10871   6.927   3.839   9.212 -0.5935  0.3460  0.3477
  106OSM   H18S10872   6.937   3.820   9.103 -0.9299  1.0501  0.1870
  106OSM   H18T10873   6.819   3.860   9.231 -1.3042 -0.4872 -2.2075
  106OSM   H18U10874   6.967   3.757   9.275 -0.5469  0.3738  0.3530
  106OSM    C1F10875   6.840   4.411  10.383 -0.4940 -0.3282  0.1560
  106OSM     OF10876   6.873   4.527  10.406 -0.0021  0.0356  0.0126
  106OSM    C2F10877   6.808   4.351  10.248  0.4063 -0.7344  0.1137
  106OSM    H2F10878   6.737   4.268  10.269 -0.7667  0.1336 -0.3117
  106OSM    H2G10879   6.899   4.307  10.202  0.0593 -1.8204  0.4236
  106OSM    C3F10880   6.744   4.454  10.153  0.1749 -0.3968 -0.2125
  106OSM    H3F10881   6.821   4.533  10.137  1.0737 -0.7046  2.2028
  106OSM    H3G10882   6.651   4.501  10.192  0.4423  0.2533 -0.3334
  106OSM    C4F10883   6.722   4.393  10.013  1.0255  0.1220  0.3137
  106OSM    H4F10884   6.820   4.355   9.978  1.8757 -1.4471  3.9100
  106OSM    H4G10885   6.677   4.468   9.944  1.0398 -0.3332 -0.1951
  106OSM    C5F10886   6.634   4.265  10.009 -0.4467  0.1422  0.2693
  106OSM    H5F10887   6.544   4.279  10.072  0.8443  2.4498  1.7265
  106OSM    H5G10888   6.685   4.184  10.065 -0.6507  1.1333  1.9690
  106OSM    C6F10889   6.617   4.217   9.861  0.2609  0.5152  0.4942
  106OSM    H6F10890   6.569   4.117   9.858  0.3262  0.4739  0.7815
  106OSM    H6G10891   6.716   4.207   9.813 -0.1434  0.2327 -0.3025
  106OSM    C7F10892   6.528   4.308   9.770  0.1520 -0.2631  0.3150
  106OSM    H7F10893   6.562   4.414   9.764  0.7476 -0.4994 -0.7344
  106OSM    H7G10894   6.437   4.319   9.833 -0.4568 -2.1218 -0.1779
  106OSM    C8F10895   6.510   4.254   9.625  0.1973 -0.4047  0.0430
  106OSM    H8F10896   6.417   4.298   9.583  0.9984 -0.2450 -1.5993
  106OSM    H8G10897   6.494   4.146   9.643  0.3320 -0.0850  2.5194
  106OSM    C9F10898   6.633   4.281   9.533 -0.2625  0.2139  0.1254
  106OSM    H9F10899   6.725   4.312   9.585  0.7487 -0.9096 -0.9233
  106OSM   C10F10900   6.648   4.261   9.400 -0.1380 -0.6672  0.3803
  106OSM   H10F10901   6.741   4.279   9.344 -0.7142 -0.2368 -0.4475
  106OSM   C11F10902   6.536   4.218   9.306 -0.3604 -0.0775 -0.4424
  106OSM   H11F10903   6.469   4.166   9.378  0.4644  1.2538  1.3842
  106OSM   H11G10904   6.574   4.146   9.231  2.4978  0.9008 -0.0632
  106OSM   C12F10905   6.472   4.343   9.242  0.9758  0.6256  0.0149
  106OSM   H12F10906   6.552   4.395   9.187 -1.4418  0.8719 -3.6534
  106OSM   H12G10907   6.442   4.415   9.321 -0.2938  2.3349 -1.8966
  106OSM   C13F10908   6.359   4.308   9.146 -0.0550  0.5095 -0.4423
  106OSM   H13F10909   6.322   4.402   9.100 -1.1935 -0.6772 -2.0907
  106OSM   H13G10910   6.271   4.270   9.202  0.0156  0.9115 -0.0552
  106OSM   C14F10911   6.398   4.213   9.028  0.2199 -0.1705 -0.4033
  106OSM   H14F10912   6.420   4.113   9.069 -0.6503  0.7292  2.4650
  106OSM   H14G10913   6.492   4.251   8.983 -0.4653 -0.2074 -1.9511
  106OSM   C15F10914   6.286   4.219   8.918 -0.2119 -0.4342 -0.0687
  106OSM   H15F10915   6.275   4.329   8.902 -2.7073 -0.1526  2.7046
  106OSM   H15G10916   6.194   4.182   8.969 -0.9753  0.5753 -0.6568
  106OSM   C16F10917   6.321   4.139   8.783  0.0237 -0.8797  0.0991
  106OSM   H16F10918   6.290   4.035   8.805 -1.7871 -0.7073 -1.3471
  106OSM   H16G10919   6.430   4.137   8.760  0.0773 -0.7009  0.3367
  106OSM   C17F10920   6.241   4.189   8.670 -1.1340  0.2051 -1.0178
  106OSM   H17F10921   6.277   4.292   8.645 -3.3387  0.8658 -1.6794
  106OSM   H17G10922   6.131   4.199   8.682 -0.8322  1.3361  1.4574
  106OSM   C18F10923   6.282   4.096   8.556  0.6606 -1.0539 -0.8222
  106OSM   H18F10924   6.390   4.077   8.571  0.2969 -1.3415  2.0411
  106OSM   H18G10925   6.268   4.125   8.450 -2.0950 -1.3506 -0.6233
  106OSM   H18H10926   6.235   3.995   8.568  1.1491 -1.0296  1.7783
  107OSM      N10927   1.750   2.411  11.166  0.0497 -0.8208  0.0419
  107OSM    C1510928   1.871   2.465  11.234 -0.0362 -0.0544  0.1889
  107OSM   H15A10929   1.906   2.394  11.307 -2.1515 -1.5525 -0.1632
  107OSM   H15B10930   1.836   2.560  11.271 -2.2510 -0.5688 -0.4405
  107OSM   H15C10931   1.953   2.474  11.163  0.6228 -0.3891  0.8983
  107OSM    C1410932   1.634   2.447  11.258  0.0680  0.3554  0.0546
  107OSM   H14A10933   1.620   2.554  11.259  1.3402  0.6123 -2.0749
  107OSM   H14B10934   1.645   2.411  11.359  2.8575  0.8609 -0.0023
  107OSM   H14C10935   1.550   2.396  11.213 -0.3231  1.2771 -0.2778
  107OSM    C1310936   1.731   2.503  11.040 -0.0110  0.4888 -0.1696
  107OSM   H13A10937   1.807   2.479  10.967  0.1635 -1.2085  0.5418
  107OSM   H13B10938   1.741   2.610  11.049 -2.3245  0.8510 -1.2754
  107OSM   H13C10939   1.636   2.482  10.994 -0.3215  0.8841  0.2795
  107OSM    C1210940   1.759   2.270  11.117  0.0085  0.3004 -0.2025
  107OSM   H12A10941   1.785   2.204  11.199  0.2095 -0.9384 -1.2345
  107OSM   H12B10942   1.840   2.256  11.048 -0.1896  0.5338 -0.4829
  107OSM    C1110943   1.629   2.209  11.053  0.1136 -0.1602 -0.0668
  107OSM   H11A10944   1.661   2.107  11.023 -0.3594 -0.7442  1.3762
  107OSM   H11B10945   1.600   2.275  10.968 -3.5832 -0.6017  0.7058
  107OSM      P10946   1.381   2.151  11.127  0.1243  0.4499  0.5362
  107OSM    O1310947   1.351   2.014  11.173 -0.3738  0.4603  0.0387
  107OSM    O1410948   1.296   2.258  11.182  0.0839 -0.5210  0.3492
  107OSM    O1110949   1.376   2.157  10.973  0.2233  0.0943  0.0006
  107OSM    O1210950   1.525   2.186  11.158 -0.3313 -0.0506  0.6576
  107OSM    C1S10951   1.409   2.054  10.876 -0.6658  0.4694  0.1029
  107OSM    H1S10952   1.370   1.956  10.911  0.5340  0.1584  0.6207
  107OSM    H1T10953   1.516   2.035  10.857 -0.6412 -0.3818  1.0371
  107OSM     NF10954   1.385   1.966  10.641 -0.2673 -0.0360  0.1726
  107OSM    HNF10955   1.444   1.986  10.563  0.2386 -1.2900  0.2078
  107OSM    C2S10956   1.357   2.081  10.727 -0.3649 -0.5214 -0.4282
  107OSM    H2S10957   1.246   2.085  10.732 -0.3214 -0.8395  3.1387
  107OSM    C3S10958   1.420   2.220  10.680 -0.2957  0.6353  0.0940
  107OSM    H3S10959   1.527   2.193  10.669  0.3588  3.3041 -0.9152
  107OSM     O310960   1.409   2.324  10.773 -0.2922 -0.3788 -0.3711
  107OSM    HO310961   1.387   2.268  10.848  1.3430 -2.1523 -1.1696
  107OSM    C4S10962   1.364   2.263  10.549 -0.2831  0.2880 -0.6723
  107OSM    H4S10963   1.256   2.280  10.555 -0.0905  1.1288  2.7864
  107OSM    C5S10964   1.431   2.285  10.436  0.0537 -0.1683  0.0457
  107OSM    H5S10965   1.540   2.278  10.423 -0.0608 -1.7871 -0.2135
  107OSM    C6S10966   1.345   2.321  10.314 -0.2658  0.8796 -0.2505
  107OSM    H6S10967   1.404   2.274  10.232  1.0883  0.8879  0.6858
  107OSM    H6T10968   1.337   2.429  10.289 -0.5825  0.8055 -0.4719
  107OSM    C7S10969   1.197   2.275  10.301  0.4105 -0.1443  0.1889
  107OSM    H7S10970   1.128   2.316  10.378 -0.5730  0.1342 -0.8202
  107OSM    H7T10971   1.186   2.165  10.315  1.5898 -0.1622  1.1679
  107OSM    C8S10972   1.138   2.306  10.162 -0.5089  0.3557  0.9515
  107OSM    H8S10973   1.113   2.414  10.163  0.7192  0.6642  2.0624
  107OSM    H8T10974   1.038   2.258  10.160 -1.0602  1.4900 -0.6047
  107OSM    C9S10975   1.223   2.274  10.044  0.3330 -0.0054 -0.3469
  107OSM    H9S10976   1.250   2.168  10.061  1.0881  0.4618  1.7184
  107OSM    H9T10977   1.319   2.329  10.037 -0.9749  2.7693  1.4221
  107OSM   C10S10978   1.140   2.291   9.915  0.5437 -0.5830 -0.1797
  107OSM   H10S10979   1.134   2.401   9.901 -0.8593 -0.7128 -0.6836
  107OSM   H10T10980   1.041   2.246   9.935 -0.3227  0.5275 -1.8518
  107OSM   C11S10981   1.212   2.232   9.794  0.6618  0.2190 -0.7665
  107OSM   H11S10982   1.210   2.121   9.801 -1.2562  0.2358 -0.6932
  107OSM   H11T10983   1.314   2.275   9.787  1.0961 -0.4062  1.0948
  107OSM   C12S10984   1.128   2.262   9.667  0.3676  0.6547 -0.0411
  107OSM   H12S10985   1.152   2.357   9.615 -1.3441  1.0129 -0.2568
  107OSM   H12T10986   1.020   2.271   9.692  0.3826  0.0817  0.2583
  107OSM   C13S10987   1.142   2.149   9.560 -0.0364  0.2205  0.1996
  107OSM   H13S10988   1.087   2.060   9.598 -0.0859 -0.1033 -0.6078
  107OSM   H13T10989   1.248   2.118   9.550  0.0084  0.1965  0.7352
  107OSM   C14S10990   1.085   2.194   9.422  0.5098 -0.0615  0.0819
  107OSM   H14S10991   1.016   2.280   9.439 -1.2919 -1.4817  0.3129
  107OSM   H14T10992   1.038   2.107   9.370 -1.6251  0.2501  1.3739
  107OSM   C15S10993   1.194   2.246   9.337  0.1383  0.2144  0.4013
  107OSM   H15S10994   1.277   2.173   9.331 -1.4692 -1.5928 -1.9051
  107OSM   H15T10995   1.221   2.343   9.384  0.0760  1.5578 -2.2065
  107OSM   C16S10996   1.150   2.269   9.194  0.4005 -0.0167 -1.0095
  107OSM   H16S10997   1.096   2.180   9.154 -0.3405  0.4338 -1.0209
  107OSM   H16T10998   1.241   2.275   9.130  0.6794 -1.9374 -0.8638
  107OSM   C17S10999   1.061   2.395   9.173 -0.1004 -0.4557  0.8203
  107OSM   H17S11000   1.109   2.483   9.221 -0.8466  1.2073 -1.2844
  107OSM   H17T11001   0.969   2.373   9.231 -0.6007 -1.6780 -0.3844
  107OSM   C18S11002   1.028   2.418   9.024 -0.0124 -0.0447  0.4063
  107OSM   H18S11003   0.985   2.323   8.987 -0.6338  0.7788 -1.0761
  107OSM   H18T11004   1.124   2.451   8.979 -0.6093 -1.5294 -2.1277
  107OSM   H18U11005   0.953   2.499   9.008 -0.2384 -0.3489 -0.0536
  107OSM    C1F11006   1.337   1.840  10.659  0.7688 -0.2046 -0.3870
  107OSM     OF11007   1.261   1.815  10.751  0.4466  0.0933  0.5262
  107OSM    C2F11008   1.386   1.742  10.558  0.3456  0.5053  0.3881
  107OSM    H2F11009   1.473   1.688  10.602 -0.6695 -2.3152 -0.8590
  107OSM    H2G11010   1.416   1.801  10.469 -0.1277 -0.2483 -0.2774
  107OSM    C3F11011   1.286   1.629  10.520  0.7569  0.5142 -0.4871
  107OSM    H3F11012   1.180   1.664  10.528  1.3504  2.2156  0.4235
  107OSM    H3G11013   1.304   1.547  10.592  0.4467  0.5410 -0.3767
  107OSM    C4F11014   1.299   1.585  10.375  0.1245 -0.3752 -0.2456
  107OSM    H4F11015   1.401   1.542  10.364  0.6992  1.2054 -1.4562
  107OSM    H4G11016   1.291   1.668  10.302 -1.6434 -2.3124 -2.4369
  107OSM    C5F11017   1.192   1.482  10.330  0.1950  0.1252 -0.6746
  107OSM    H5F11018   1.096   1.532  10.307  1.2667  1.8707 -1.5700
  107OSM    H5G11019   1.177   1.417  10.419  0.6664 -1.1628 -1.5166
  107OSM    C6F11020   1.236   1.392  10.206  0.0971 -0.0420  0.4222
  107OSM    H6F11021   1.154   1.319  10.189 -1.4250  1.6783 -0.0009
  107OSM    H6G11022   1.321   1.325  10.232 -1.3734 -1.5144  1.6279
  107OSM    C7F11023   1.265   1.473  10.076  0.8137 -0.2314 -0.5336
  107OSM    H7F11024   1.359   1.531  10.092  0.3707 -0.1659  2.1324
  107OSM    H7G11025   1.181   1.544  10.061 -0.6165 -1.7648 -0.0464
  107OSM    C8F11026   1.307   1.378   9.967 -0.3401  0.5597  0.3682
  107OSM    H8F11027   1.396   1.318   9.996  1.2526  2.7302  0.2960
  107OSM    H8G11028   1.347   1.445   9.888  1.6802  0.4973  1.2605
  107OSM    C9F11029   1.205   1.290   9.913  0.0842  0.6630 -0.3255
  107OSM    H9F11030   1.144   1.255   9.998 -1.5877  2.1592 -0.8512
  107OSM   C10F11031   1.177   1.260   9.780  0.6129  0.3927 -1.2272
  107OSM   H10F11032   1.085   1.201   9.764 -0.4141  0.3526  3.4237
  107OSM   C11F11033   1.238   1.319   9.662 -0.4657 -0.2410  0.4474
  107OSM   H11F11034   1.261   1.424   9.688 -1.8030 -0.0700  1.0265
  107OSM   H11G11035   1.168   1.337   9.578  0.3226 -1.1759 -0.4379
  107OSM   C12F11036   1.369   1.247   9.604  0.1694 -0.3741 -0.8568
  107OSM   H12F11037   1.434   1.237   9.694 -0.7699 -0.0927 -0.1267
  107OSM   H12G11038   1.414   1.315   9.529  0.3043 -0.7384 -1.1086
  107OSM   C13F11039   1.350   1.112   9.533  0.7237  0.3103 -0.7099
  107OSM   H13F11040   1.289   1.052   9.604  1.4546 -1.2555 -1.3600
  107OSM   H13G11041   1.442   1.049   9.538 -1.0842 -2.4434  0.7618
  107OSM   C14F11042   1.293   1.125   9.398  0.0192  0.2064 -0.2340
  107OSM   H14F11043   1.206   1.194   9.397  0.2152  0.4508 -0.3861
  107OSM   H14G11044   1.247   1.028   9.371 -0.8285  0.7016 -0.6081
  107OSM   C15F11045   1.405   1.158   9.293 -0.2606 -0.1870 -0.3143
  107OSM   H15F11046   1.497   1.099   9.309 -1.6801 -1.8663  2.3130
  107OSM   H15G11047   1.423   1.266   9.312 -0.9051  0.2200 -1.7996
  107OSM   C16F11048   1.367   1.141   9.139  0.1936  0.7405 -0.2077
  107OSM   H16F11049   1.276   1.204   9.129 -1.1440 -0.9073  1.0641
  107OSM   H16G11050   1.345   1.037   9.106  0.4592  0.5397  0.2449
  107OSM   C17F11051   1.469   1.216   9.051 -0.0885  1.0467 -0.3428
  107OSM   H17F11052   1.563   1.157   9.056  0.0396  1.3473  1.4439
  107OSM   H17G11053   1.492   1.323   9.072  2.9983  0.6581 -1.2854
  107OSM   C18F11054   1.426   1.202   8.905 -0.1126 -0.3839  0.0583
  107OSM   H18F11055   1.341   1.272   8.891  1.5580  2.0332  1.1714
  107OSM   H18G11056   1.399   1.098   8.878 -2.4310 -0.0412  0.8175
  107OSM   H18H11057   1.517   1.234   8.850  0.5410  0.3055  1.4679
  108OSM      N11058   4.250   6.291  11.298 -0.1248 -0.2241 -0.3882
  108OSM    C1511059   4.281   6.438  11.319  0.0816 -0.0976  0.1411
  108OSM   H15A11060   4.258   6.472  11.419 -1.6496 -1.2039  0.1596
  108OSM   H15B11061   4.225   6.501  11.251  0.9587  0.5046 -0.0440
  108OSM   H15C11062   4.387   6.457  11.312 -0.1291  1.0847 -0.1581
  108OSM    C1411063   4.323   6.221  11.407 -0.6718  0.5328  0.3176
  108OSM   H14A11064   4.278   6.124  11.422  0.4737  0.1692  1.5322
  108OSM   H14B11065   4.311   6.276  11.499 -0.7158  2.1123 -0.6035
  108OSM   H14C11066   4.430   6.220  11.390 -0.7050  1.7961 -0.0499
  108OSM    C1311067   4.105   6.260  11.328  0.4446 -0.3979  0.0037
  108OSM   H13A11068   4.069   6.160  11.311  2.0262 -0.6474 -2.5440
  108OSM   H13B11069   4.048   6.307  11.248  1.9292 -0.6179 -1.2330
  108OSM   H13C11070   4.065   6.298  11.421  0.2816  1.5353 -0.8004
  108OSM    C1211071   4.286   6.240  11.164 -0.1604  0.1935 -0.2768
  108OSM   H12A11072   4.270   6.133  11.158  1.3564 -0.1049  0.5318
  108OSM   H12B11073   4.389   6.260  11.139  0.3477 -2.0195 -0.1530
  108OSM    C1111074   4.198   6.283  11.039 -0.1228  0.0545 -0.5039
  108OSM   H11A11075   4.100   6.250  11.079  1.4900 -2.0890  1.9730
  108OSM   H11B11076   4.229   6.230  10.947  2.2294  1.1895 -0.4392
  108OSM      P11077   4.316   6.502  10.962 -0.2227 -0.3560 -0.3353
  108OSM    O1311078   4.319   6.643  11.006 -0.2878 -0.1491  0.3296
  108OSM    O1411079   4.431   6.419  10.987 -0.3600 -0.4748 -1.1636
  108OSM    O1111080   4.280   6.493  10.803  0.2212  0.0574 -0.4308
  108OSM    O1211081   4.195   6.429  11.021 -0.5214  0.1592  0.4591
  108OSM    C1S11082   4.144   6.484  10.761  0.4788 -0.3930  0.5660
  108OSM    H1S11083   4.098   6.583  10.783 -0.5882 -0.4094 -1.3324
  108OSM    H1T11084   4.097   6.406  10.824  1.1285  0.4498  2.1534
  108OSM     NF11085   3.978   6.431  10.606 -0.1472 -0.1713  0.3039
  108OSM    HNF11086   3.937   6.341  10.616  2.4406 -1.5578 -0.6433
  108OSM    C2S11087   4.125   6.442  10.613  0.5684  0.4234  0.0635
  108OSM    H2S11088   4.157   6.525  10.546 -1.6372  1.1414 -0.1704
  108OSM    C3S11089   4.210   6.307  10.592  0.1873  0.0255  0.6157
  108OSM    H3S11090   4.188   6.239  10.678 -2.2602  0.2585  0.2653
  108OSM     O311091   4.346   6.326  10.593 -0.0361  0.6350 -0.0665
  108OSM    HO311092   4.356   6.397  10.657  1.5923 -1.5370  2.3251
  108OSM    C4S11093   4.170   6.251  10.460 -0.1222 -0.2570  0.8036
  108OSM    H4S11094   4.231   6.291  10.377  1.8211 -1.7852  1.4231
  108OSM    C5S11095   4.080   6.149  10.444  0.2899  0.8060  0.4716
  108OSM    H5S11096   4.031   6.099  10.529  2.6875 -0.0518  1.4392
  108OSM    C6S11097   4.042   6.096  10.305  0.0513  0.4333  0.1168
  108OSM    H6S11098   3.936   6.116  10.279 -0.4611 -1.6802  0.4203
  108OSM    H6T11099   4.052   5.986  10.305 -3.5130 -0.0524  2.1918
  108OSM    C7S11100   4.118   6.172  10.192 -0.3131  0.1295  0.2712
  108OSM    H7S11101   4.227   6.150  10.197 -0.2856  0.3317  0.5634
  108OSM    H7T11102   4.092   6.280  10.194 -2.0839 -0.2579 -0.0974
  108OSM    C8S11103   4.077   6.120  10.044  0.6809  0.3981  0.2191
  108OSM    H8S11104   3.970   6.150  10.035  0.0841 -0.6020  2.8604
  108OSM    H8T11105   4.095   6.011  10.034  3.1757  0.9301 -1.9695
  108OSM    C9S11106   4.156   6.180   9.939 -0.3711  0.4442 -0.1848
  108OSM    H9S11107   4.254   6.128   9.939  0.0319  1.1783 -1.0498
  108OSM    H9T11108   4.177   6.289   9.949 -2.5697  1.0332 -1.3669
  108OSM   C10S11109   4.093   6.158   9.798 -0.1702  0.0279 -0.4028
  108OSM   H10S11110   4.147   6.218   9.721  2.3643 -0.8082  0.6170
  108OSM   H10T11111   3.988   6.194   9.793 -0.5872 -1.2436 -1.2493
  108OSM   C11S11112   4.090   6.015   9.754 -0.1110  0.4962  0.4877
  108OSM   H11S11113   4.024   5.951   9.816 -2.7934  1.6195 -1.0421
  108OSM   H11T11114   4.190   5.968   9.768  0.2205  1.1552  0.3771
  108OSM   C12S11115   4.063   6.018   9.604 -0.4443  0.9261 -0.1070
  108OSM   H12S11116   4.119   6.096   9.549 -0.7242 -0.1750 -2.0500
  108OSM   H12T11117   3.956   6.047   9.593 -0.3065  1.0346 -1.3246
  108OSM   C13S11118   4.102   5.886   9.540 -0.2941  0.3876 -0.2357
  108OSM   H13S11119   4.039   5.806   9.584  1.2899 -1.8357 -1.8218
  108OSM   H13T11120   4.210   5.868   9.563 -0.2147  0.1190 -0.7993
  108OSM   C14S11121   4.080   5.878   9.389  0.0376 -0.0203 -0.3172
  108OSM   H14S11122   4.126   5.962   9.333 -2.0920  2.0944  0.9056
  108OSM   H14T11123   3.975   5.912   9.373 -0.7615 -0.7425  2.7603
  108OSM   C15S11124   4.117   5.740   9.331  0.0144 -0.5007 -0.0593
  108OSM   H15S11125   4.062   5.663   9.391 -0.2925 -0.4138 -0.2251
  108OSM   H15T11126   4.227   5.738   9.343  0.3415  1.2677 -2.1287
  108OSM   C16S11127   4.083   5.725   9.182 -0.0079  0.0391  0.1501
  108OSM   H16S11128   4.104   5.819   9.128  1.6681 -0.3214  0.1275
  108OSM   H16T11129   3.974   5.707   9.180 -0.4843  2.0778  2.7205
  108OSM   C17S11130   4.155   5.600   9.133  0.0247  0.1740 -0.2967
  108OSM   H17S11131   4.118   5.517   9.196 -0.7410  1.1324  0.5559
  108OSM   H17T11132   4.263   5.613   9.155  0.4488 -3.1341  0.0689
  108OSM   C18S11133   4.132   5.555   8.992 -0.4872  0.2863  0.4554
  108OSM   H18S11134   4.169   5.451   8.982  0.1081  0.4517  0.8468
  108OSM   H18T11135   4.206   5.608   8.928 -0.9622  0.5246  0.1036
  108OSM   H18U11136   4.024   5.568   8.969 -0.2225  0.5794 -0.6770
  108OSM    C1F11137   3.889   6.534  10.611 -0.4011  0.2289 -0.1728
  108OSM     OF11138   3.935   6.649  10.610 -0.6561 -0.5200 -0.3379
  108OSM    C2F11139   3.740   6.501  10.622 -0.0780  0.3814  0.0575
  108OSM    H2F11140   3.685   6.584  10.672 -1.1589  0.2581 -0.8912
  108OSM    H2G11141   3.718   6.401  10.666 -0.0232 -0.2906 -1.3811
  108OSM    C3F11142   3.683   6.505  10.478  0.2585 -0.0877  0.4757
  108OSM    H3F11143   3.694   6.603  10.427 -0.3548  0.4123  1.2848
  108OSM    H3G11144   3.573   6.489  10.491  0.1565  0.2207  0.0100
  108OSM    C4F11145   3.736   6.393  10.383  0.2627  0.1861 -0.3778
  108OSM    H4F11146   3.759   6.301  10.440 -1.1289 -0.4066 -0.7336
  108OSM    H4G11147   3.833   6.427  10.341 -0.5368  3.8876  0.3677
  108OSM    C5F11148   3.629   6.353  10.277  0.1331 -1.0368  0.2607
  108OSM    H5F11149   3.591   6.446  10.229 -0.2039 -1.3223 -0.0317
  108OSM    H5G11150   3.546   6.294  10.320  1.3819 -2.5683  0.6561
  108OSM    C6F11151   3.706   6.274  10.162  0.2984 -0.7821 -0.1566
  108OSM    H6F11152   3.733   6.173  10.199  0.9986 -0.1520  1.1223
  108OSM    H6G11153   3.803   6.321  10.138  0.4775  0.9986  3.3868
  108OSM    C7F11154   3.619   6.256  10.040 -0.0090 -0.0505 -0.0734
  108OSM    H7F11155   3.518   6.219  10.064  0.7131 -1.7497  0.4535
  108OSM    H7G11156   3.667   6.178   9.977  0.3302  2.7777 -3.6960
  108OSM    C8F11157   3.602   6.380   9.948  0.1005  0.1298 -0.1701
  108OSM    H8F11158   3.581   6.465  10.017  0.6392  0.2213 -0.1127
  108OSM    H8G11159   3.505   6.365   9.896 -0.1610 -0.3721  0.4634
  108OSM    C9F11160   3.714   6.399   9.851 -0.1426  0.4162  0.5788
  108OSM    H9F11161   3.804   6.459   9.875  1.0199  0.3006 -2.8952
  108OSM   C10F11162   3.724   6.355   9.729 -0.0837  0.4307 -0.8822
  108OSM   H10F11163   3.819   6.374   9.676  0.6261  4.3441  1.3943
  108OSM   C11F11164   3.621   6.276   9.656  0.7914 -0.2706  0.2072
  108OSM   H11F11165   3.524   6.267   9.710  0.7643  1.8618  0.5943
  108OSM   H11G11166   3.666   6.183   9.615  1.6046  1.7038 -3.8748
  108OSM   C12F11167   3.591   6.352   9.520  0.7047  0.5764  0.8818
  108OSM   H12F11168   3.543   6.452   9.533  1.1222  1.1336 -1.5108
  108OSM   H12G11169   3.521   6.281   9.472  0.9585  0.7488  0.2539
  108OSM   C13F11170   3.702   6.369   9.416 -0.1067  0.3436  0.0197
  108OSM   H13F11171   3.730   6.265   9.388 -2.0182 -0.1331 -0.2912
  108OSM   H13G11172   3.786   6.428   9.458 -0.0554  0.7636 -0.6554
  108OSM   C14F11173   3.645   6.425   9.277  0.3678 -0.5519 -0.5803
  108OSM   H14F11174   3.603   6.521   9.312  1.2311 -0.5819  0.6136
  108OSM   H14G11175   3.572   6.359   9.226 -0.6123 -1.1623  1.5166
  108OSM   C15F11176   3.758   6.431   9.174  0.0964 -0.0684  0.2947
  108OSM   H15F11177   3.792   6.328   9.152  1.1626 -0.1309  2.0517
  108OSM   H15G11178   3.843   6.477   9.230  1.8487 -1.8841 -0.7572
  108OSM   C16F11179   3.734   6.506   9.045  0.0014 -0.3472 -0.1135
  108OSM   H16F11180   3.830   6.526   8.993  1.0958 -2.4662  0.9640
  108OSM   H16G11181   3.684   6.604   9.062  0.9965  0.2133 -0.3418
  108OSM   C17F11182   3.650   6.434   8.940  0.8795 -0.4707 -0.0365
  108OSM   H17F11183   3.555   6.388   8.975  0.2714 -0.3384 -1.4261
  108OSM   H17G11184   3.707   6.340   8.922  0.0818 -1.5208  2.4462
  108OSM   C18F11185   3.612   6.512   8.812 -0.2722 -0.0564  0.1774
  108OSM   H18F11186   3.706   6.511   8.754  0.6804  2.0723  1.5615
  108OSM   H18G11187   3.580   6.615   8.839 -0.4310  0.2596 -1.1817
  108OSM   H18H11188   3.537   6.471   8.741  1.2609  0.6074 -1.9208
  109OSM      N11189   5.743   0.824  11.212  0.1314  0.3331 -1.1462
  109OSM    C1511190   5.667   0.720  11.147  0.3944 -0.0162  0.8830
  109OSM   H15A11191   5.572   0.710  11.197  0.3888  0.3756  0.9523
  109OSM   H15B11192   5.716   0.624  11.138 -0.9593 -0.6290 -0.5066
  109OSM   H15C11193   5.652   0.751  11.045  1.7286 -2.0744 -0.0122
  109OSM    C1411194   5.654   0.948  11.226 -0.4115  0.6557 -0.2909
  109OSM   H14A11195   5.705   1.023  11.284 -3.3192  1.3651  1.5166
  109OSM   H14B11196   5.562   0.919  11.275  0.0411  0.2308  0.3302
  109OSM   H14C11197   5.636   0.984  11.126  0.5888  1.3784 -0.2292
  109OSM    C1311198   5.773   0.769  11.348  0.1625  1.0352 -0.1180
  109OSM   H13A11199   5.680   0.749  11.399 -0.8997  1.6346 -1.7386
  109OSM   H13B11200   5.834   0.835  11.408  2.1133 -0.3021 -0.5109
  109OSM   H13C11201   5.818   0.671  11.337 -0.8203  0.4793  0.7269
  109OSM    C1211202   5.874   0.836  11.141 -0.0867  0.2332 -1.2075
  109OSM   H12A11203   5.916   0.736  11.132 -0.4906 -0.0900  0.1882
  109OSM   H12B11204   5.932   0.894  11.211  1.0678 -1.5614 -0.5961
  109OSM    C1111205   5.874   0.908  11.002 -0.3691 -0.5588 -0.1250
  109OSM   H11A11206   5.983   0.913  10.983  0.8025 -1.0488  4.9483
  109OSM   H11B11207   5.843   1.014  11.017 -1.6719 -0.8749 -0.4611
  109OSM      P11208   5.872   0.700  10.841  0.2276 -0.1366 -0.1708
  109OSM    O1311209   6.004   0.664  10.899  0.0273  0.6664  0.2119
  109OSM    O1411210   5.772   0.596  10.840  0.4249  0.5744  0.7079
  109OSM    O1111211   5.888   0.747  10.688  0.3846 -0.1256  0.5640
  109OSM    O1211212   5.804   0.832  10.905 -0.5594  0.0609  0.3081
  109OSM    C1S11213   5.959   0.870  10.676 -0.2843 -0.0799  0.6076
  109OSM    H1S11214   6.058   0.880  10.726 -0.7582  1.4018  1.3326
  109OSM    H1T11215   5.908   0.957  10.723 -3.4644 -2.0526  1.0805
  109OSM     NF11216   6.095   0.986  10.486 -0.0666  0.2424 -0.2081
  109OSM    HNF11217   6.078   1.077  10.447 -0.5426  0.0627 -0.4400
  109OSM    C2S11218   5.987   0.894  10.521  0.2193  0.9859  0.0625
  109OSM    H2S11219   6.008   0.791  10.483  1.5411  0.8484  1.0873
  109OSM    C3S11220   5.851   0.937  10.452 -0.1787 -0.2686 -0.1925
  109OSM    H3S11221   5.839   1.038  10.495  2.7140  0.0409  0.0772
  109OSM     O311222   5.734   0.862  10.504 -0.5205 -0.0597  0.0352
  109OSM    HO311223   5.771   0.821  10.582 -1.5780  0.4665  0.8374
  109OSM    C4S11224   5.853   0.936  10.305 -0.0829  0.5691  0.2112
  109OSM    H4S11225   5.873   1.034  10.260  1.0636 -0.5450 -1.8750
  109OSM    C5S11226   5.851   0.832  10.223 -1.0264  0.6418  0.4891
  109OSM    H5S11227   5.849   0.729  10.260  0.4686  0.3424 -0.1970
  109OSM    C6S11228   5.861   0.837  10.068 -0.5964 -0.0026  0.1317
  109OSM    H6S11229   5.767   0.795  10.028 -2.3574  2.0635  1.8767
  109OSM    H6T11230   5.948   0.772  10.045 -2.0231 -1.4542 -1.4583
  109OSM    C7S11231   5.888   0.980  10.015  0.5547  0.5634 -0.4180
  109OSM    H7S11232   5.972   1.028  10.069  0.1061  1.9384 -0.8882
  109OSM    H7T11233   5.798   1.045  10.024  0.5705  0.5581 -0.2245
  109OSM    C8S11234   5.922   0.965   9.866  0.4755 -1.0055 -0.9427
  109OSM    H8S11235   5.976   0.872   9.839  2.1397  0.1322 -1.6656
  109OSM    H8T11236   6.005   1.036   9.846  0.7702 -0.9697  0.2926
  109OSM    C9S11237   5.814   1.000   9.762  0.4582 -0.6343 -0.4753
  109OSM    H9S11238   5.783   1.106   9.768  1.0274 -0.5322  1.3690
  109OSM    H9T11239   5.739   0.920   9.784  1.4109 -1.4559 -0.1286
  109OSM   C10S11240   5.873   0.975   9.621 -0.6341  0.1808  0.1397
  109OSM   H10S11241   5.931   0.880   9.615  0.1859  0.7494 -1.5860
  109OSM   H10T11242   5.956   1.045   9.598 -0.2883 -1.0109 -2.6718
  109OSM   C11S11243   5.769   0.988   9.512  0.6205 -0.5369 -0.4130
  109OSM   H11S11244   5.734   1.092   9.497  1.4007 -0.0179  1.1902
  109OSM   H11T11245   5.680   0.933   9.549  1.5280 -0.6038  1.7911
  109OSM   C12S11246   5.826   0.915   9.388  0.0504  0.6951  0.7718
  109OSM   H12S11247   5.879   0.823   9.420 -1.6231  0.1530  2.1586
  109OSM   H12T11248   5.896   0.979   9.330  0.8078 -0.7248  0.0718
  109OSM   C13S11249   5.719   0.890   9.276 -0.0920 -0.2135 -0.3291
  109OSM   H13S11250   5.686   0.991   9.242 -1.8799 -0.6188  0.0816
  109OSM   H13T11251   5.630   0.835   9.314  0.0773 -0.4689 -0.3050
  109OSM   C14S11252   5.773   0.802   9.159  0.2996 -0.7249 -0.8700
  109OSM   H14S11253   5.829   0.715   9.197 -0.1606 -0.9654 -0.7367
  109OSM   H14T11254   5.841   0.874   9.108  0.0871 -0.1021 -0.2887
  109OSM   C15S11255   5.670   0.746   9.067 -0.2620 -0.3307 -0.0859
  109OSM   H15S11256   5.614   0.830   9.021  0.7636  0.2829 -0.2484
  109OSM   H15T11257   5.604   0.675   9.122  2.0902 -1.1998  1.7862
  109OSM   C16S11258   5.730   0.664   8.948 -0.0194  0.7239 -0.3067
  109OSM   H16S11259   5.800   0.587   8.986  0.7250  0.3786 -2.2671
  109OSM   H16T11260   5.798   0.720   8.882  2.4224 -1.4628  0.1772
  109OSM   C17S11261   5.622   0.591   8.869  0.6369 -0.1430  0.1712
  109OSM   H17S11262   5.565   0.673   8.822 -1.2906 -1.3250  0.3598
  109OSM   H17T11263   5.547   0.542   8.935  2.7882  0.0159  2.9336
  109OSM   C18S11264   5.671   0.510   8.741 -0.0460  0.6307  0.5945
  109OSM   H18S11265   5.590   0.449   8.694 -0.9342  0.9640  1.6413
  109OSM   H18T11266   5.750   0.435   8.760 -1.2086 -1.4709 -2.1138
  109OSM   H18U11267   5.699   0.590   8.669  0.0275  0.8232  0.8371
  109OSM    C1F11268   6.222   0.958  10.528  0.7705  0.0731  0.5725
  109OSM     OF11269   6.254   0.844  10.554 -0.0731  0.4798  0.2056
  109OSM    C2F11270   6.314   1.075  10.518 -0.4178 -0.0992  1.0534
  109OSM    H2F11271   6.276   1.166  10.568 -1.5057 -0.1083  0.2636
  109OSM    H2G11272   6.329   1.097  10.410  1.1350  0.6523  1.3943
  109OSM    C3F11273   6.445   1.050  10.590  0.1493 -0.2055  0.3258
  109OSM    H3F11274   6.476   0.945  10.570 -0.7008 -0.6659  1.3661
  109OSM    H3G11275   6.433   1.063  10.700 -0.5515  1.7727  0.0521
  109OSM    C4F11276   6.548   1.157  10.556 -0.3537 -0.1109  0.2809
  109OSM    H4F11277   6.642   1.144  10.615 -0.1559  0.7187  0.1663
  109OSM    H4G11278   6.499   1.250  10.595 -1.6094 -0.5412 -0.2325
  109OSM    C5F11279   6.585   1.165  10.406  0.1772 -0.4349  0.1552
  109OSM    H5F11280   6.496   1.179  10.341 -0.0778 -0.5822  0.4709
  109OSM    H5G11281   6.647   1.081  10.367  0.2633  0.5747 -2.0488
  109OSM    C6F11282   6.684   1.280  10.375 -0.3057 -0.3092  0.1656
  109OSM    H6F11283   6.786   1.264  10.415 -0.6005 -0.2439  0.9737
  109OSM    H6G11284   6.645   1.374  10.421  0.6257 -1.3233  3.2747
  109OSM    C7F11285   6.696   1.305  10.226  0.3879  0.1898 -0.4109
  109OSM    H7F11286   6.768   1.389  10.215  0.6971 -0.2263 -1.8409
  109OSM    H7G11287   6.602   1.351  10.186  1.0845  0.8984 -1.2969
  109OSM    C8F11288   6.749   1.188  10.132 -0.2706  0.4471  0.0957
  109OSM    H8F11289   6.667   1.115  10.114 -1.0503  1.1673  0.6328
  109OSM    H8G11290   6.825   1.133  10.191  1.1190 -0.6492 -2.5629
  109OSM    C9F11291   6.808   1.249  10.001 -0.2811  0.5433 -0.5166
  109OSM    H9F11292   6.915   1.269  10.014 -0.0723 -0.5295 -0.5570
  109OSM   C10F11293   6.746   1.283   9.892  0.1122 -0.5501 -0.0777
  109OSM   H10F11294   6.802   1.330   9.810  1.0674 -1.7353 -0.1309
  109OSM   C11F11295   6.601   1.274   9.868 -0.4123  0.1119  0.0808
  109OSM   H11F11296   6.547   1.370   9.852 -0.9855 -0.0407  1.0533
  109OSM   H11G11297   6.544   1.234   9.955 -0.9468 -0.4836 -0.5289
  109OSM   C12F11298   6.570   1.187   9.742  0.3897  0.1467  0.6062
  109OSM   H12F11299   6.461   1.169   9.726  0.5828 -0.6161  0.0755
  109OSM   H12G11300   6.618   1.087   9.750  0.5732  0.2779  1.1794
  109OSM   C13F11301   6.620   1.250   9.605 -0.3183  0.1222 -0.7467
  109OSM   H13F11302   6.727   1.279   9.608 -1.0476  3.1687 -0.7661
  109OSM   H13G11303   6.568   1.347   9.590 -0.0639  0.2506 -0.8101
  109OSM   C14F11304   6.595   1.159   9.486 -0.0520  0.9222 -0.0575
  109OSM   H14F11305   6.489   1.129   9.497 -0.3339  2.1425  0.7856
  109OSM   H14G11306   6.650   1.063   9.490 -1.4577  0.0569 -0.9177
  109OSM   C15F11307   6.623   1.219   9.352  0.8298  0.4845  0.3455
  109OSM   H15F11308   6.730   1.250   9.348  0.5348  1.4284 -0.7484
  109OSM   H15G11309   6.557   1.306   9.330  2.7530  2.0431  0.4267
  109OSM   C16F11310   6.593   1.119   9.234  0.2377 -0.1457 -0.0132
  109OSM   H16F11311   6.486   1.096   9.251 -0.4077  3.2362  1.1033
  109OSM   H16G11312   6.655   1.026   9.236  1.0280  0.3795  1.0999
  109OSM   C17F11313   6.612   1.177   9.091  0.1148 -0.2326  0.1882
  109OSM   H17F11314   6.717   1.155   9.061  0.8371  1.2005  1.5075
  109OSM   H17G11315   6.595   1.286   9.092  0.5133 -0.1687 -0.1059
  109OSM   C18F11316   6.521   1.117   8.992 -0.8928 -0.6587  0.3233
  109OSM   H18F11317   6.416   1.148   9.012 -0.8696 -0.3987  0.0400
  109OSM   H18G11318   6.535   1.007   8.978 -1.2113 -0.5844 -0.6384
  109OSM   H18H11319   6.542   1.175   8.900  0.2547  0.2872  1.1513
  110OSM      N11320   0.682   0.009  10.968  0.2335 -0.2046 -0.0304
  110OSM    C1511321   0.637  -0.135  10.987 -0.3577 -0.3610 -0.9618
  110OSM   H15A11322   0.632  -0.186  10.891 -4.4234  1.5525 -1.9814
  110OSM   H15B11323   0.535  -0.133  11.023 -0.0419  0.0894 -0.0825
  110OSM   H15C11324   0.712  -0.189  11.043  1.1983  1.4229 -1.2264
  110OSM    C1411325   0.708   0.075  11.104  0.6498 -0.4021 -0.3308
  110OSM   H14A11326   0.619   0.080  11.165  0.5481 -0.1256 -0.5021
  110OSM   H14B11327   0.749   0.173  11.084  0.9540 -0.1306  1.4269
  110OSM   H14C11328   0.773   0.021  11.172 -1.8973  0.5571  3.1917
  110OSM    C1311329   0.807  -0.009  10.883  0.2756  0.2873 -0.3615
  110OSM   H13A11330   0.774  -0.031  10.783 -0.2185 -0.0617 -0.1272
  110OSM   H13B11331   0.869  -0.096  10.900  1.8162  1.7376  2.1277
  110OSM   H13C11332   0.877   0.074  10.884 -1.4303  1.7999  0.4970
  110OSM    C1211333   0.571   0.083  10.892 -1.0625  1.1045  0.4541
  110OSM   H12A11334   0.605   0.185  10.886 -1.3476  1.1973  0.3605
  110OSM   H12B11335   0.475   0.080  10.941 -1.5525  1.3952 -0.4698
  110OSM    C1111336   0.534   0.032  10.748  0.4353  0.2036  0.4163
  110OSM   H11A11337   0.627   0.016  10.689 -0.1643 -0.2950 -0.4110
  110OSM   H11B11338   0.479   0.114  10.696 -0.7509 -0.7475  0.1398
  110OSM      P11339   0.299  -0.089  10.819  0.1768  0.5444  0.3510
  110OSM    O1311340   0.312  -0.133  10.961 -0.4063  0.0561  0.5469
  110OSM    O1411341   0.235   0.043  10.791  0.4471 -0.2822 -0.1483
  110OSM    O1111342   0.226  -0.201  10.739  0.5664  0.2213  0.7162
  110OSM    O1211343   0.449  -0.090  10.753 -0.2161  0.1710 -0.3251
  110OSM    C1S11344   0.115  -0.181  10.653  0.2028  0.2956  0.2849
  110OSM    H1S11345   0.097  -0.075  10.627 -0.5178 -0.5776 -3.5010
  110OSM    H1T11346   0.019  -0.211  10.702 -0.3331  2.5164  0.6794
  110OSM     NF11347   0.021  -0.207  10.416  0.2470 -0.1534 -0.1821
  110OSM    HNF11348  -0.054  -0.265  10.384 -0.8407  1.7391 -1.1934
  110OSM    C2S11349   0.119  -0.255  10.513 -0.3077  0.2936 -0.4825
  110OSM    H2S11350   0.218  -0.226  10.471 -0.5584 -0.3055 -1.4987
  110OSM    C3S11351   0.096  -0.403  10.542 -0.2350  0.4296 -0.0903
  110OSM    H3S11352  -0.011  -0.421  10.563  0.0255 -1.7032 -0.4054
  110OSM     O311353   0.185  -0.454  10.648  0.5926 -0.2753  0.2152
  110OSM    HO311354   0.224  -0.378  10.692 -0.8690  0.9073 -0.4349
  110OSM    C4S11355   0.128  -0.488  10.420 -0.2709  0.1089  0.2068
  110OSM    H4S11356   0.230  -0.475  10.381 -0.8493  1.1834 -1.0103
  110OSM    C5S11357   0.036  -0.550  10.350  0.1635 -0.6185  0.7002
  110OSM    H5S11358  -0.069  -0.526  10.374 -0.4181 -0.0608 -2.0730
  110OSM    C6S11359   0.076  -0.622  10.226  0.4981 -0.5250  0.7835
  110OSM    H6S11360   0.015  -0.713  10.206  0.0104  0.2011 -1.2745
  110OSM    H6T11361   0.184  -0.649  10.218  0.8956  1.1358 -0.0527
  110OSM    C7S11362   0.068  -0.522  10.105  0.4852 -0.5457  0.6014
  110OSM    H7S11363   0.127  -0.431  10.128  0.2582 -0.7648  2.1740
  110OSM    H7T11364  -0.041  -0.501  10.099  0.8321  1.8193  1.6258
  110OSM    C8S11365   0.110  -0.567   9.969 -0.0345  0.0657 -0.3220
  110OSM    H8S11366   0.167  -0.662   9.982 -1.4599 -0.7020  0.5911
  110OSM    H8T11367   0.173  -0.496   9.912  1.0321 -0.6478 -0.0749
  110OSM    C9S11368  -0.001  -0.614   9.874 -0.1202 -0.3297 -0.6588
  110OSM    H9S11369  -0.073  -0.530   9.873 -1.8308 -1.7346 -2.1363
  110OSM    H9T11370  -0.065  -0.693   9.919 -2.1106  1.2555 -0.5635
  110OSM   C10S11371   0.050  -0.645   9.732  1.0966  0.1473 -0.5931
  110OSM   H10S11372   0.030  -0.751   9.707 -0.9780 -0.1212  1.7725
  110OSM   H10T11373   0.161  -0.640   9.731  1.1185  0.5586  0.9128
  110OSM   C11S11374  -0.002  -0.536   9.637  0.3580  0.2973 -0.8227
  110OSM   H11S11375   0.021  -0.431   9.666 -0.3558  0.0422  0.7939
  110OSM   H11T11376  -0.113  -0.528   9.648  0.2773 -1.1929 -0.3108
  110OSM   C12S11377   0.047  -0.567   9.497  0.5191  0.4004  0.7753
  110OSM   H12S11378   0.019  -0.673   9.479 -1.0457  0.8226  0.6292
  110OSM   H12T11379   0.157  -0.553   9.490  0.2145  2.3970 -0.6930
  110OSM   C13S11380  -0.037  -0.492   9.389  0.2985 -0.1103  0.7878
  110OSM   H13S11381  -0.017  -0.383   9.392 -0.2517 -0.0145  1.2880
  110OSM   H13T11382  -0.141  -0.525   9.413  0.7525 -1.0884  1.4767
  110OSM   C14S11383   0.003  -0.543   9.254 -0.3681  0.2002 -0.1791
  110OSM   H14S11384   0.064  -0.635   9.269 -1.8082 -0.9541 -0.9747
  110OSM   H14T11385   0.060  -0.468   9.196 -3.4230  3.5244  0.7865
  110OSM   C15S11386  -0.116  -0.582   9.171  0.2222 -0.4393 -1.0300
  110OSM   H15S11387  -0.178  -0.490   9.172  0.8216  0.0607  2.6020
  110OSM   H15T11388  -0.160  -0.672   9.220 -0.4478  0.3731 -0.1090
  110OSM   C16S11389  -0.090  -0.616   9.027  0.7564  0.0302  0.4054
  110OSM   H16S11390  -0.039  -0.715   9.021 -0.4802 -0.5675 -0.8359
  110OSM   H16T11391  -0.018  -0.542   8.986  0.3684 -0.2666 -0.8589
  110OSM   C17S11392  -0.220  -0.622   8.937  1.0488  0.2730  0.8052
  110OSM   H17S11393  -0.273  -0.525   8.951  1.0718  0.6460 -1.3925
  110OSM   H17T11394  -0.284  -0.703   8.979 -1.7857  1.8135 -0.2793
  110OSM   C18S11395  -0.188  -0.654   8.786 -0.1276 -0.0854  0.1126
  110OSM   H18S11396  -0.282  -0.660   8.728 -0.8709  2.6737  0.8707
  110OSM   H18T11397  -0.137  -0.752   8.776 -3.0066 -1.5635 -1.2908
  110OSM   H18U11398  -0.131  -0.570   8.743  0.0557  0.1473  0.7942
  110OSM    C1F11399   0.037  -0.087  10.360 -0.1227  0.2275 -0.0201
  110OSM     OF11400   0.126  -0.009  10.394 -0.5079  0.0765 -0.0089
  110OSM    C2F11401  -0.064  -0.047  10.254  0.8909 -0.3745  0.5467
  110OSM    H2F11402  -0.076   0.063  10.257  1.2431 -0.2842 -0.6869
  110OSM    H2G11403  -0.166  -0.088  10.272  0.3222  0.3602 -0.8190
  110OSM    C3F11404  -0.022  -0.098  10.112  0.1557 -0.9715 -0.2501
  110OSM    H3F11405  -0.014  -0.208  10.123  0.2964 -0.7375  2.9487
  110OSM    H3G11406   0.082  -0.073  10.082 -1.3012  2.3602 -3.1596
  110OSM    C4F11407  -0.121  -0.080   9.995 -0.1424 -0.1457  0.3868
  110OSM    H4F11408  -0.110   0.028   9.973  0.2323 -0.1836  0.3957
  110OSM    H4G11409  -0.225  -0.108  10.023 -1.4257  2.9494 -0.8128
  110OSM    C5F11410  -0.090  -0.148   9.861  0.2748  0.4545 -0.3183
  110OSM    H5F11411  -0.109  -0.257   9.868  0.4616  0.4550  0.2535
  110OSM    H5G11412   0.021  -0.138   9.852  1.0336 -3.1579  2.7963
  110OSM    C6F11413  -0.177  -0.097   9.743  0.0959  0.1834  0.6165
  110OSM    H6F11414  -0.150   0.011   9.737  2.0539 -0.3032 -0.2562
  110OSM    H6G11415  -0.285  -0.106   9.765 -0.6051  0.3510 -2.3252
  110OSM    C7F11416  -0.148  -0.170   9.612  0.0396 -0.5338  0.0475
  110OSM    H7F11417  -0.155  -0.279   9.633  2.3826 -0.6490  0.5480
  110OSM    H7G11418  -0.043  -0.151   9.581  0.3935  1.7164  2.3302
  110OSM    C8F11419  -0.250  -0.129   9.500  0.1781  0.0554 -0.2370
  110OSM    H8F11420  -0.349  -0.120   9.550 -0.4807 -0.7482 -1.3533
  110OSM    H8G11421  -0.259  -0.214   9.429  0.1244 -3.0887  3.2594
  110OSM    C9F11422  -0.235   0.007   9.434 -0.4568 -1.0427 -0.1377
  110OSM    H9F11423  -0.258   0.095   9.496  2.5695 -0.2235 -0.0234
  110OSM   C10F11424  -0.207   0.022   9.303  0.2311  0.3466 -0.0026
  110OSM   H10F11425  -0.206   0.122   9.256 -1.3474 -0.3287 -1.5892
  110OSM   C11F11426  -0.175  -0.081   9.197  0.2609  0.0775 -0.1472
  110OSM   H11F11427  -0.188  -0.026   9.101  1.2055  1.0032  0.2331
  110OSM   H11G11428  -0.246  -0.166   9.189 -0.2033  0.6509 -3.8131
  110OSM   C12F11429  -0.030  -0.143   9.206 -0.3197  0.5544  0.3929
  110OSM   H12F11430  -0.045  -0.245   9.163 -2.7620 -0.0506  2.4373
  110OSM   H12G11431  -0.004  -0.164   9.312  0.7713 -0.4938 -0.0630
  110OSM   C13F11432   0.076  -0.062   9.126 -0.4517 -0.9492 -0.0175
  110OSM   H13F11433   0.167  -0.126   9.128 -0.9380 -1.6321  1.2542
  110OSM   H13G11434   0.098   0.031   9.182  1.3812  0.1649 -2.4071
  110OSM   C14F11435   0.056  -0.027   8.977  0.5061  0.0957  0.2415
  110OSM   H14F11436  -0.033   0.039   8.974  1.1244  0.9375  0.1059
  110OSM   H14G11437   0.021  -0.111   8.913 -0.7222  1.7741 -1.3651
  110OSM   C15F11438   0.176   0.054   8.915 -0.1658  0.1587 -0.2853
  110OSM   H15F11439   0.269   0.014   8.959  0.5711  0.1472 -1.8097
  110OSM   H15G11440   0.156   0.156   8.955 -2.6794 -1.4153  2.9617
  110OSM   C16F11441   0.194   0.062   8.770 -0.3344 -0.0578  0.3600
  110OSM   H16F11442   0.112   0.129   8.737 -1.5333 -0.6913  1.8907
  110OSM   H16G11443   0.187  -0.032   8.711 -3.4392  0.9934 -1.2083
  110OSM   C17F11444   0.330   0.119   8.729  0.3893  0.0386  0.0276
  110OSM   H17F11445   0.414   0.052   8.759 -0.1720 -1.0848 -0.8466
  110OSM   H17G11446   0.337   0.222   8.770  2.0717 -0.1852  0.3772
  110OSM   C18F11447   0.331   0.160   8.583 -0.7037 -0.5302  0.0099
  110OSM   H18F11448   0.419   0.226   8.562 -0.0244 -1.2048  0.6941
  110OSM   H18G11449   0.235   0.216   8.573 -0.6130 -0.4087 -0.1979
  110OSM   H18H11450   0.328   0.083   8.503 -0.3500  1.0149 -1.5704
  111OSM      N11451   1.111   3.385  11.059 -0.2728  0.2251 -0.3751
  111OSM    C1511452   1.163   3.523  11.087  0.6151  0.2248  0.0219
  111OSM   H15A11453   1.213   3.566  11.002 -1.3574  1.9258 -0.3395
  111OSM   H15B11454   1.245   3.520  11.159 -0.1250  1.1862  0.9363
  111OSM   H15C11455   1.090   3.592  11.127 -0.5925 -1.3630  0.6687
  111OSM    C1411456   1.217   3.288  11.024 -0.0606 -0.0422 -0.1184
  111OSM   H14A11457   1.281   3.269  11.109 -1.3884 -3.5266  0.2461
  111OSM   H14B11458   1.272   3.322  10.938  0.7930  0.5323  0.6325
  111OSM   H14C11459   1.180   3.190  11.000  0.1496  0.7212 -4.0982
  111OSM    C1311460   1.034   3.330  11.172  0.1356  0.5548 -0.4230
  111OSM   H13A11461   1.068   3.366  11.268 -1.3972 -2.4430  1.4093
  111OSM   H13B11462   1.036   3.222  11.171 -0.8830  0.5265 -0.0534
  111OSM   H13C11463   0.928   3.350  11.171 -0.2771 -1.2845  0.8387
  111OSM    C1211464   1.002   3.391  10.954  0.1152  0.0201  0.9278
  111OSM   H12A11465   0.941   3.480  10.967 -0.0164 -0.0547  0.8155
  111OSM   H12B11466   0.938   3.304  10.956  0.4598 -0.5400 -3.5019
  111OSM    C1111467   1.048   3.410  10.806  0.2739  0.2163  1.0526
  111OSM   H11A11468   0.956   3.424  10.745  1.5042  3.5731 -0.3167
  111OSM   H11B11469   1.102   3.318  10.774 -2.0708 -0.9153  0.1543
  111OSM      P11470   1.054   3.665  10.774 -0.3057  0.4479 -0.2937
  111OSM    O1311471   0.940   3.677  10.868 -0.1612 -0.1589  0.1544
  111OSM    O1411472   1.150   3.776  10.780  0.1739  0.7895  0.2276
  111OSM    O1111473   0.996   3.660  10.623 -0.0052 -0.0852  0.3210
  111OSM    O1211474   1.125   3.526  10.801 -0.0094  0.0304  0.3350
  111OSM    C1S11475   1.046   3.558  10.535  0.0270  0.1469  0.6479
  111OSM    H1S11476   0.994   3.462  10.552 -0.6042  0.3924  0.1677
  111OSM    H1T11477   1.153   3.530  10.541 -0.1313 -0.4378  0.7611
  111OSM     NF11478   0.986   3.492  10.311  0.6474 -0.8011 -0.4296
  111OSM    HNF11479   1.057   3.480  10.242  1.3026  0.5873 -0.0340
  111OSM    C2S11480   1.006   3.606  10.395  0.3167  0.5511  0.3000
  111OSM    H2S11481   0.903   3.646  10.405  0.8990  1.9416  0.9942
  111OSM    C3S11482   1.105   3.715  10.345 -0.4563 -0.4502 -0.5577
  111OSM    H3S11483   1.193   3.661  10.305  1.3613  2.7312 -1.2168
  111OSM     O311484   1.156   3.800  10.448  0.8425  0.2061  0.2222
  111OSM    HO311485   1.101   3.768  10.520  1.4726 -0.2734  0.4988
  111OSM    C4S11486   1.045   3.798  10.231  0.4471  0.1003 -0.0945
  111OSM    H4S11487   1.092   3.776  10.134 -1.7165 -2.4311 -0.7187
  111OSM    C5S11488   0.943   3.888  10.230 -0.4876  0.2289 -0.2620
  111OSM    H5S11489   0.901   3.922  10.326  0.6481  0.7304  0.0788
  111OSM    C6S11490   0.892   3.962  10.108  0.3687  0.0455 -0.2428
  111OSM    H6S11491   0.895   4.073  10.116  2.3288  0.1796 -1.9274
  111OSM    H6T11492   0.785   3.934  10.108  0.1871  0.6661  0.9633
  111OSM    C7S11493   0.947   3.917   9.978 -0.5656  0.3345 -0.4581
  111OSM    H7S11494   0.920   3.809   9.977 -0.6494  0.2937  1.6950
  111OSM    H7T11495   1.058   3.929   9.977 -0.6528  2.1033  1.9579
  111OSM    C8S11496   0.885   3.987   9.853 -0.0698  0.1191  0.2496
  111OSM    H8S11497   0.937   4.084   9.840 -1.4770  0.6266 -2.2408
  111OSM    H8T11498   0.779   4.015   9.874 -0.6487 -1.3383 -0.5865
  111OSM    C9S11499   0.891   3.900   9.731 -0.2896  0.2007  0.3565
  111OSM    H9S11500   0.839   3.804   9.749 -1.2848  0.9622  1.7310
  111OSM    H9T11501   0.997   3.873   9.712 -0.9262 -2.2264 -0.1002
  111OSM   C10S11502   0.825   3.968   9.610  0.5632 -0.3271  0.2568
  111OSM   H10S11503   0.870   4.068   9.595  1.4833 -1.0207 -1.9599
  111OSM   H10T11504   0.717   3.988   9.629  0.6362 -0.7718  1.2070
  111OSM   C11S11505   0.851   3.898   9.477  0.5798  0.2423  0.1516
  111OSM   H11S11506   0.792   3.804   9.474 -1.6888  1.5442  1.2261
  111OSM   H11T11507   0.960   3.877   9.468  0.3317 -0.8878 -0.3599
  111OSM   C12S11508   0.797   3.957   9.349  0.0302 -1.0665  0.7561
  111OSM   H12S11509   0.857   4.048   9.330 -0.1481 -0.7837  1.5209
  111OSM   H12T11510   0.692   3.992   9.347 -0.2495 -1.9070 -0.9325
  111OSM   C13S11511   0.806   3.855   9.232 -0.3020  0.2720  0.0134
  111OSM   H13S11512   0.764   3.760   9.272 -2.5407  1.5632  0.9307
  111OSM   H13T11513   0.904   3.839   9.183 -0.2524 -0.6443  0.3842
  111OSM   C14S11514   0.727   3.910   9.114  0.0400 -0.5375  0.0731
  111OSM   H14S11515   0.776   4.002   9.077  1.8533 -1.3571  0.3425
  111OSM   H14T11516   0.622   3.917   9.151 -0.0957 -1.6700 -0.0408
  111OSM   C15S11517   0.729   3.799   9.004 -0.3120  0.3730 -0.1596
  111OSM   H15S11518   0.633   3.812   8.948 -1.4015 -2.3659  0.8883
  111OSM   H15T11519   0.726   3.699   9.052 -3.0488 -1.3705 -3.4953
  111OSM   C16S11520   0.845   3.807   8.904  0.1938 -0.6902 -0.0610
  111OSM   H16S11521   0.839   3.716   8.841  0.8479 -0.3027 -0.7016
  111OSM   H16T11522   0.943   3.801   8.956  0.8261 -0.5465 -1.1937
  111OSM   C17S11523   0.847   3.931   8.809 -0.4014 -0.7153 -0.6961
  111OSM   H17S11524   0.838   4.023   8.870  0.4045 -1.6787  0.9484
  111OSM   H17T11525   0.763   3.919   8.737 -0.6776 -0.9682 -0.3359
  111OSM   C18S11526   0.979   3.939   8.732 -0.0613  1.3535  0.2638
  111OSM   H18S11527   0.982   3.854   8.660 -0.1357  0.0563  1.7385
  111OSM   H18T11528   1.076   3.918   8.782  0.3301  1.1282 -0.5780
  111OSM   H18U11529   0.992   4.033   8.675 -1.7766  1.6172  0.2495
  111OSM    C1F11530   0.879   3.405  10.320 -0.1838 -0.2979  0.1383
  111OSM     OF11531   0.799   3.419  10.407  0.1496  0.5304 -0.1205
  111OSM    C2F11532   0.877   3.307  10.216 -0.1128 -0.0597  0.2353
  111OSM    H2F11533   0.858   3.208  10.263  0.1073  1.2882  3.4052
  111OSM    H2G11534   0.970   3.308  10.157 -0.3219 -0.5808 -0.1067
  111OSM    C3F11535   0.772   3.333  10.110  0.9204  0.8356 -0.2949
  111OSM    H3F11536   0.791   3.432  10.065 -1.8626  2.1671  1.2061
  111OSM    H3G11537   0.675   3.342  10.164 -0.0804 -1.7699 -1.4661
  111OSM    C4F11538   0.759   3.214  10.019 -0.3090  0.0868  0.4079
  111OSM    H4F11539   0.717   3.123  10.067 -0.6428  0.7779  1.4674
  111OSM    H4G11540   0.860   3.199   9.977 -0.6851 -2.4570  0.2950
  111OSM    C5F11541   0.664   3.242   9.900 -0.6044 -0.3643 -0.4875
  111OSM    H5F11542   0.685   3.350   9.888  2.0010 -0.8253 -0.7526
  111OSM    H5G11543   0.559   3.230   9.935  0.3655 -1.4241  2.4178
  111OSM    C6F11544   0.700   3.165   9.776  0.0219  0.2946  1.4176
  111OSM    H6F11545   0.686   3.055   9.779 -0.3660 -0.1248 -4.3168
  111OSM    H6G11546   0.808   3.177   9.756  0.2544  1.5482  3.2193
  111OSM    C7F11547   0.632   3.212   9.639  0.0505  0.2442 -0.2027
  111OSM    H7F11548   0.682   3.309   9.619  1.0487 -0.7033 -2.7660
  111OSM    H7G11549   0.524   3.208   9.665  0.3169 -0.5833  0.8458
  111OSM    C8F11550   0.646   3.120   9.514 -0.7910  0.4040 -0.4607
  111OSM    H8F11551   0.629   3.020   9.559 -0.8384 -0.1967 -1.7811
  111OSM    H8G11552   0.749   3.126   9.472 -0.6009  0.2580 -0.0208
  111OSM    C9F11553   0.542   3.160   9.413 -0.4011  0.4608 -0.1569
  111OSM    H9F11554   0.439   3.140   9.445  0.0106 -3.1336 -0.5733
  111OSM   C10F11555   0.566   3.202   9.295  0.5801  0.1106  0.3068
  111OSM   H10F11556   0.479   3.224   9.231  0.2814 -1.9721 -0.0929
  111OSM   C11F11557   0.700   3.233   9.247  0.2236 -0.1161  0.0706
  111OSM   H11F11558   0.776   3.268   9.320  1.4101  0.6028 -1.4320
  111OSM   H11G11559   0.698   3.302   9.160 -2.7161 -0.5658 -0.3133
  111OSM   C12F11560   0.774   3.115   9.176  0.1671 -0.2084 -0.3373
  111OSM   H12F11561   0.799   3.031   9.244  0.3162  1.2822  1.5186
  111OSM   H12G11562   0.873   3.154   9.144 -0.2946  0.2008 -1.3482
  111OSM   C13F11563   0.718   3.064   9.039  0.3175 -0.5851 -0.3288
  111OSM   H13F11564   0.707   3.150   8.969  1.4994  1.2832  1.6380
  111OSM   H13G11565   0.624   3.009   9.057 -0.9036  1.1385 -1.1245
  111OSM   C14F11566   0.825   2.977   8.974  0.1016 -0.4763 -0.0134
  111OSM   H14F11567   0.876   2.910   9.046  1.9300  1.2884  0.4426
  111OSM   H14G11568   0.895   3.050   8.927 -2.9861  2.6008 -0.1968
  111OSM   C15F11569   0.775   2.900   8.849  0.0326  0.2672 -0.6981
  111OSM   H15F11570   0.716   2.979   8.798  0.5881  1.8912  1.0562
  111OSM   H15G11571   0.715   2.811   8.878  0.4043  0.2472  0.0339
  111OSM   C16F11572   0.893   2.850   8.773 -0.3751  0.0733  0.6352
  111OSM   H16F11573   0.958   2.940   8.768  1.3491 -1.0972  0.9963
  111OSM   H16G11574   0.853   2.829   8.672 -1.8210 -0.2131  1.2491
  111OSM   C17F11575   0.977   2.730   8.843  0.2566  0.4750 -0.0479
  111OSM   H17F11576   0.912   2.650   8.884 -2.9203  3.5012  1.2882
  111OSM   H17G11577   1.020   2.784   8.930 -0.3918  0.5790  0.2053
  111OSM   C18F11578   1.089   2.667   8.749  0.1753 -0.0418 -0.2947
  111OSM   H18F11579   1.126   2.577   8.802 -2.1845 -0.2134  1.2182
  111OSM   H18G11580   1.166   2.746   8.737 -0.0760  0.4343  1.0442
  111OSM   H18H11581   1.042   2.637   8.652 -1.1331 -2.0705  0.9083
  112OSM      N11582   1.411   0.946  10.869 -0.1316  0.5577 -0.0670
  112OSM    C1511583   1.353   1.055  10.948 -0.4024 -0.7874  0.1892
  112OSM   H15A11584   1.357   1.045  11.055 -0.1709  0.9602  0.3759
  112OSM   H15B11585   1.251   1.071  10.916 -0.4070 -0.1285  0.5211
  112OSM   H15C11586   1.390   1.155  10.932  0.0187 -0.7032  1.5359
  112OSM    C1411587   1.442   1.004  10.738  0.1841 -0.1761 -0.1882
  112OSM   H14A11588   1.494   0.936  10.672 -0.3608 -0.8738  0.0952
  112OSM   H14B11589   1.497   1.096  10.751 -0.5710  0.2326  0.1762
  112OSM   H14C11590   1.347   1.028  10.693 -1.2377 -1.0623  2.1953
  112OSM    C1311591   1.544   0.906  10.926 -0.1832 -0.1176 -0.7330
  112OSM   H13A11592   1.617   0.985  10.914 -1.4044  1.0366 -0.8297
  112OSM   H13B11593   1.580   0.815  10.880 -1.0331 -0.3387 -0.9806
  112OSM   H13C11594   1.527   0.867  11.026 -1.4171 -0.7517 -1.1655
  112OSM    C1211595   1.325   0.820  10.862  0.2605 -0.0257 -0.4955
  112OSM   H12A11596   1.302   0.795  10.964 -0.6354  1.3074 -0.3473
  112OSM   H12B11597   1.380   0.743  10.810  0.0890 -0.3835 -0.1472
  112OSM    C1111598   1.178   0.825  10.799  0.0540 -0.1157  0.2849
  112OSM   H11A11599   1.130   0.726  10.816  0.1982 -0.2113  0.1318
  112OSM   H11B11600   1.178   0.830  10.688 -0.7036  0.8741  0.3127
  112OSM      P11601   1.044   0.910  11.004  0.6593  0.0847  0.1928
  112OSM    O1311602   1.097   0.783  11.060 -0.2304 -0.5144 -0.5460
  112OSM    O1411603   1.057   1.036  11.082  0.0950  0.5864  0.0544
  112OSM    O1111604   0.892   0.880  10.972 -0.6149  0.5710 -0.0218
  112OSM    O1211605   1.100   0.931  10.860 -0.5058  0.5431  0.0919
  112OSM    C1S11606   0.820   0.982  10.895  0.4915 -0.8386  0.2887
  112OSM    H1S11607   0.869   1.081  10.906 -1.6713  0.2394  0.6797
  112OSM    H1T11608   0.722   0.998  10.944  0.6356  0.9284  0.0750
  112OSM     NF11609   0.726   1.050  10.670 -0.0644  0.0177 -0.1801
  112OSM    HNF11610   0.636   1.029  10.632  0.0708 -2.1739  0.5791
  112OSM    C2S11611   0.792   0.943  10.742 -0.4278  0.3107 -0.8605
  112OSM    H2S11612   0.894   0.927  10.701  0.6142 -2.0991  2.2227
  112OSM    C3S11613   0.719   0.809  10.742  0.5125 -0.3747 -0.2566
  112OSM    H3S11614   0.637   0.816  10.816  0.0080 -0.7329 -0.7748
  112OSM     O311615   0.808   0.708  10.800  0.4267  0.2651  0.2413
  112OSM    HO311616   0.886   0.760  10.820  1.2938 -0.5001 -1.0086
  112OSM    C4S11617   0.668   0.768  10.603  0.3972 -0.0200 -0.7735
  112OSM    H4S11618   0.560   0.748  10.592  0.1867  1.8080 -2.5822
  112OSM    C5S11619   0.745   0.754  10.494  0.2994 -0.2924 -0.1782
  112OSM    H5S11620   0.851   0.783  10.499 -0.4426  2.7111  0.2074
  112OSM    C6S11621   0.689   0.708  10.363 -0.4377  0.8986 -0.0657
  112OSM    H6S11622   0.582   0.677  10.359  0.0351 -0.8807  0.1431
  112OSM    H6T11623   0.752   0.623  10.330 -0.2455  1.9433 -2.6226
  112OSM    C7S11624   0.709   0.806  10.243 -1.2580 -0.0958 -0.0996
  112OSM    H7S11625   0.814   0.841  10.248 -1.1289 -0.5482  0.5485
  112OSM    H7T11626   0.636   0.890  10.246 -0.5315  0.5455 -0.0693
  112OSM    C8S11627   0.715   0.735  10.109  0.0223 -0.0112  0.5586
  112OSM    H8S11628   0.812   0.680  10.105 -0.2665 -0.6949  2.0817
  112OSM    H8T11629   0.730   0.818  10.037 -0.5436 -0.7378 -0.4209
  112OSM    C9S11630   0.587   0.655  10.077 -0.7796  0.1351 -0.3661
  112OSM    H9S11631   0.496   0.718  10.070  0.5403  2.0847 -0.6009
  112OSM    H9T11632   0.575   0.592  10.169  1.5089 -0.8946 -0.6958
  112OSM   C10S11633   0.600   0.579   9.953  0.1128  0.2285 -0.1505
  112OSM   H10S11634   0.517   0.507   9.944 -1.4399  2.1589 -2.5749
  112OSM   H10T11635   0.698   0.526   9.945  2.2980  4.0532 -2.4297
  112OSM   C11S11636   0.585   0.664   9.830  0.0343 -0.2135  0.2846
  112OSM   H11S11637   0.659   0.747   9.827 -0.0031 -0.2020 -0.5828
  112OSM   H11T11638   0.489   0.719   9.837  0.6561  0.8830  0.2830
  112OSM   C12S11639   0.571   0.582   9.698  0.0774  0.2941  0.3043
  112OSM   H12S11640   0.470   0.536   9.689  0.2044  0.1271 -0.2893
  112OSM   H12T11641   0.647   0.502   9.688  2.2146  2.4943 -2.9281
  112OSM   C13S11642   0.591   0.673   9.570 -0.2368 -0.7183 -0.2451
  112OSM   H13S11643   0.686   0.730   9.575 -0.1247 -0.9290  0.0306
  112OSM   H13T11644   0.505   0.744   9.565  1.2725  1.6479  3.3414
  112OSM   C14S11645   0.594   0.586   9.441 -0.2956  0.9882  0.8823
  112OSM   H14S11646   0.515   0.511   9.464 -0.0444  0.3701 -0.1817
  112OSM   H14T11647   0.697   0.547   9.426  0.8570  3.0032  2.9764
  112OSM   C15S11648   0.551   0.656   9.316 -0.8328  0.7284 -0.4635
  112OSM   H15S11649   0.605   0.753   9.317 -1.0563  0.8548  0.6420
  112OSM   H15T11650   0.442   0.672   9.323 -0.8852  0.6174 -1.0145
  112OSM   C16S11651   0.576   0.567   9.193 -0.6230  0.9266  0.1888
  112OSM   H16S11652   0.542   0.464   9.216  1.4067  0.2671  0.4350
  112OSM   H16T11653   0.685   0.561   9.170 -0.9770 -2.1185 -1.1531
  112OSM   C17S11654   0.489   0.598   9.069  0.3750  0.0624 -0.0258
  112OSM   H17S11655   0.387   0.628   9.099 -0.8298 -1.9608 -1.8382
  112OSM   H17T11656   0.483   0.509   9.003  1.7509  0.3503 -0.5811
  112OSM   C18S11657   0.556   0.700   8.985 -0.3353  0.0345  0.0730
  112OSM   H18S11658   0.618   0.762   9.053 -1.2643 -0.5421  1.4839
  112OSM   H18T11659   0.487   0.768   8.931 -0.6815 -0.0970  0.3474
  112OSM   H18U11660   0.622   0.648   8.912 -1.3335  1.2490 -1.7723
  112OSM    C1F11661   0.785   1.169  10.643 -0.1820 -0.7892  0.5378
  112OSM     OF11662   0.903   1.185  10.680  0.2293 -0.0831 -0.1367
  112OSM    C2F11663   0.709   1.282  10.582 -0.7726  1.1621  0.7835
  112OSM    H2F11664   0.733   1.374  10.640  1.1923  0.2207  1.5613
  112OSM    H2G11665   0.598   1.272  10.580 -0.6304 -0.5529 -0.4019
  112OSM    C3F11666   0.756   1.308  10.442  0.0777 -0.0327  0.4287
  112OSM    H3F11667   0.861   1.343  10.432  0.4190 -0.9699  0.6432
  112OSM    H3G11668   0.688   1.391  10.413 -0.4965 -0.2620  1.1102
  112OSM    C4F11669   0.729   1.187  10.349 -0.5571  0.3439 -0.7325
  112OSM    H4F11670   0.630   1.152  10.386 -0.1742  0.6011  0.6034
  112OSM    H4G11671   0.805   1.108  10.366 -1.2997 -0.3630 -0.6747
  112OSM    C5F11672   0.700   1.222  10.204 -0.0328  0.2932  0.2744
  112OSM    H5F11673   0.693   1.333  10.194  0.8343  0.5164  1.7551
  112OSM    H5G11674   0.604   1.176  10.172 -0.7626  0.9158  1.4903
  112OSM    C6F11675   0.816   1.178  10.111  0.5437  0.5900 -0.4074
  112OSM    H6F11676   0.811   1.067  10.100  1.2310  0.5502 -0.3967
  112OSM    H6G11677   0.912   1.200  10.163 -0.6051 -3.5586  4.3027
  112OSM    C7F11678   0.798   1.249   9.976 -0.0079 -0.3263 -0.1874
  112OSM    H7F11679   0.890   1.233   9.915  0.4180  0.7120  0.1708
  112OSM    H7G11680   0.783   1.357   9.995 -0.1467 -0.5092  0.8251
  112OSM    C8F11681   0.674   1.216   9.886  0.2098  0.3211  0.0165
  112OSM    H8F11682   0.672   1.290   9.803  0.6185 -0.0050 -0.2896
  112OSM    H8G11683   0.579   1.229   9.941  0.4381 -0.4836  0.6163
  112OSM    C9F11684   0.691   1.069   9.831  0.0680  0.4962 -0.8089
  112OSM    H9F11685   0.679   0.988   9.905  0.9641  0.0368 -1.1505
  112OSM   C10F11686   0.721   1.037   9.702 -0.2643 -0.6304 -0.0673
  112OSM   H10F11687   0.724   0.932   9.671 -0.5121 -0.3548 -1.0589
  112OSM   C11F11688   0.742   1.133   9.580  0.0038  0.4329 -0.0545
  112OSM   H11F11689   0.850   1.146   9.559  0.1620  0.6055  0.8350
  112OSM   H11G11690   0.693   1.229   9.610 -0.2281 -0.4682  2.6559
  112OSM   C12F11691   0.685   1.089   9.440  0.2155 -0.1801 -0.0740
  112OSM   H12F11692   0.723   0.988   9.413  0.3264  0.3578 -2.0862
  112OSM   H12G11693   0.739   1.156   9.370  1.2155 -0.9805 -0.0922
  112OSM   C13F11694   0.533   1.101   9.427  0.1400  0.1257 -0.1833
  112OSM   H13F11695   0.506   1.201   9.467 -1.3351 -0.7075  0.9926
  112OSM   H13G11696   0.487   1.026   9.494 -1.2234 -1.9515 -3.1819
  112OSM   C14F11697   0.490   1.064   9.284 -0.1524  0.3823  0.6960
  112OSM   H14F11698   0.381   1.045   9.298  0.5729 -2.1994  4.6004
  112OSM   H14G11699   0.537   0.969   9.252 -0.2783  0.9080 -1.1522
  112OSM   C15F11700   0.523   1.166   9.179  0.3360 -0.4438  0.6002
  112OSM   H15F11701   0.632   1.188   9.180  0.4275 -0.8776  1.3657
  112OSM   H15G11702   0.481   1.268   9.198 -0.0926 -0.6129  0.5593
  112OSM   C16F11703   0.475   1.124   9.036 -0.9844  0.7805  0.5755
  112OSM   H16F11704   0.364   1.120   9.036 -1.1074  2.5624  2.2222
  112OSM   H16G11705   0.507   1.019   9.016 -1.0412  1.3490 -3.0192
  112OSM   C17F11706   0.527   1.217   8.920  0.5508 -0.5179 -0.7794
  112OSM   H17F11707   0.523   1.320   8.961  0.9812 -0.7642 -0.1004
  112OSM   H17G11708   0.449   1.224   8.842 -0.0876 -1.7057 -0.2677
  112OSM   C18F11709   0.666   1.196   8.872 -0.2558  0.4302  0.4338
  112OSM   H18F11710   0.668   1.115   8.796  0.5636  0.4645  0.4115
  112OSM   H18G11711   0.738   1.169   8.952 -0.4784 -1.5047  0.0458
  112OSM   H18H11712   0.700   1.286   8.818 -0.8448 -0.0877 -0.8466
  113OSM      N11713   5.010   6.317  10.970 -0.6202 -0.0333  0.2352
  113OSM    C1511714   4.881   6.238  10.978 -0.3032 -0.0113  0.5934
  113OSM   H15A11715   4.888   6.168  11.061  2.9256 -0.6539 -0.1005
  113OSM   H15B11716   4.859   6.182  10.888  2.2449 -0.4961  0.2063
  113OSM   H15C11717   4.806   6.314  10.996  0.7083  1.5511 -1.4115
  113OSM    C1411718   4.988   6.438  10.886  0.2166  0.1089  0.0629
  113OSM   H14A11719   4.910   6.495  10.935 -0.5554 -1.3324  0.5681
  113OSM   H14B11720   4.956   6.414  10.786 -0.7910  0.1942  0.3536
  113OSM   H14C11721   5.077   6.499  10.886 -0.8207  1.8004  2.3507
  113OSM    C1311722   5.041   6.374  11.105  0.4205  0.1062  0.1260
  113OSM   H13A11723   4.949   6.424  11.131 -0.0615 -1.7880  2.3782
  113OSM   H13B11724   5.131   6.433  11.115  2.0613 -2.5786  3.0338
  113OSM   H13C11725   5.059   6.291  11.172  1.2959 -1.5596 -2.0438
  113OSM    C1211726   5.122   6.232  10.919  0.1522  0.4058  0.0692
  113OSM   H12A11727   5.212   6.288  10.938 -0.0316  0.5306  0.6064
  113OSM   H12B11728   5.103   6.211  10.815 -0.0536 -1.0323  0.3730
  113OSM    C1111729   5.139   6.097  10.990 -0.1035  0.6228  0.2046
  113OSM   H11A11730   5.057   6.029  10.959  0.8224  0.1805 -1.3924
  113OSM   H11B11731   5.140   6.111  11.100 -0.0556  0.9133  0.1668
  113OSM      P11732   5.337   5.922  11.005 -0.6595 -0.0858  0.0397
  113OSM    O1311733   5.474   5.913  10.947 -0.1787  0.1935 -0.1051
  113OSM    O1411734   5.330   5.922  11.150  1.0732 -0.1801  0.2871
  113OSM    O1111735   5.248   5.808  10.951 -0.4109 -1.0374  0.4955
  113OSM    O1211736   5.267   6.049  10.951 -0.1119  0.1412 -0.5672
  113OSM    C1S11737   5.205   5.809  10.809  0.4755  0.5990  0.9024
  113OSM    H1S11738   5.282   5.841  10.736 -2.3200  0.4174 -2.3869
  113OSM    H1T11739   5.135   5.894  10.793  0.5306  0.3174 -1.0386
  113OSM     NF11740   5.114   5.681  10.613 -0.4349  0.5713 -0.4652
  113OSM    HNF11741   5.022   5.666  10.577  0.5170 -2.0336 -2.1659
  113OSM    C2S11742   5.151   5.674  10.755  0.1645 -0.2529 -0.4939
  113OSM    H2S11743   5.241   5.608  10.762  1.4522  1.2345 -1.9875
  113OSM    C3S11744   5.035   5.636  10.846  0.2479  0.5015  0.8220
  113OSM    H3S11745   4.960   5.718  10.851 -0.1067  0.2335 -0.0108
  113OSM     O311746   5.066   5.618  10.982 -0.6867 -0.1776  0.0597
  113OSM    HO311747   5.147   5.669  10.991 -1.5135  1.1626  0.2058
  113OSM    C4S11748   4.985   5.498  10.804 -0.0201  0.2531 -0.3606
  113OSM    H4S11749   5.059   5.418  10.789  3.1747  2.5133  1.9323
  113OSM    C5S11750   4.856   5.476  10.781 -0.1305 -0.0435 -0.3936
  113OSM    H5S11751   4.789   5.564  10.786 -0.6208 -0.4461  0.3623
  113OSM    C6S11752   4.796   5.351  10.734 -0.1516  0.0101  0.2623
  113OSM    H6S11753   4.694   5.340  10.776 -0.9574 -1.9863 -1.9436
  113OSM    H6T11754   4.857   5.260  10.752 -0.7191 -0.5432 -0.5515
  113OSM    C7S11755   4.794   5.338  10.581  0.5645  0.1924  1.2695
  113OSM    H7S11756   4.757   5.237  10.555  0.7501  0.3177  0.4858
  113OSM    H7T11757   4.894   5.357  10.536  0.2572  0.8496  0.8428
  113OSM    C8S11758   4.684   5.429  10.516 -0.0452  0.1006 -0.3148
  113OSM    H8S11759   4.716   5.534  10.529  1.1600  0.1155 -2.7756
  113OSM    H8T11760   4.588   5.420  10.572  0.8885  0.1072  1.3416
  113OSM    C9S11761   4.665   5.407  10.361 -0.4389  0.1396 -0.5581
  113OSM    H9S11762   4.596   5.322  10.345 -0.0067 -0.5199  0.8359
  113OSM    H9T11763   4.766   5.375  10.328 -1.4878 -0.7163 -3.1466
  113OSM   C10S11764   4.619   5.534  10.298 -0.5916  0.5455 -0.7701
  113OSM   H10S11765   4.696   5.612  10.318  3.6352 -3.3514  0.0144
  113OSM   H10T11766   4.521   5.555  10.347 -0.0445 -1.2294  1.2562
  113OSM   C11S11767   4.601   5.523  10.149 -0.7625 -0.3801 -0.2168
  113OSM   H11S11768   4.571   5.627  10.123 -2.0081 -0.6920 -0.0801
  113OSM   H11T11769   4.528   5.451  10.106  1.2156 -1.2055 -2.4418
  113OSM   C12S11770   4.731   5.502  10.070  0.0737  0.4685 -0.5064
  113OSM   H12S11771   4.794   5.422  10.116 -0.3484 -0.2216 -1.1042
  113OSM   H12T11772   4.797   5.590  10.085 -0.7938  1.3295 -1.5853
  113OSM   C13S11773   4.705   5.482   9.924  0.1670  0.2357  0.1845
  113OSM   H13S11774   4.642   5.562   9.881 -1.0113 -1.7221 -1.8905
  113OSM   H13T11775   4.646   5.389   9.909 -0.6016  0.7014  0.2718
  113OSM   C14S11776   4.835   5.463   9.840  0.1747  0.8908  0.1760
  113OSM   H14S11777   4.901   5.405   9.907 -0.2167  1.1787  0.8201
  113OSM   H14T11778   4.881   5.562   9.820  0.7086  0.7653  0.7493
  113OSM   C15S11779   4.828   5.382   9.713  0.2861 -0.1288  0.9731
  113OSM   H15S11780   4.804   5.275   9.735 -0.4163  0.2561  2.1393
  113OSM   H15T11781   4.932   5.376   9.673 -0.0791 -0.5337  0.0582
  113OSM   C16S11782   4.732   5.428   9.602 -0.6830 -0.1875  0.2315
  113OSM   H16S11783   4.626   5.419   9.635 -1.1035 -0.7368 -1.1826
  113OSM   H16T11784   4.748   5.363   9.513 -1.0826  0.9940 -0.7259
  113OSM   C17S11785   4.751   5.576   9.559 -0.3055 -0.1434 -0.1900
  113OSM   H17S11786   4.858   5.601   9.546 -0.1430  0.0565  1.3144
  113OSM   H17T11787   4.705   5.638   9.639  2.1972  0.1771  1.0781
  113OSM   C18S11788   4.687   5.598   9.426  0.0546  0.2442 -0.0503
  113OSM   H18S11789   4.587   5.550   9.438  0.2630 -0.7941 -2.0384
  113OSM   H18T11790   4.739   5.541   9.346  0.0674 -0.2305  0.2955
  113OSM   H18U11791   4.674   5.702   9.389  2.1438  1.8152  3.1257
  113OSM    C1F11792   5.197   5.690  10.514 -0.8304  0.8005  0.3821
  113OSM     OF11793   5.311   5.666  10.535 -0.3516  0.8429 -0.6466
  113OSM    C2F11794   5.145   5.726  10.381 -0.4400  0.2150  0.3692
  113OSM    H2F11795   5.162   5.835  10.373  0.4076  0.0808  0.2818
  113OSM    H2G11796   5.037   5.702  10.389 -0.1741 -1.5379 -0.6839
  113OSM    C3F11797   5.196   5.646  10.258 -0.2282 -0.6840  0.0697
  113OSM    H3F11798   5.165   5.539  10.259 -0.3191 -0.7267 -2.4237
  113OSM    H3G11799   5.306   5.653  10.246 -0.5698  2.1052 -2.5363
  113OSM    C4F11800   5.143   5.712  10.131  0.1166  0.5623  0.0878
  113OSM    H4F11801   5.194   5.810  10.123 -1.5039  1.7097  2.6652
  113OSM    H4G11802   5.037   5.731  10.156  0.3350  0.4344  1.1507
  113OSM    C5F11803   5.161   5.636   9.997 -0.1399 -0.6046  0.4183
  113OSM    H5F11804   5.086   5.554  10.001 -2.3836  1.3650  2.6318
  113OSM    H5G11805   5.262   5.593   9.981  2.0329  4.2814 -0.5795
  113OSM    C6F11806   5.128   5.718   9.871 -0.0280 -0.0406  0.3692
  113OSM    H6F11807   5.186   5.813   9.873 -0.6845  0.3515  1.1716
  113OSM    H6G11808   5.024   5.753   9.888 -0.5489 -0.2991 -1.9250
  113OSM    C7F11809   5.144   5.652   9.739  0.7736 -0.2089 -0.1567
  113OSM    H7F11810   5.075   5.569   9.713  1.0692 -0.2136 -0.9257
  113OSM    H7G11811   5.243   5.602   9.741  0.8528 -0.0644 -0.3599
  113OSM    C8F11812   5.153   5.751   9.614  0.2221  1.0854 -0.1486
  113OSM    H8F11813   5.047   5.783   9.614 -0.1254 -0.0018 -0.6627
  113OSM    H8G11814   5.166   5.679   9.530 -2.6150 -0.3844  0.5333
  113OSM    C9F11815   5.241   5.873   9.609  0.2356 -0.5910 -0.0202
  113OSM    H9F11816   5.219   5.947   9.687 -2.8943 -0.2772 -1.0879
  113OSM   C10F11817   5.341   5.907   9.520 -0.0544 -0.5330 -0.5094
  113OSM   H10F11818   5.393   6.003   9.532  0.3871 -0.6159 -1.6441
  113OSM   C11F11819   5.386   5.817   9.412  0.5225 -0.3425 -0.1631
  113OSM   H11F11820   5.355   5.712   9.429 -1.1830  0.3550  1.3551
  113OSM   H11G11821   5.496   5.808   9.408  0.3596 -2.5504 -0.8211
  113OSM   C12F11822   5.334   5.859   9.270  0.1314  0.3360  0.0858
  113OSM   H12F11823   5.360   5.966   9.254  0.8217  0.2542  0.6169
  113OSM   H12G11824   5.226   5.835   9.257  0.4814 -1.1192 -0.3298
  113OSM   C13F11825   5.407   5.791   9.153  0.1546 -0.0916  0.2881
  113OSM   H13F11826   5.419   5.681   9.166 -0.2083 -0.0869  0.7082
  113OSM   H13G11827   5.511   5.831   9.157  0.7917 -1.4275 -1.6488
  113OSM   C14F11828   5.332   5.814   9.023 -0.2055  0.2644  0.7067
  113OSM   H14F11829   5.340   5.923   9.000  0.4603  0.2533  0.8695
  113OSM   H14G11830   5.225   5.791   9.044 -0.3516  0.9416  0.7420
  113OSM   C15F11831   5.407   5.737   8.914 -0.4348  0.8384 -0.1438
  113OSM   H15F11832   5.418   5.629   8.938  0.2481  1.5458  3.2729
  113OSM   H15G11833   5.509   5.782   8.904 -1.3679  3.6488  1.8255
  113OSM   C16F11834   5.341   5.752   8.774 -0.2161 -0.0896  0.0649
  113OSM   H16F11835   5.337   5.862   8.765  0.7229 -0.0879 -0.5338
  113OSM   H16G11836   5.239   5.711   8.787  0.4217 -1.7089  0.2761
  113OSM   C17F11837   5.430   5.688   8.662 -0.4148 -0.7832  0.1156
  113OSM   H17F11838   5.429   5.577   8.667 -1.5342 -0.7819  0.1548
  113OSM   H17G11839   5.533   5.719   8.688 -1.6923  2.6178  1.7407
  113OSM   C18F11840   5.400   5.733   8.518 -0.2752  0.5262 -0.1473
  113OSM   H18F11841   5.370   5.840   8.518  1.7036  1.2463  3.0952
  113OSM   H18G11842   5.305   5.686   8.487 -0.6226  0.8032  0.4668
  113OSM   H18H11843   5.478   5.719   8.441 -0.3851  0.2733 -0.2117
  114OSM      N11844   0.787   0.525  11.151 -0.2105  0.4744  0.1037
  114OSM    C1511845   0.710   0.456  11.261 -0.6874  0.5027  0.2132
  114OSM   H15A11846   0.782   0.389  11.305 -1.5433 -0.7549 -0.2353
  114OSM   H15B11847   0.636   0.393  11.213 -0.0861 -0.1032  0.0737
  114OSM   H15C11848   0.669   0.537  11.320 -0.8784  0.9904 -0.5834
  114OSM    C1411849   0.899   0.598  11.213  1.1469  0.1546  0.3727
  114OSM   H14A11850   0.850   0.649  11.296  0.6552 -1.2884  0.9977
  114OSM   H14B11851   0.944   0.668  11.145 -0.1821 -1.0920 -1.8797
  114OSM   H14C11852   0.967   0.526  11.256 -0.7423 -1.0008  1.6040
  114OSM    C1311853   0.831   0.431  11.049 -0.8157 -0.4563  0.0822
  114OSM   H13A11854   0.750   0.377  11.002 -1.0746 -0.8624  0.9631
  114OSM   H13B11855   0.899   0.355  11.085 -1.7436 -1.1654  0.3926
  114OSM   H13C11856   0.881   0.488  10.973 -1.9841 -0.5219 -0.7682
  114OSM    C1211857   0.697   0.626  11.082 -0.1248  0.0588  0.7077
  114OSM   H12A11858   0.610   0.574  11.044 -1.0777  1.1411  1.3216
  114OSM   H12B11859   0.743   0.671  10.996  1.1274  4.6081  3.4042
  114OSM    C1111860   0.628   0.739  11.155 -0.0483 -0.3674  0.1611
  114OSM   H11A11861   0.584   0.808  11.080  2.4062  0.2786 -0.7950
  114OSM   H11B11862   0.705   0.799  11.210 -1.1439  0.4554  0.8424
  114OSM      P11863   0.381   0.644  11.185 -0.2371  0.1366 -0.0541
  114OSM    O1311864   0.350   0.527  11.272  0.4797 -0.5016  0.2020
  114OSM    O1411865   0.280   0.752  11.168 -0.3943 -0.3808  0.0240
  114OSM    O1111866   0.412   0.600  11.044 -0.1703 -0.0341  0.0450
  114OSM    O1211867   0.524   0.706  11.242  0.7218 -0.2955 -0.3365
  114OSM    C1S11868   0.322   0.600  10.935  0.1158  0.0905  0.5008
  114OSM    H1S11869   0.262   0.693  10.929 -0.7717 -0.4998  0.0300
  114OSM    H1T11870   0.239   0.527  10.944  0.7666 -0.7552 -0.1931
  114OSM     NF11871   0.288   0.636  10.694 -0.6117  0.5050  0.6576
  114OSM    HNF11872   0.237   0.560  10.654  0.0417 -0.9685  2.4907
  114OSM    C2S11873   0.391   0.589  10.797  0.6422 -0.6543  0.1530
  114OSM    H2S11874   0.481   0.653  10.780  0.0116 -0.4466 -2.9450
  114OSM    C3S11875   0.434   0.449  10.774  0.1100  0.0438  0.5807
  114OSM    H3S11876   0.344   0.390  10.749 -0.0664  0.1661  0.9222
  114OSM     O311877   0.490   0.382  10.891  0.2091  0.0517  0.0281
  114OSM    HO311878   0.463   0.440  10.962 -0.7269 -0.4858  0.1207
  114OSM    C4S11879   0.537   0.452  10.662  0.1292 -0.4451  0.1714
  114OSM    H4S11880   0.633   0.502  10.683 -0.0360  0.8324 -1.8597
  114OSM    C5S11881   0.522   0.371  10.551  0.7786 -0.0313 -0.5908
  114OSM    H5S11882   0.428   0.314  10.542  0.3426  0.8522 -1.8171
  114OSM    C6S11883   0.616   0.355  10.438 -1.0043  0.4068  0.0796
  114OSM    H6S11884   0.709   0.415  10.452 -0.5269  0.1098 -1.6298
  114OSM    H6T11885   0.568   0.388  10.344 -1.1324  0.7512  0.2610
  114OSM    C7S11886   0.648   0.206  10.417 -0.1217  0.9167  0.4375
  114OSM    H7S11887   0.558   0.151  10.383 -0.2436  0.1340  1.9342
  114OSM    H7T11888   0.690   0.164  10.511 -2.4227  0.2556  1.2298
  114OSM    C8S11889   0.751   0.194  10.304  0.0199  0.3980 -0.1663
  114OSM    H8S11890   0.854   0.210  10.343 -0.2480 -0.4002  0.9403
  114OSM    H8T11891   0.732   0.283  10.241  1.0879 -0.0083 -1.1033
  114OSM    C9S11892   0.747   0.065  10.225 -0.2287  0.4248  0.4201
  114OSM    H9S11893   0.709  -0.009  10.298  0.2171  0.4693  0.7055
  114OSM    H9T11894   0.847   0.031  10.191 -0.0872 -0.2341  1.4548
  114OSM   C10S11895   0.658   0.079  10.101  0.4116 -0.0899 -0.4687
  114OSM   H10S11896   0.578   0.153  10.122  1.3777  1.3677 -1.7377
  114OSM   H10T11897   0.609  -0.010  10.057  0.7457  0.0916 -1.2331
  114OSM   C11S11898   0.736   0.134   9.978  0.2686  0.0463 -0.3317
  114OSM   H11S11899   0.809   0.054   9.955  1.3313  0.7752  0.4390
  114OSM   H11T11900   0.787   0.228  10.008 -0.9839  0.3478  0.9686
  114OSM   C12S11901   0.653   0.169   9.854  0.6741  0.1061  0.2391
  114OSM   H12S11902   0.582   0.246   9.890  0.8410  0.1261  0.5292
  114OSM   H12T11903   0.597   0.076   9.827 -1.1872  1.1288  0.4125
  114OSM   C13S11904   0.732   0.191   9.728  0.1788 -0.6911 -0.0481
  114OSM   H13S11905   0.819   0.122   9.720  0.7276 -0.4117  2.6651
  114OSM   H13T11906   0.770   0.296   9.725  1.7436 -1.1146  2.4541
  114OSM   C14S11907   0.641   0.184   9.604 -0.0787  0.2872 -0.4790
  114OSM   H14S11908   0.548   0.243   9.616  1.0580  1.6613  2.5971
  114OSM   H14T11909   0.610   0.079   9.585  1.3509  0.0270 -1.6137
  114OSM   C15S11910   0.723   0.217   9.477  0.0030 -0.2382  0.0679
  114OSM   H15S11911   0.831   0.193   9.487 -0.2743 -0.7802  2.2086
  114OSM   H15T11912   0.721   0.326   9.457  1.0648 -0.4876 -1.6171
  114OSM   C16S11913   0.675   0.154   9.346  0.1462 -0.1362  0.1319
  114OSM   H16S11914   0.564   0.163   9.340  0.0750 -0.6026  0.7034
  114OSM   H16T11915   0.698   0.045   9.340 -0.0567 -0.1625 -0.1710
  114OSM   C17S11916   0.740   0.227   9.220  0.0987  0.4614  0.4064
  114OSM   H17S11917   0.833   0.168   9.203 -0.9855 -1.0348 -0.5416
  114OSM   H17T11918   0.752   0.334   9.249 -1.7089  0.3085  1.9476
  114OSM   C18S11919   0.658   0.226   9.085  0.1203  0.1320 -0.2395
  114OSM   H18S11920   0.565   0.286   9.094 -1.0773 -1.6716 -0.0341
  114OSM   H18T11921   0.626   0.124   9.057 -0.5070 -0.1174  1.2724
  114OSM   H18U11922   0.719   0.270   9.003 -0.2014  0.2192 -0.4319
  114OSM    C1F11923   0.250   0.759  10.681 -0.1627  0.0824  1.0608
  114OSM     OF11924   0.333   0.851  10.702  0.0089 -0.0365  0.0993
  114OSM    C2F11925   0.110   0.790  10.638  0.0154  1.0947 -0.7722
  114OSM    H2F11926   0.066   0.841  10.726 -0.4492 -1.7610  0.7408
  114OSM    H2G11927   0.062   0.694  10.611  2.7590 -0.4687 -0.5032
  114OSM    C3F11928   0.113   0.891  10.517  0.6190  0.1568 -0.5557
  114OSM    H3F11929   0.152   0.987  10.556 -0.5151  0.3979  0.0442
  114OSM    H3G11930   0.011   0.924  10.487 -0.2524  0.8917  2.8545
  114OSM    C4F11931   0.183   0.838  10.394 -0.9711 -0.4618  0.7799
  114OSM    H4F11932   0.137   0.740  10.368  0.1064 -0.4428 -1.5276
  114OSM    H4G11933   0.293   0.831  10.409 -0.8632 -1.1423 -0.2322
  114OSM    C5F11934   0.177   0.940  10.268  0.4187  0.0152 -0.1065
  114OSM    H5F11935   0.226   1.035  10.297  3.0113 -1.9502  2.6718
  114OSM    H5G11936   0.068   0.947  10.249  0.4504 -1.3142 -0.9149
  114OSM    C6F11937   0.258   0.891  10.148  0.1683 -0.2656 -0.1763
  114OSM    H6F11938   0.211   0.801  10.102 -0.4091 -0.4190  0.7021
  114OSM    H6G11939   0.360   0.868  10.186  0.0982  1.1260  0.9404
  114OSM    C7F11940   0.259   0.996  10.037 -0.3363  0.0266 -0.0050
  114OSM    H7F11941   0.296   1.094  10.074 -1.4031  0.5569 -0.2919
  114OSM    H7G11942   0.157   1.014   9.996  0.3317  0.9702 -1.3046
  114OSM    C8F11943   0.350   0.965   9.917 -0.1654 -0.3835 -0.2448
  114OSM    H8F11944   0.327   0.861   9.885  1.4181 -0.8432  0.0693
  114OSM    H8G11945   0.447   0.965   9.970 -0.5323 -1.0094  0.4480
  114OSM    C9F11946   0.333   1.053   9.797  0.7346  1.0223 -0.4873
  114OSM    H9F11947   0.405   1.136   9.795  1.2501  0.5837 -0.5575
  114OSM   C10F11948   0.249   1.024   9.696  0.6537  0.1127  0.1108
  114OSM   H10F11949   0.247   1.095   9.612 -0.1483 -0.0489 -0.0100
  114OSM   C11F11950   0.150   0.911   9.669  0.8652  0.0176  0.8602
  114OSM   H11F11951   0.044   0.943   9.659  0.6679 -0.7073  0.5968
  114OSM   H11G11952   0.144   0.838   9.753  2.0495 -1.3375 -0.2004
  114OSM   C12F11953   0.194   0.839   9.546  0.3542  0.4304  0.2537
  114OSM   H12F11954   0.158   0.734   9.556 -0.7053  0.8933  1.6641
  114OSM   H12G11955   0.304   0.847   9.532  0.2078 -0.1832 -1.4971
  114OSM   C13F11956   0.147   0.892   9.407 -0.2607  1.0522 -0.0063
  114OSM   H13F11957   0.193   0.992   9.409  2.8100 -0.2578 -0.1742
  114OSM   H13G11958   0.037   0.906   9.415 -0.6033 -0.8255 -0.6829
  114OSM   C14F11959   0.182   0.804   9.287  0.7852  0.1190  0.3546
  114OSM   H14F11960   0.169   0.697   9.311  3.4159 -0.2797  0.3422
  114OSM   H14G11961   0.288   0.817   9.257  0.1839  1.6893 -1.3073
  114OSM   C15F11962   0.103   0.841   9.165  0.0820  0.5956  0.2648
  114OSM   H15F11963   0.083   0.950   9.163  1.3994  0.8803  1.3094
  114OSM   H15G11964   0.006   0.790   9.176 -0.3361  1.7540  2.4695
  114OSM   C16F11965   0.174   0.808   9.030 -0.1282  0.6722 -0.1086
  114OSM   H16F11966   0.180   0.697   9.025 -1.5059  0.5879 -0.3523
  114OSM   H16G11967   0.276   0.850   9.018  0.3025 -0.5337 -0.9593
  114OSM   C17F11968   0.082   0.848   8.915 -0.0837  0.2849 -1.1024
  114OSM   H17F11969   0.043   0.949   8.937  0.2625 -0.0405  1.3151
  114OSM   H17G11970  -0.006   0.781   8.908  0.1623 -0.4972  1.7372
  114OSM   C18F11971   0.143   0.849   8.776  0.0203  0.1635  0.7747
  114OSM   H18F11972   0.094   0.906   8.694 -1.5466 -1.4212  0.5392
  114OSM   H18G11973   0.147   0.746   8.733  0.5486  0.6260 -0.3424
  114OSM   H18H11974   0.249   0.883   8.777  0.1423 -0.0701 -0.8519
  115OSM      N11975   3.544   0.043  11.291  0.6635 -0.1702  0.1347
  115OSM    C1511976   3.631  -0.063  11.228  0.0658  0.0823 -0.1675
  115OSM   H15A11977   3.679  -0.120  11.305 -0.5799  0.6566  0.6742
  115OSM   H15B11978   3.705  -0.014  11.167 -0.6241  1.4247  0.0278
  115OSM   H15C11979   3.578  -0.129  11.161  1.7517  0.1517 -1.6679
  115OSM    C1411980   3.465  -0.024  11.391  0.5998  0.0931  0.0128
  115OSM   H14A11981   3.399  -0.095  11.342  1.0681 -0.0825 -0.3718
  115OSM   H14B11982   3.401   0.042  11.448 -1.0969 -0.7884 -0.7745
  115OSM   H14C11983   3.520  -0.078  11.466 -1.2714 -0.1961  1.2528
  115OSM    C1311984   3.627   0.148  11.363 -0.2291 -0.1389 -0.0467
  115OSM   H13A11985   3.711   0.177  11.301  0.1545  0.8192  0.8881
  115OSM   H13B11986   3.672   0.100  11.448 -2.3462  0.8548  1.7228
  115OSM   H13C11987   3.572   0.233  11.400 -1.3752 -0.8056 -0.1725
  115OSM    C1211988   3.456   0.114  11.187 -0.0348 -0.0183 -0.0001
  115OSM   H12A11989   3.520   0.143  11.105  0.1653  1.5580  0.6738
  115OSM   H12B11990   3.413   0.205  11.226 -1.1646 -0.7616  0.5276
  115OSM    C1111991   3.341   0.032  11.131  0.2188  0.6868  0.5350
  115OSM   H11A11992   3.312   0.093  11.043  4.1677  1.9995 -0.0358
  115OSM   H11B11993   3.256   0.044  11.202  0.5613  0.9127  0.9143
  115OSM      P11994   3.262  -0.219  11.140 -0.2481  0.2975  0.0629
  115OSM    O1311995   3.315  -0.349  11.097 -0.5550 -0.4318 -0.1642
  115OSM    O1411996   3.232  -0.218  11.286 -0.1593  0.1245 -0.6909
  115OSM    O1111997   3.126  -0.187  11.062 -0.5040  0.0931  0.3137
  115OSM    O1211998   3.369  -0.107  11.106 -0.3557  0.0845 -0.0740
  115OSM    C1S11999   3.150  -0.165  10.919  0.5594 -0.4842 -0.2923
  115OSM    H1S12000   3.246  -0.114  10.899  0.4534 -0.1809 -0.0445
  115OSM    H1T12001   3.087  -0.081  10.881  0.2071 -1.7624 -2.7300
  115OSM     NF12002   3.153  -0.240  10.686  0.1802 -0.3735 -0.6550
  115OSM    HNF12003   3.078  -0.196  10.636  1.6172  0.7231 -1.9664
  115OSM    C2S12004   3.126  -0.283  10.824  0.1679  0.7412  0.5742
  115OSM    H2S12005   3.193  -0.365  10.859  1.2685  1.0813 -0.6624
  115OSM    C3S12006   2.974  -0.330  10.839  0.0204 -0.3997 -0.0846
  115OSM    H3S12007   2.915  -0.241  10.805  1.4908  0.3007 -0.8956
  115OSM     O312008   2.931  -0.339  10.978  0.3747 -0.1376  0.0673
  115OSM    HO312009   2.994  -0.281  11.022  0.1756  0.4723 -0.4320
  115OSM    C4S12010   2.944  -0.457  10.764  0.8013  0.0153 -0.3025
  115OSM    H4S12011   3.008  -0.541  10.795  1.3190  0.2214 -0.7878
  115OSM    C5S12012   2.843  -0.480  10.680  0.0788 -0.0207 -0.9764
  115OSM    H5S12013   2.779  -0.393  10.661  1.6672  1.4245  0.0067
  115OSM    C6S12014   2.815  -0.613  10.609 -0.5228 -0.5085 -0.0515
  115OSM    H6S12015   2.708  -0.636  10.630 -0.0135 -1.5399  1.6224
  115OSM    H6T12016   2.869  -0.698  10.656 -1.0892 -0.3634  0.8892
  115OSM    C7S12017   2.854  -0.612  10.461 -0.3465 -0.1745  1.2350
  115OSM    H7S12018   2.963  -0.598  10.443 -0.4391 -1.0916 -0.2050
  115OSM    H7T12019   2.803  -0.529  10.408 -0.1197 -0.1053  1.1246
  115OSM    C8S12020   2.809  -0.746  10.375 -1.0368 -0.5503  1.0345
  115OSM    H8S12021   2.715  -0.772  10.428 -1.0959  1.5789  2.1032
  115OSM    H8T12022   2.886  -0.823  10.396 -1.5114 -1.6353 -0.9952
  115OSM    C9S12023   2.795  -0.717  10.229  0.1619  0.1131 -0.2304
  115OSM    H9S12024   2.898  -0.698  10.191 -1.0670 -0.8677 -4.7279
  115OSM    H9T12025   2.729  -0.630  10.208 -1.5748 -1.2655 -0.7620
  115OSM   C10S12026   2.742  -0.842  10.151 -0.0306  0.1014 -0.2664
  115OSM   H10S12027   2.642  -0.860  10.196  0.5196 -0.1643  0.8905
  115OSM   H10T12028   2.809  -0.925  10.182 -1.6801 -0.1518  3.1225
  115OSM   C11S12029   2.716  -0.823  10.004  0.1854 -0.5777 -0.7387
  115OSM   H11S12030   2.811  -0.803   9.951  0.2888  1.4927  0.1479
  115OSM   H11T12031   2.650  -0.736   9.985  1.1658  0.7810  1.7271
  115OSM   C12S12032   2.663  -0.943   9.927 -0.0527  0.2517  0.1822
  115OSM   H12S12033   2.567  -0.988   9.959  1.1032 -2.1684  0.4760
  115OSM   H12T12034   2.740  -1.021   9.948  0.2771  0.0235 -1.6843
  115OSM   C13S12035   2.647  -0.902   9.780 -0.2545 -0.1725  0.9008
  115OSM   H13S12036   2.740  -0.861   9.735 -1.1630 -1.3021 -2.3251
  115OSM   H13T12037   2.572  -0.820   9.778 -2.0502 -1.7213 -1.2400
  115OSM   C14S12038   2.592  -1.018   9.686 -0.3161  0.7623  0.2086
  115OSM   H14S12039   2.486  -0.990   9.672 -0.0373  1.2392 -1.0743
  115OSM   H14T12040   2.603  -1.115   9.739  2.2651  0.5483 -0.5776
  115OSM   C15S12041   2.672  -1.024   9.552 -0.4479 -0.9263 -0.0483
  115OSM   H15S12042   2.777  -1.047   9.582 -0.9431 -1.6806  1.1815
  115OSM   H15T12043   2.676  -0.928   9.497  1.2796 -0.2274  1.1833
  115OSM   C16S12044   2.610  -1.131   9.462  0.6217 -0.1382  0.4918
  115OSM   H16S12045   2.500  -1.121   9.445  0.6505 -1.4970 -0.6805
  115OSM   H16T12046   2.616  -1.230   9.512 -1.6059 -0.3603  0.4091
  115OSM   C17S12047   2.687  -1.136   9.334 -0.0496 -0.6122 -0.2700
  115OSM   H17S12048   2.795  -1.158   9.348  0.2021 -0.4736 -1.8149
  115OSM   H17T12049   2.689  -1.036   9.286 -3.9719 -0.9708 -1.5594
  115OSM   C18S12050   2.638  -1.248   9.236 -0.1615  0.3133  0.4644
  115OSM   H18S12051   2.535  -1.217   9.208  0.6474  1.1219 -1.8542
  115OSM   H18T12052   2.629  -1.345   9.290  0.5981 -0.6188 -1.0259
  115OSM   H18U12053   2.695  -1.252   9.141 -0.6288  0.5684  0.1637
  115OSM    C1F12054   3.266  -0.216  10.634 -0.1155 -0.0804 -0.5736
  115OSM     OF12055   3.367  -0.233  10.702 -0.3653  0.0430 -0.1371
  115OSM    C2F12056   3.276  -0.162  10.496  0.1017  0.5095 -0.4698
  115OSM    H2F12057   3.370  -0.106  10.481 -1.8894  4.3034 -0.0757
  115OSM    H2G12058   3.196  -0.085  10.480  0.8823  1.7215  1.2237
  115OSM    C3F12059   3.261  -0.280  10.390  0.3281 -0.9616  0.2490
  115OSM    H3F12060   3.162  -0.327  10.408 -0.0058 -0.0232  0.9846
  115OSM    H3G12061   3.345  -0.347  10.417  1.5412  1.0955  1.9433
  115OSM    C4F12062   3.261  -0.234  10.240  0.0270  0.2786 -0.0250
  115OSM    H4F12063   3.361  -0.192  10.216 -1.0728  1.7259 -2.4182
  115OSM    H4G12064   3.189  -0.150  10.232  0.5301  0.7415  0.2489
  115OSM    C5F12065   3.234  -0.357  10.149 -0.1160 -0.3472  0.2258
  115OSM    H5F12066   3.141  -0.408  10.184 -1.3472  2.1752  0.8714
  115OSM    H5G12067   3.320  -0.426  10.164  0.8676  0.9637  0.8221
  115OSM    C6F12068   3.232  -0.328   9.999 -0.2429 -0.3241  0.4357
  115OSM    H6F12069   3.318  -0.268   9.963  1.7214 -2.3844  1.5274
  115OSM    H6G12070   3.138  -0.270   9.981 -0.4824 -1.5077 -2.9986
  115OSM    C7F12071   3.206  -0.453   9.916 -0.2729 -0.4512 -0.0921
  115OSM    H7F12072   3.110  -0.503   9.939 -0.0567 -1.3528 -1.0833
  115OSM    H7G12073   3.289  -0.523   9.939 -0.4549 -1.2330 -1.6343
  115OSM    C8F12074   3.197  -0.421   9.768 -0.1091  0.6041  0.0633
  115OSM    H8F12075   3.206  -0.522   9.723 -0.7735 -0.2103  1.6531
  115OSM    H8G12076   3.289  -0.371   9.731 -0.1823  1.1194  0.5618
  115OSM    C9F12077   3.068  -0.358   9.727 -0.2910 -0.0171 -0.0337
  115OSM    H9F12078   3.045  -0.265   9.781  1.2209  0.1113  0.4398
  115OSM   C10F12079   2.976  -0.397   9.634 -0.2484 -0.2782  0.7769
  115OSM   H10F12080   2.884  -0.338   9.626 -1.7855 -2.7698 -1.8902
  115OSM   C11F12081   2.981  -0.518   9.547  0.5490  0.4998 -0.0198
  115OSM   H11F12082   2.902  -0.588   9.579  0.5187  0.7176  0.3870
  115OSM   H11G12083   3.082  -0.565   9.541  0.9645  1.3514  0.0707
  115OSM   C12F12084   2.946  -0.482   9.400  0.4139 -0.8388  0.3209
  115OSM   H12F12085   2.947  -0.575   9.338  2.0858 -2.0114  1.9890
  115OSM   H12G12086   3.014  -0.408   9.353 -1.8465  0.9083 -0.3404
  115OSM   C13F12087   2.816  -0.403   9.371  0.2779 -0.1789  0.2032
  115OSM   H13F12088   2.819  -0.306   9.424  1.3100 -1.6715  3.1108
  115OSM   H13G12089   2.735  -0.463   9.418 -0.1733  0.4271  0.2038
  115OSM   C14F12090   2.792  -0.387   9.223 -1.0756  0.4683 -0.4893
  115OSM   H14F12091   2.755  -0.482   9.180  1.4493 -0.7887 -0.1051
  115OSM   H14G12092   2.888  -0.356   9.176  0.4011 -0.7268  1.5279
  115OSM   C15F12093   2.687  -0.280   9.185  0.3610 -0.6991 -0.0848
  115OSM   H15F12094   2.666  -0.313   9.081  1.2641 -0.0541 -0.4752
  115OSM   H15G12095   2.742  -0.184   9.191 -0.4565 -0.3215  3.0494
  115OSM   C16F12096   2.565  -0.287   9.272  0.9176  0.4291  0.0878
  115OSM   H16F12097   2.591  -0.252   9.374  1.5363  0.1194  0.0362
  115OSM   H16G12098   2.524  -0.388   9.291 -0.0222  0.5767 -1.0232
  115OSM   C17F12099   2.462  -0.188   9.215  1.0043  0.2997 -0.3043
  115OSM   H17F12100   2.450  -0.212   9.108 -0.7812 -0.7140  0.0818
  115OSM   H17G12101   2.499  -0.085   9.234 -0.2684  0.6800  0.2514
  115OSM   C18F12102   2.332  -0.196   9.285  0.2265  0.6049 -0.5354
  115OSM   H18F12103   2.253  -0.137   9.233  0.5695  0.7644 -0.8776
  115OSM   H18G12104   2.349  -0.158   9.389 -2.2874  0.6102 -0.0701
  115OSM   H18H12105   2.291  -0.299   9.291  0.3242  0.5718 -0.4341
  116OSM      N12106   0.425   3.764  11.186 -0.2912 -0.4240 -0.2007
  116OSM    C1512107   0.419   3.890  11.271 -0.5675  0.2432 -0.0933
  116OSM   H15A12108   0.348   3.889  11.352  0.7540  3.4307  1.2383
  116OSM   H15B12109   0.393   3.977  11.212  0.4602 -1.0500 -2.6318
  116OSM   H15C12110   0.517   3.911  11.312 -0.0277 -0.8845 -0.7354
  116OSM    C1412111   0.294   3.767  11.110 -0.1600  0.1320  0.1560
  116OSM   H14A12112   0.278   3.854  11.048 -1.5613  1.0737  1.7523
  116OSM   H14B12113   0.213   3.774  11.182  0.5336  0.1323  0.9486
  116OSM   H14C12114   0.283   3.684  11.041  2.7053  0.2784 -0.5838
  116OSM    C1312115   0.534   3.786  11.081 -0.6699 -0.2262 -0.7758
  116OSM   H13A12116   0.508   3.847  10.996  1.3476 -0.7008 -1.7885
  116OSM   H13B12117   0.573   3.695  11.038  2.2010  1.1696 -1.3280
  116OSM   H13C12118   0.619   3.841  11.117 -0.6949 -1.0817  0.6561
  116OSM    C1212119   0.445   3.638  11.263  0.3309  0.5752  0.2516
  116OSM   H12A12120   0.359   3.621  11.326  2.4039 -1.4341  2.8151
  116OSM   H12B12121   0.531   3.651  11.328  2.7871  0.4339 -2.7558
  116OSM    C1112122   0.467   3.506  11.190  0.0592  0.4411  0.0287
  116OSM   H11A12123   0.446   3.429  11.267 -1.9192  1.6900  0.8150
  116OSM   H11B12124   0.573   3.492  11.159 -0.0684 -1.2662  0.2719
  116OSM      P12125   0.395   3.370  10.983 -0.3623  0.3163 -0.1819
  116OSM    O1312126   0.469   3.257  11.034 -0.2152  0.3089 -0.2200
  116OSM    O1412127   0.273   3.342  10.904  0.1362 -0.0172 -0.7760
  116OSM    O1112128   0.499   3.440  10.890 -0.1357 -0.0714  0.1465
  116OSM    O1212129   0.375   3.480  11.090 -0.0131  0.5560  0.4582
  116OSM    C1S12130   0.554   3.367  10.780 -0.0788  0.2416  0.3585
  116OSM    H1S12131   0.542   3.256  10.788 -0.7684  0.3026  0.1731
  116OSM    H1T12132   0.664   3.378  10.772  0.2544 -1.8591  1.2455
  116OSM     NF12133   0.549   3.338  10.540 -0.4617  0.1460  0.0317
  116OSM    HNF12134   0.627   3.381  10.495  0.0065 -0.7583 -0.0537
  116OSM    C2S12135   0.500   3.421  10.649 -0.7051  0.1470  0.1675
  116OSM    H2S12136   0.389   3.417  10.652 -0.8061 -0.3757 -2.2009
  116OSM    C3S12137   0.539   3.578  10.650 -0.6706  0.2105  0.4592
  116OSM    H3S12138   0.648   3.586  10.668 -0.4249 -0.6893 -0.5247
  116OSM     O312139   0.483   3.657  10.749 -0.4632 -0.6176 -1.0103
  116OSM    HO312140   0.450   3.584  10.802  0.2938 -0.0466  0.2724
  116OSM    C4S12141   0.506   3.634  10.517 -0.0555 -0.0765  0.6258
  116OSM    H4S12142   0.399   3.650  10.501 -0.0238 -1.9415 -2.2434
  116OSM    C5S12143   0.579   3.690  10.418 -0.7072  0.2028  1.1862
  116OSM    H5S12144   0.688   3.703  10.424 -0.6103  1.8945 -1.9278
  116OSM    C6S12145   0.516   3.728  10.288 -0.7712 -0.1151  0.6187
  116OSM    H6S12146   0.579   3.812  10.251  2.7465 -1.7712  2.3734
  116OSM    H6T12147   0.406   3.744  10.287 -0.7657 -0.0427  1.0013
  116OSM    C7S12148   0.552   3.606  10.189 -0.6093  0.0200  0.1156
  116OSM    H7S12149   0.505   3.515  10.232 -0.3734  0.1483  0.6416
  116OSM    H7T12150   0.660   3.581  10.175 -0.0436  1.8415  0.8544
  116OSM    C8S12151   0.505   3.626  10.044  0.0455 -0.0578 -0.2137
  116OSM    H8S12152   0.393   3.628  10.043 -0.0156  0.8617  2.0725
  116OSM    H8T12153   0.533   3.539   9.982 -1.1481 -0.0576 -0.7963
  116OSM    C9S12154   0.564   3.751   9.977  0.4208  0.2492  0.5933
  116OSM    H9S12155   0.673   3.735   9.991  0.2718 -0.3110  1.1974
  116OSM    H9T12156   0.535   3.844  10.029 -1.3020 -0.5956  1.2211
  116OSM   C10S12157   0.538   3.775   9.831  0.1330 -0.8068  0.7720
  116OSM   H10S12158   0.613   3.853   9.806  1.2654 -1.9137  0.5776
  116OSM   H10T12159   0.435   3.812   9.813 -1.0340 -3.1720  2.0803
  116OSM   C11S12160   0.569   3.663   9.734  0.7444  0.5976 -0.3331
  116OSM   H11S12161   0.520   3.565   9.757  3.2076  0.0216  3.2199
  116OSM   H11T12162   0.678   3.646   9.741  0.5946 -0.6408 -0.6737
  116OSM   C12S12163   0.524   3.700   9.590  0.0982  0.4705 -0.4216
  116OSM   H12S12164   0.583   3.793   9.573 -1.4170  1.0498 -2.9496
  116OSM   H12T12165   0.415   3.721   9.589  0.2343  1.3244  0.5725
  116OSM   C13S12166   0.535   3.598   9.484  0.2755 -0.6688  0.5055
  116OSM   H13S12167   0.477   3.507   9.511 -0.6931 -0.9205 -2.1492
  116OSM   H13T12168   0.640   3.571   9.459  0.1457  0.6517 -1.7268
  116OSM   C14S12169   0.465   3.650   9.360 -1.2870 -0.1277 -0.3692
  116OSM   H14S12170   0.500   3.755   9.346  0.1325 -0.5449 -0.1144
  116OSM   H14T12171   0.359   3.665   9.387 -1.1892  0.5624 -0.3477
  116OSM   C15S12172   0.471   3.547   9.247 -0.3232 -0.5808 -0.3006
  116OSM   H15S12173   0.404   3.461   9.270 -2.0159  1.0634  1.2261
  116OSM   H15T12174   0.569   3.494   9.240 -0.7423 -1.4396  0.1648
  116OSM   C16S12175   0.425   3.598   9.114 -0.8155  0.2019 -0.4173
  116OSM   H16S12176   0.474   3.694   9.087 -1.3056  0.6190  0.1411
  116OSM   H16T12177   0.318   3.628   9.118 -0.5090  1.2113  1.4773
  116OSM   C17S12178   0.470   3.521   8.988  0.5602  0.7604  0.7904
  116OSM   H17S12179   0.408   3.429   8.979  0.5826  0.8775 -0.8839
  116OSM   H17T12180   0.576   3.489   8.996  0.5426 -0.1214 -1.7503
  116OSM   C18S12181   0.451   3.596   8.852  0.9127  0.3021 -0.2036
  116OSM   H18S12182   0.344   3.626   8.848  1.3761  2.5047  1.6112
  116OSM   H18T12183   0.473   3.522   8.772  0.8996 -0.5625  0.5613
  116OSM   H18U12184   0.520   3.683   8.850 -0.6630  1.5638 -0.8705
  116OSM    C1F12185   0.504   3.218  10.501 -0.6807  0.4429  0.6972
  116OSM     OF12186   0.406   3.172  10.558 -0.1931 -0.3328  0.2878
  116OSM    C2F12187   0.585   3.147  10.385 -0.5256 -0.9459 -0.1775
  116OSM    H2F12188   0.691   3.180  10.395 -0.4192 -0.8910 -1.3340
  116OSM    H2G12189   0.546   3.186  10.289  1.2625  1.4872 -0.0133
  116OSM    C3F12190   0.565   2.991  10.370  1.0097 -0.3166  0.2309
  116OSM    H3F12191   0.556   2.939  10.467 -0.1369  1.2859  1.0412
  116OSM    H3G12192   0.658   2.954  10.322  1.2896  0.5668  0.0728
  116OSM    C4F12193   0.452   2.957  10.272  0.1015  0.0508  0.3590
  116OSM    H4F12194   0.352   3.000  10.292 -0.3908 -1.0586  0.3498
  116OSM    H4G12195   0.428   2.849  10.283  1.5756 -0.2675  0.6794
  116OSM    C5F12196   0.480   2.980  10.127  0.7384 -0.2914 -0.0322
  116OSM    H5F12197   0.567   2.912  10.112  0.8142 -0.5121  1.2876
  116OSM    H5G12198   0.497   3.087  10.101  2.4648 -0.3065  0.8608
  116OSM    C6F12199   0.368   2.926  10.030 -0.6749  0.8663  0.2223
  116OSM    H6F12200   0.277   2.956  10.087 -0.4892  0.3899  0.7747
  116OSM    H6G12201   0.387   2.817  10.033 -0.0842  0.9754  2.7559
  116OSM    C7F12202   0.358   2.992   9.891  0.6831  0.1729  0.5465
  116OSM    H7F12203   0.454   2.984   9.837  0.1472 -0.8718 -0.2792
  116OSM    H7G12204   0.341   3.100   9.906 -1.7373  0.2505 -2.0375
  116OSM    C8F12205   0.242   2.924   9.812 -0.2672  0.2729  0.6482
  116OSM    H8F12206   0.155   2.929   9.882 -0.8520 -1.0778  0.0731
  116OSM    H8G12207   0.257   2.816   9.792 -0.4719  0.2827  0.4353
  116OSM    C9F12208   0.199   2.993   9.689 -0.3120  0.4922  0.9032
  116OSM    H9F12209   0.147   3.088   9.703  0.2668  1.4909 -2.7256
  116OSM   C10F12210   0.201   2.949   9.557 -0.0828  1.0928 -0.3265
  116OSM   H10F12211   0.161   3.010   9.474  0.9329 -0.0854 -1.7339
  116OSM   C11F12212   0.246   2.807   9.516  0.5155  0.4686 -0.3658
  116OSM   H11F12213   0.163   2.734   9.521  1.0115 -0.2429 -2.0128
  116OSM   H11G12214   0.330   2.766   9.577 -0.1203  0.4709  0.5256
  116OSM   C12F12215   0.299   2.792   9.375  0.0591  0.0940 -0.4367
  116OSM   H12F12216   0.320   2.684   9.367 -1.2995 -0.1425 -1.0766
  116OSM   H12G12217   0.402   2.833   9.375  1.3504 -2.5156  3.8780
  116OSM   C13F12218   0.214   2.842   9.258  0.4636  0.2038 -0.2295
  116OSM   H13F12219   0.187   2.949   9.271 -1.1116 -0.2566  0.4957
  116OSM   H13G12220   0.117   2.787   9.258 -0.3656  1.5846 -1.4187
  116OSM   C14F12221   0.290   2.808   9.126 -0.1336  0.7720 -0.3023
  116OSM   H14F12222   0.297   2.697   9.127  0.9121  0.8267 -0.3851
  116OSM   H14G12223   0.394   2.845   9.138  1.0150 -2.3203 -0.0121
  116OSM   C15F12224   0.216   2.863   8.998 -0.1751  0.2533  0.1378
  116OSM   H15F12225   0.173   2.965   9.010 -0.6228 -0.0068  0.8108
  116OSM   H15G12226   0.132   2.797   8.970  0.9934 -1.5776  0.7644
  116OSM   C16F12227   0.312   2.880   8.877 -0.9702 -0.1904  0.5805
  116OSM   H16F12228   0.341   2.776   8.851  1.7070  0.5022  0.4864
  116OSM   H16G12229   0.402   2.937   8.908  0.1334 -1.2700 -0.5429
  116OSM   C17F12230   0.262   2.938   8.747 -0.5981 -0.4248  0.2314
  116OSM   H17F12231   0.220   3.039   8.763  3.1504  1.0713  1.7149
  116OSM   H17G12232   0.174   2.878   8.712 -0.6097  0.1017 -0.6589
  116OSM   C18F12233   0.356   2.934   8.622  0.4460 -0.6369  1.0023
  116OSM   H18F12234   0.401   2.833   8.615 -0.6764 -1.0845 -0.1950
  116OSM   H18G12235   0.436   3.006   8.646  0.8067 -1.2543  1.7150
  116OSM   H18H12236   0.307   2.963   8.527 -0.6266  0.2834  1.8008
  117OSM      N12237   5.428   5.465  11.470  0.0581  0.1395 -0.1395
  117OSM    C1512238   5.390   5.376  11.587 -0.1677 -0.0293  0.0700
  117OSM   H15A12239   5.305   5.418  11.639  0.3104  1.3690 -0.2366
  117OSM   H15B12240   5.462   5.370  11.667  0.9345 -1.5786 -0.9777
  117OSM   H15C12241   5.357   5.282  11.546  0.5248 -0.5427  0.6721
  117OSM    C1412242   5.451   5.602  11.511 -0.3539 -0.2642 -0.7013
  117OSM   H14A12243   5.464   5.669  11.428  0.2763  0.4785 -0.0276
  117OSM   H14B12244   5.542   5.606  11.571 -0.5827  1.4884 -0.4219
  117OSM   H14C12245   5.371   5.631  11.577  0.0903  2.1377 -1.1255
  117OSM    C1312246   5.560   5.417  11.421 -0.1375  0.5435  1.0324
  117OSM   H13A12247   5.547   5.318  11.379  1.0462 -0.1791  2.3111
  117OSM   H13B12248   5.641   5.413  11.492  0.0168  0.2782  0.8423
  117OSM   H13C12249   5.594   5.479  11.339 -0.1845 -0.0749  0.5329
  117OSM    C1212250   5.328   5.453  11.354  0.7454  0.0741  0.3362
  117OSM   H12A12251   5.236   5.495  11.392  0.8206  1.7053 -1.1846
  117OSM   H12B12252   5.309   5.348  11.338  1.9731 -0.0748 -0.2508
  117OSM    C1112253   5.353   5.528  11.220  0.0642 -0.3859 -0.4578
  117OSM   H11A12254   5.392   5.631  11.232  0.2048 -0.3921 -0.8302
  117OSM   H11B12255   5.258   5.539  11.163  0.7920  1.7064 -1.3872
  117OSM      P12256   5.433   5.322  11.087  0.1914  0.2821  0.1565
  117OSM    O1312257   5.555   5.252  11.126 -0.2676  0.0214 -0.0829
  117OSM    O1412258   5.308   5.265  11.139 -0.7113 -0.1453  0.2041
  117OSM    O1112259   5.416   5.331  10.933  0.3336  0.6420  0.0287
  117OSM    O1212260   5.449   5.465  11.141 -0.1819  0.7347  0.1225
  117OSM    C1S12261   5.470   5.433  10.853 -0.2996  0.2003 -1.0311
  117OSM    H1S12262   5.576   5.443  10.884  0.0298 -1.3995 -1.5326
  117OSM    H1T12263   5.418   5.530  10.867  1.6468  1.5584 -2.6781
  117OSM     NF12264   5.504   5.499  10.620  0.7414  0.0022  0.0066
  117OSM    HNF12265   5.432   5.555  10.580 -0.2710 -0.8722  0.5368
  117OSM    C2S12266   5.462   5.388  10.704 -0.4095  0.2253  0.1239
  117OSM    H2S12267   5.529   5.300  10.693  0.1732  0.7118 -0.2190
  117OSM    C3S12268   5.320   5.346  10.662 -0.0415  0.4822 -0.1341
  117OSM    H3S12269   5.251   5.432  10.656  0.2258  0.6609 -0.7726
  117OSM     O312270   5.260   5.264  10.756  0.3372  0.8481  0.2380
  117OSM    HO312271   5.320   5.268  10.831 -0.5129 -2.2895  1.2176
  117OSM    C4S12272   5.325   5.270  10.528  0.0396  0.3498  0.3696
  117OSM    H4S12273   5.394   5.185  10.523 -0.1912  0.1008  1.3836
  117OSM    C5S12274   5.272   5.308  10.414  0.1803 -0.4216 -0.1220
  117OSM    H5S12275   5.204   5.394  10.415  1.6492  0.8263 -1.5973
  117OSM    C6S12276   5.282   5.232  10.280 -0.5862  0.4329 -0.4833
  117OSM    H6S12277   5.311   5.127  10.301 -3.1160  0.2655  2.9028
  117OSM    H6T12278   5.362   5.268  10.212 -0.0171 -0.1060 -0.1138
  117OSM    C7S12279   5.135   5.234  10.223  0.5337 -0.4062  0.2932
  117OSM    H7S12280   5.106   5.338  10.198 -0.6344 -0.9142 -0.5412
  117OSM    H7T12281   5.060   5.205  10.299  0.5859 -0.9789  0.1316
  117OSM    C8S12282   5.119   5.140  10.095  0.1103 -0.5782 -0.1127
  117OSM    H8S12283   5.009   5.135  10.083  0.1015  1.4371 -1.5288
  117OSM    H8T12284   5.155   5.040  10.126  1.6644 -0.3407 -1.0362
  117OSM    C9S12285   5.197   5.204   9.971  0.0432 -0.0025 -0.6302
  117OSM    H9S12286   5.307   5.203   9.987 -0.1765 -1.2031  1.0246
  117OSM    H9T12287   5.167   5.311   9.976 -0.7790 -0.2759  2.0018
  117OSM   C10S12288   5.155   5.155   9.832  0.5915  0.0422 -0.2036
  117OSM   H10S12289   5.051   5.193   9.828  1.1707  1.6662 -0.7843
  117OSM   H10T12290   5.164   5.045   9.847  3.2025  0.4401  1.8462
  117OSM   C11S12291   5.251   5.186   9.714 -0.0279  0.2204  0.2771
  117OSM   H11S12292   5.212   5.137   9.623  0.9006 -0.8174  0.4230
  117OSM   H11T12293   5.351   5.144   9.738 -0.0738 -0.6420 -0.9627
  117OSM   C12S12294   5.260   5.335   9.690 -0.7634 -0.0513 -0.2073
  117OSM   H12S12295   5.299   5.383   9.782 -1.2908 -2.4842  1.4029
  117OSM   H12T12296   5.151   5.352   9.680 -1.4105 -1.9118  2.4653
  117OSM   C13S12297   5.349   5.378   9.576 -0.3768 -0.1428  0.6937
  117OSM   H13S12298   5.454   5.367   9.610 -0.2768 -2.5934 -0.1655
  117OSM   H13T12299   5.332   5.483   9.546  1.9070 -0.5351 -2.5651
  117OSM   C14S12300   5.307   5.297   9.452  0.2750 -0.2486 -0.0684
  117OSM   H14S12301   5.196   5.298   9.446  0.1664  0.0362  1.4977
  117OSM   H14T12302   5.343   5.192   9.454  0.6537 -0.1136  0.5176
  117OSM   C15S12303   5.371   5.368   9.333  0.1012  0.3276 -0.1000
  117OSM   H15S12304   5.473   5.401   9.360  0.0663 -0.5132  1.1371
  117OSM   H15T12305   5.310   5.460   9.316 -1.7131 -0.8689 -0.3991
  117OSM   C16S12306   5.368   5.295   9.200 -0.4299  0.1975 -0.1920
  117OSM   H16S12307   5.261   5.281   9.174 -1.0160 -0.2126  2.1306
  117OSM   H16T12308   5.410   5.193   9.215 -1.2065 -0.2257 -0.8296
  117OSM   C17S12309   5.425   5.378   9.088 -0.0655 -0.4329 -0.8512
  117OSM   H17S12310   5.533   5.401   9.095  0.0760  0.3031 -4.0270
  117OSM   H17T12311   5.377   5.478   9.087  0.1309 -0.3427 -1.4023
  117OSM   C18S12312   5.414   5.305   8.947  0.2339 -0.2787  0.5664
  117OSM   H18S12313   5.308   5.277   8.930 -0.4027  2.7915 -1.3428
  117OSM   H18T12314   5.476   5.214   8.933 -0.3500 -0.3271 -2.2253
  117OSM   H18U12315   5.452   5.376   8.870  3.0065 -1.4857  0.6986
  117OSM    C1F12316   5.631   5.541  10.632 -0.0837  0.2036 -0.2877
  117OSM     OF12317   5.715   5.479  10.697 -0.9310 -0.7713  0.1885
  117OSM    C2F12318   5.653   5.667  10.566 -0.6249  0.1785  0.4534
  117OSM    H2F12319   5.724   5.733  10.622  0.2605  0.5869 -1.0656
  117OSM    H2G12320   5.566   5.736  10.569 -0.2930  0.5661  1.7623
  117OSM    C3F12321   5.711   5.650  10.426  0.8940  0.1645  0.3436
  117OSM    H3F12322   5.796   5.578  10.429  0.6446 -0.1819 -0.6584
  117OSM    H3G12323   5.745   5.747  10.383  1.7191  0.1882  1.0171
  117OSM    C4F12324   5.607   5.587  10.318  0.0402  0.4828 -0.3333
  117OSM    H4F12325   5.525   5.658  10.292 -0.8379 -0.7743 -1.1219
  117OSM    H4G12326   5.561   5.490  10.346 -2.1555  1.6397  0.2985
  117OSM    C5F12327   5.684   5.566  10.183 -0.2572  0.7674  0.3777
  117OSM    H5F12328   5.745   5.473  10.187 -1.1632  0.0492 -1.6149
  117OSM    H5G12329   5.756   5.648  10.162 -0.3320  0.5210 -0.9048
  117OSM    C6F12330   5.595   5.567  10.054 -0.0932  0.9204 -0.1732
  117OSM    H6F12331   5.534   5.658  10.038 -0.4358  0.5389 -1.0815
  117OSM    H6G12332   5.525   5.486  10.082  0.8433 -0.6326 -2.0719
  117OSM    C7F12333   5.689   5.545   9.931  0.4225  0.2053  0.1299
  117OSM    H7F12334   5.722   5.440   9.946 -0.1036  0.2033  1.4221
  117OSM    H7G12335   5.782   5.605   9.931  0.3535  0.3133  0.3178
  117OSM    C8F12336   5.626   5.558   9.787  0.0319 -0.0512 -0.5433
  117OSM    H8F12337   5.535   5.494   9.788 -1.4708  1.9753 -0.6874
  117OSM    H8G12338   5.703   5.521   9.716 -0.7479 -1.4143 -0.7099
  117OSM    C9F12339   5.584   5.706   9.756  0.7137 -1.1510  0.0834
  117OSM    H9F12340   5.479   5.733   9.776  1.2229 -0.2306  1.6946
  117OSM   C10F12341   5.653   5.792   9.678 -0.7136  0.3868 -0.1483
  117OSM   H10F12342   5.622   5.898   9.676 -1.5534  0.1630  0.5522
  117OSM   C11F12343   5.795   5.761   9.623  0.2789 -0.4497  0.3934
  117OSM   H11F12344   5.849   5.676   9.670 -0.6239 -1.0304  0.3887
  117OSM   H11G12345   5.860   5.849   9.646  0.6429 -0.3433 -0.9541
  117OSM   C12F12346   5.789   5.735   9.468  0.4409  0.6143 -0.4026
  117OSM   H12F12347   5.894   5.715   9.439  0.8204 -0.4225  1.5489
  117OSM   H12G12348   5.740   5.822   9.419  0.9751  1.1746  0.0351
  117OSM   C13F12349   5.707   5.611   9.433 -0.3084  0.1216  0.1521
  117OSM   H13F12350   5.602   5.632   9.461 -0.1282  1.5121 -0.1479
  117OSM   H13G12351   5.753   5.522   9.482  1.1515  1.2399  0.8889
  117OSM   C14F12352   5.706   5.587   9.280 -0.6644  0.3865 -0.0750
  117OSM   H14F12353   5.691   5.691   9.243 -0.8018  0.8968  1.3401
  117OSM   H14G12354   5.618   5.523   9.256  0.2596 -1.7188  1.7982
  117OSM   C15F12355   5.828   5.526   9.208 -0.2902 -0.4664 -0.2058
  117OSM   H15F12356   5.824   5.418   9.234 -1.7827 -0.2934  0.4237
  117OSM   H15G12357   5.919   5.563   9.259  0.7567 -0.1155 -2.2337
  117OSM   C16F12358   5.835   5.550   9.062  0.1034  0.0295 -0.1278
  117OSM   H16F12359   5.773   5.473   9.011 -1.0125  0.4342  0.5819
  117OSM   H16G12360   5.943   5.545   9.037 -0.5183  1.3782 -3.6705
  117OSM   C17F12361   5.780   5.685   9.003  0.1717 -0.0441  0.5052
  117OSM   H17F12362   5.835   5.770   9.047 -0.9609  1.2887 -0.5419
  117OSM   H17G12363   5.671   5.688   9.025  0.0564 -1.4050  0.2259
  117OSM   C18F12364   5.792   5.680   8.854 -0.0046  0.2366 -0.4406
  117OSM   H18F12365   5.754   5.585   8.811 -2.4845  0.6591  0.6687
  117OSM   H18G12366   5.897   5.675   8.817  0.9821  1.0934  2.0325
  117OSM   H18H12367   5.754   5.771   8.804 -0.2959  1.0716  1.2481
  118OSM      N12368   4.156   5.648  11.119  0.0724 -0.5706  0.0585
  118OSM    C1512369   4.002   5.662  11.113  0.3481 -0.0015 -0.0915
  118OSM   H15A12370   3.967   5.564  11.083  2.5573 -0.7008 -0.5637
  118OSM   H15B12371   3.962   5.734  11.043 -3.0062 -0.3183  1.3185
  118OSM   H15C12372   3.955   5.688  11.206 -0.1010  1.2629 -0.6479
  118OSM    C1412373   4.188   5.523  11.195  0.2645  0.2050  0.0668
  118OSM   H14A12374   4.146   5.431  11.156 -0.6762 -0.0059  1.4757
  118OSM   H14B12375   4.154   5.530  11.297  0.7039 -3.6424  0.6090
  118OSM   H14C12376   4.295   5.512  11.196  0.3134  0.5783 -0.3999
  118OSM    C1312377   4.205   5.632  10.977 -0.2134  0.0011 -0.2475
  118OSM   H13A12378   4.310   5.607  10.976 -0.0477  0.4387 -3.5621
  118OSM   H13B12379   4.197   5.731  10.935  0.3517  1.7255  3.3385
  118OSM   H13C12380   4.160   5.550  10.923  1.5815 -0.4585 -1.1348
  118OSM    C1212381   4.219   5.766  11.179 -0.7021 -0.6135 -0.3048
  118OSM   H12A12382   4.171   5.787  11.274 -0.1396 -1.0705  0.0875
  118OSM   H12B12383   4.196   5.859  11.129 -1.5941 -0.2393  0.7606
  118OSM    C1112384   4.371   5.768  11.199 -0.8596  0.0642 -0.3732
  118OSM   H11A12385   4.389   5.675  11.257 -1.8054 -0.1742 -0.4465
  118OSM   H11B12386   4.400   5.853  11.264 -1.9812  0.1591  0.0320
  118OSM      P12387   4.579   5.705  11.069 -0.3714 -0.2183  0.2931
  118OSM    O1312388   4.685   5.799  11.123  0.4541  0.6518  0.5148
  118OSM    O1412389   4.564   5.570  11.130  0.1953  0.1707  0.4616
  118OSM    O1112390   4.588   5.699  10.909  0.4088  0.5155 -0.2383
  118OSM    O1212391   4.438   5.781  11.070  0.2317  0.3810 -0.1548
  118OSM    C1S12392   4.641   5.815  10.838  0.3488 -1.1610  0.0231
  118OSM    H1S12393   4.751   5.824  10.851  0.3514 -1.5998  0.3236
  118OSM    H1T12394   4.604   5.909  10.884  2.7968 -0.0947 -0.0376
  118OSM     NF12395   4.682   5.917  10.612  0.2104  0.4877  0.1281
  118OSM    HNF12396   4.632   6.004  10.607 -0.8907  0.0862  2.6244
  118OSM    C2S12397   4.613   5.810  10.682  0.0864  0.1960 -0.5589
  118OSM    H2S12398   4.645   5.706  10.658 -1.4862 -0.2822 -0.7182
  118OSM    C3S12399   4.457   5.806  10.659  0.0305  0.1285 -0.4465
  118OSM    H3S12400   4.419   5.899  10.706  2.0331  0.4612  0.6120
  118OSM     O312401   4.394   5.690  10.712 -0.3455  0.1060  0.0608
  118OSM    HO312402   4.460   5.666  10.778  0.7664  2.2975 -0.1569
  118OSM    C4S12403   4.432   5.804  10.508  0.8655  0.1462  1.0427
  118OSM    H4S12404   4.450   5.704  10.466  3.4028  1.2992 -0.8808
  118OSM    C5S12405   4.375   5.892  10.423  0.0378 -0.7131  0.0819
  118OSM    H5S12406   4.342   5.987  10.469 -2.1241 -1.7070  0.7155
  118OSM    C6S12407   4.345   5.857  10.280 -0.4558  0.0977 -0.3886
  118OSM    H6S12408   4.240   5.886  10.257 -0.3616 -0.1489 -1.1468
  118OSM    H6T12409   4.363   5.748  10.267  0.9961  0.3333 -0.4850
  118OSM    C7S12410   4.444   5.915  10.178 -0.6133  0.2615  0.4545
  118OSM    H7S12411   4.539   5.868  10.210 -2.8908 -2.8530  3.3329
  118OSM    H7T12412   4.457   6.026  10.171 -0.7745  0.2129 -1.0802
  118OSM    C8S12413   4.412   5.868  10.041  0.5701  0.2388  0.5091
  118OSM    H8S12414   4.318   5.920  10.012 -0.7671 -2.6427 -0.6309
  118OSM    H8T12415   4.397   5.758  10.041  0.7583  0.2098 -0.2121
  118OSM    C9S12416   4.512   5.883   9.927  0.2029  0.0407  0.5468
  118OSM    H9S12417   4.469   5.821   9.845  0.7750 -2.2560  1.8912
  118OSM    H9T12418   4.606   5.832   9.955  1.0395  0.1337 -1.8447
  118OSM   C10S12419   4.543   6.024   9.882 -0.0494 -0.0732  0.5040
  118OSM   H10S12420   4.595   6.079   9.963 -0.2486  0.3445  0.3523
  118OSM   H10T12421   4.448   6.082   9.880 -1.1959 -1.8759 -1.2373
  118OSM   C11S12422   4.614   6.029   9.745 -0.4229  0.0061 -0.2544
  118OSM   H11S12423   4.694   5.952   9.733 -0.6752 -0.0492 -1.8868
  118OSM   H11T12424   4.652   6.132   9.727  1.0878 -0.6434 -1.0356
  118OSM   C12S12425   4.514   6.000   9.629  0.1082  0.5990 -0.9441
  118OSM   H12S12426   4.431   6.073   9.635 -1.1487 -0.8057 -0.4074
  118OSM   H12T12427   4.473   5.896   9.634 -0.8527  1.0292  1.2808
  118OSM   C13S12428   4.568   6.016   9.484 -0.4114  0.1057 -1.1355
  118OSM   H13S12429   4.661   5.957   9.476 -0.7866 -1.9172  4.6236
  118OSM   H13T12430   4.592   6.124   9.469 -0.6313  0.0121 -2.1936
  118OSM   C14S12431   4.458   5.961   9.388  0.1049  0.8675  0.1221
  118OSM   H14S12432   4.366   6.021   9.402 -0.2202  1.3075 -3.1273
  118OSM   H14T12433   4.435   5.856   9.416 -1.3852  1.0947 -0.1642
  118OSM   C15S12434   4.504   5.970   9.247  0.3199 -0.4433  0.0248
  118OSM   H15S12435   4.603   5.922   9.234  0.1509 -0.5876 -0.7902
  118OSM   H15T12436   4.514   6.079   9.229 -1.1827 -0.3365 -0.2937
  118OSM   C16S12437   4.404   5.910   9.138 -0.3750  0.0988 -0.0046
  118OSM   H16S12438   4.298   5.935   9.163 -0.4095 -1.3959  1.5319
  118OSM   H16T12439   4.408   5.799   9.128 -1.7814  0.1430 -1.5020
  118OSM   C17S12440   4.439   5.963   9.002  0.5631 -0.1509  0.2955
  118OSM   H17S12441   4.543   5.937   8.973  1.2446  1.3415  1.3069
  118OSM   H17T12442   4.421   6.073   8.998 -1.4339 -0.4742 -0.9017
  118OSM   C18S12443   4.345   5.900   8.894  0.5900  0.3603 -0.1304
  118OSM   H18S12444   4.241   5.901   8.933  0.1959  0.6527 -1.1546
  118OSM   H18T12445   4.372   5.794   8.876  0.3081 -0.0528  1.7154
  118OSM   H18U12446   4.344   5.954   8.797  0.3672  1.3689  0.4141
  118OSM    C1F12447   4.810   5.908  10.582  0.4925  0.0522  0.4101
  118OSM     OF12448   4.859   5.793  10.569  0.0121 -0.1024 -0.1926
  118OSM    C2F12449   4.898   6.025  10.563 -0.0590  0.0280  1.1265
  118OSM    H2F12450   4.986   6.022  10.629  0.3186 -1.4534  0.6146
  118OSM    H2G12451   4.842   6.118  10.584  2.0144  1.9116 -1.1895
  118OSM    C3F12452   4.950   6.025  10.416 -0.5207  0.1684  0.3023
  118OSM    H3F12453   4.973   5.919  10.395  1.2892  0.6827 -0.5092
  118OSM    H3G12454   5.047   6.077  10.398  0.4634 -2.0990 -1.4892
  118OSM    C4F12455   4.855   6.069  10.302  0.2725 -0.5373  0.2695
  118OSM    H4F12456   4.847   6.180  10.299  2.2407 -0.3424  0.7457
  118OSM    H4G12457   4.750   6.036  10.320  0.3556 -2.3093 -2.0574
  118OSM    C5F12458   4.891   6.021  10.161  0.9553 -0.3124 -0.1527
  118OSM    H5F12459   4.822   5.943  10.122  2.2940 -1.7704  0.2488
  118OSM    H5G12460   4.995   5.981  10.153  0.8974 -0.3485 -0.8174
  118OSM    C6F12461   4.894   6.142  10.063 -0.5009  0.5513  0.6645
  118OSM    H6F12462   4.959   6.214  10.117 -1.3573  0.8115  1.3727
  118OSM    H6G12463   4.792   6.184  10.056 -0.3175  0.6806 -2.9684
  118OSM    C7F12464   4.943   6.108   9.917 -0.2773 -0.4377 -0.1505
  118OSM    H7F12465   4.866   6.034   9.887 -0.0743 -1.7884  2.4436
  118OSM    H7G12466   5.033   6.042   9.918 -0.5584 -0.8362 -0.4080
  118OSM    C8F12467   4.960   6.233   9.825 -0.5733  0.0572  0.6001
  118OSM    H8F12468   5.045   6.302   9.842  0.3865 -1.0778  0.5340
  118OSM    H8G12469   4.871   6.296   9.845  0.3447  1.6646 -0.2222
  118OSM    C9F12470   4.975   6.202   9.675 -0.1390  0.5774 -0.5622
  118OSM    H9F12471   5.058   6.131   9.660 -2.3966 -2.4285  0.0218
  118OSM   C10F12472   4.898   6.245   9.575  0.1487  0.5055 -0.3037
  118OSM   H10F12473   4.924   6.214   9.473 -1.6785 -1.9791 -0.1056
  118OSM   C11F12474   4.777   6.330   9.585  0.5268  0.0990 -0.8862
  118OSM   H11F12475   4.762   6.379   9.684 -0.0552 -2.8457  0.6367
  118OSM   H11G12476   4.683   6.270   9.582  0.6512 -0.2700  0.9884
  118OSM   C12F12477   4.771   6.444   9.484 -1.4120 -0.4312 -0.8130
  118OSM   H12F12478   4.863   6.505   9.495 -1.7556  0.0185 -0.3633
  118OSM   H12G12479   4.695   6.514   9.526 -1.6937 -1.8550  1.1889
  118OSM   C13F12480   4.731   6.408   9.337 -0.6050  0.0771  0.1043
  118OSM   H13F12481   4.636   6.355   9.358 -1.0394  0.1962 -1.4323
  118OSM   H13G12482   4.800   6.326   9.305 -1.4951 -0.9404  0.7295
  118OSM   C14F12483   4.709   6.524   9.245  0.4215  0.8328 -0.6027
  118OSM   H14F12484   4.648   6.596   9.303 -1.0242 -2.7334  2.8135
  118OSM   H14G12485   4.655   6.483   9.157  1.4148 -0.3380 -0.6989
  118OSM   C15F12486   4.847   6.583   9.205  0.5113 -0.5515  0.0641
  118OSM   H15F12487   4.913   6.497   9.181  2.2652  0.9427 -0.7483
  118OSM   H15G12488   4.896   6.621   9.298 -1.1756 -0.2689  0.8676
  118OSM   C16F12489   4.829   6.680   9.096  0.0855 -0.3025  0.4739
  118OSM   H16F12490   4.763   6.765   9.121 -0.9854 -0.0174 -2.7813
  118OSM   H16G12491   4.803   6.626   9.002  1.4161 -1.6524  0.8333
  118OSM   C17F12492   4.966   6.738   9.057  0.1713 -0.3992 -0.2731
  118OSM   H17F12493   5.039   6.658   9.082 -0.4377 -0.6571  0.7351
  118OSM   H17G12494   4.988   6.829   9.117 -0.0745 -0.4193 -0.1533
  118OSM   C18F12495   4.969   6.766   8.906 -0.4423 -0.4093  0.2520
  118OSM   H18F12496   5.065   6.814   8.879 -0.1861 -1.5712 -1.0320
  118OSM   H18G12497   4.888   6.821   8.854  0.6374  0.4285 -0.5708
  118OSM   H18H12498   4.978   6.680   8.836 -0.0743  1.1019 -1.6140
  119OSM      N12499   5.828   5.666  11.034 -0.4568 -0.0679  0.3143
  119OSM    C1512500   5.720   5.765  11.042  0.7670 -0.6674  0.5831
  119OSM   H15A12501   5.762   5.860  11.011  2.9453 -1.6270  0.4215
  119OSM   H15B12502   5.685   5.767  11.144  0.6990 -2.0234  0.5931
  119OSM   H15C12503   5.633   5.748  10.980  1.1652 -2.6332  0.5246
  119OSM    C1412504   5.946   5.716  11.099 -0.4488  0.2513 -0.1733
  119OSM   H14A12505   5.923   5.738  11.202 -2.4731 -0.9997 -0.3044
  119OSM   H14B12506   5.994   5.801  11.051 -0.6226 -0.1241 -1.0305
  119OSM   H14C12507   6.018   5.636  11.102 -0.2262  0.4740  0.6337
  119OSM    C1312508   5.779   5.541  11.097 -0.2761  0.4253 -0.2110
  119OSM   H13A12509   5.850   5.461  11.083  0.3551  0.7030  1.2464
  119OSM   H13B12510   5.682   5.504  11.065 -0.3183  0.1354  0.2421
  119OSM   H13C12511   5.785   5.565  11.202  0.5557  1.4066 -0.4641
  119OSM    C1212512   5.857   5.649  10.888 -0.5761  0.8597 -0.4226
  119OSM   H12A12513   5.893   5.738  10.838  2.1997 -1.0568 -2.0971
  119OSM   H12B12514   5.770   5.632  10.827 -0.6059  0.5702 -0.2982
  119OSM    C1112515   5.967   5.543  10.862  0.9595 -0.7615 -0.3954
  119OSM   H11A12516   5.972   5.536  10.751  0.7027 -1.9146 -0.3475
  119OSM   H11B12517   5.923   5.450  10.904  1.6961  0.0948  2.5025
  119OSM      P12518   6.209   5.470  10.887 -0.1708  0.0510 -0.1116
  119OSM    O1312519   6.336   5.517  10.946 -0.0323 -0.6578  0.1956
  119OSM    O1412520   6.175   5.328  10.912  0.6890 -0.6543 -0.5585
  119OSM    O1112521   6.212   5.497  10.732 -0.0498  0.3631  0.4468
  119OSM    O1212522   6.091   5.567  10.933 -0.0947  0.7369  0.3693
  119OSM    C1S12523   6.324   5.454  10.650 -0.2766 -0.0817  0.4904
  119OSM    H1S12524   6.356   5.354  10.685 -0.2689 -0.4410 -0.5082
  119OSM    H1T12525   6.404   5.530  10.661 -0.1996 -0.0776 -0.0878
  119OSM     NF12526   6.392   5.368  10.427  0.1535 -0.5689  0.3951
  119OSM    HNF12527   6.435   5.417  10.351  0.5847 -0.9035  0.4211
  119OSM    C2S12528   6.285   5.440  10.498 -0.5977 -0.2723 -0.2427
  119OSM    H2S12529   6.191   5.382  10.505  0.2528 -1.7633 -0.6415
  119OSM    C3S12530   6.242   5.575  10.432 -0.8864  0.0675  0.0118
  119OSM    H3S12531   6.337   5.633  10.430 -0.4040 -0.7036 -0.0383
  119OSM     O312532   6.158   5.649  10.519  0.0173 -0.5875 -0.5144
  119OSM    HO312533   6.162   5.604  10.604  2.2277  0.0847 -0.1957
  119OSM    C4S12534   6.195   5.556  10.292  0.2582 -0.7917  0.2189
  119OSM    H4S12535   6.280   5.582  10.227  0.2061 -1.0176  0.0575
  119OSM    C5S12536   6.072   5.540  10.242 -0.2574  0.5144  0.6708
  119OSM    H5S12537   5.988   5.522  10.310  0.4964 -1.8659  1.0544
  119OSM    C6S12538   6.035   5.535  10.093 -0.6185 -0.1592 -0.4213
  119OSM    H6S12539   5.976   5.625  10.064 -1.5181 -0.5054  0.2801
  119OSM    H6T12540   5.969   5.448  10.075 -0.3521 -0.2194 -1.1360
  119OSM    C7S12541   6.155   5.514   9.993 -0.0347 -0.1165  0.9045
  119OSM    H7S12542   6.197   5.412  10.004 -1.8689 -0.7247  3.2718
  119OSM    H7T12543   6.233   5.587  10.026  0.1160  0.0014  0.2976
  119OSM    C8S12544   6.135   5.535   9.844  0.2443 -0.6583  0.2669
  119OSM    H8S12545   6.108   5.642   9.830 -0.1304 -0.8971 -0.9528
  119OSM    H8T12546   6.047   5.473   9.817  0.4437 -0.9700  0.3383
  119OSM    C9S12547   6.254   5.510   9.758 -0.1731  0.8006  0.3236
  119OSM    H9S12548   6.317   5.425   9.791 -2.5128 -1.4094 -0.5979
  119OSM    H9T12549   6.314   5.601   9.780 -2.2612  2.0068  1.2872
  119OSM   C10S12550   6.224   5.486   9.604  0.3346  0.0281 -0.2778
  119OSM   H10S12551   6.285   5.549   9.536 -0.0513 -0.3025 -0.9407
  119OSM   H10T12552   6.122   5.528   9.590  0.7243  1.3209  0.5666
  119OSM   C11S12553   6.229   5.328   9.573  0.0515 -0.4136  0.2735
  119OSM   H11S12554   6.126   5.288   9.587  0.3392 -0.8931  1.0871
  119OSM   H11T12555   6.291   5.271   9.646 -0.7373 -0.2327  1.1060
  119OSM   C12S12556   6.264   5.305   9.424  0.1683  0.4638 -0.1376
  119OSM   H12S12557   6.271   5.195   9.407 -0.6348  0.0877  1.7414
  119OSM   H12T12558   6.365   5.350   9.418 -0.3273  1.3409 -3.5577
  119OSM   C13S12559   6.171   5.357   9.316  0.2810  0.5703 -0.1754
  119OSM   H13S12560   6.169   5.468   9.302 -0.3703  0.2399 -3.5564
  119OSM   H13T12561   6.066   5.328   9.339 -0.5312  2.3804 -1.3908
  119OSM   C14S12562   6.208   5.287   9.185 -0.0762  0.3983 -0.1788
  119OSM   H14S12563   6.206   5.177   9.199  0.8325  0.2885 -0.8460
  119OSM   H14T12564   6.309   5.321   9.154  0.3049 -1.1539 -0.7286
  119OSM   C15S12565   6.109   5.325   9.072 -0.1709  0.1527  0.4492
  119OSM   H15S12566   6.120   5.435   9.079  1.6932  0.0768 -0.7156
  119OSM   H15T12567   6.007   5.311   9.113 -0.6943  0.8291 -0.5745
  119OSM   C16S12568   6.135   5.271   8.928 -0.0104 -0.1526  0.2696
  119OSM   H16S12569   6.138   5.160   8.928 -2.1375 -0.2456  0.8530
  119OSM   H16T12570   6.235   5.298   8.887 -1.1717  0.4310 -2.3491
  119OSM   C17S12571   6.043   5.330   8.812 -0.5339 -0.5792  0.0080
  119OSM   H17S12572   6.047   5.440   8.793 -0.0165 -0.9335 -2.2853
  119OSM   H17T12573   5.937   5.305   8.834 -0.5560 -0.4784  0.0177
  119OSM   C18S12574   6.083   5.263   8.677 -1.0817  0.4072 -0.5282
  119OSM   H18S12575   6.009   5.274   8.595  0.3223  2.1277 -1.6422
  119OSM   H18T12576   6.102   5.156   8.699 -0.8155  0.6720  0.5644
  119OSM   H18U12577   6.186   5.300   8.657 -0.4529 -0.4223  1.0531
  119OSM    C1F12578   6.421   5.234  10.437  0.2680 -0.2833 -0.0106
  119OSM     OF12579   6.380   5.178  10.542 -0.7309 -0.8687  0.8075
  119OSM    C2F12580   6.501   5.165  10.329 -0.4038  0.2524 -0.4537
  119OSM    H2F12581   6.604   5.189  10.361 -0.0527  0.1576 -1.4638
  119OSM    H2G12582   6.485   5.213  10.230  1.9401  0.9281 -0.5579
  119OSM    C3F12583   6.467   5.017  10.335 -0.0295 -0.4298  0.7346
  119OSM    H3F12584   6.365   5.001  10.292 -0.1848  1.0930  0.4651
  119OSM    H3G12585   6.463   4.972  10.436  0.2583  1.0590  1.4262
  119OSM    C4F12586   6.558   4.938  10.242  0.9240 -0.2086  0.3104
  119OSM    H4F12587   6.542   4.829  10.261 -0.7445 -0.0243  0.1073
  119OSM    H4G12588   6.668   4.952  10.253  1.1897 -0.7592 -1.3292
  119OSM    C5F12589   6.522   4.963  10.092 -0.2382  0.7546  0.3850
  119OSM    H5F12590   6.549   5.067  10.065 -1.1010  1.0913  0.7648
  119OSM    H5G12591   6.413   4.947  10.076  0.2309 -2.3065 -0.2972
  119OSM    C6F12592   6.587   4.859   9.996  0.0970 -0.1167 -0.1631
  119OSM    H6F12593   6.583   4.751  10.023  0.3480 -0.3091 -0.8917
  119OSM    H6G12594   6.696   4.881  10.001  0.3495 -1.2069 -0.5223
  119OSM    C7F12595   6.538   4.865   9.848  0.0281  0.5719 -0.1934
  119OSM    H7F12596   6.433   4.831   9.853 -0.7728  2.7881 -0.8570
  119OSM    H7G12597   6.587   4.789   9.783  1.0442  1.3868 -0.4139
  119OSM    C8F12598   6.564   5.005   9.789  0.1249  0.2891 -0.3299
  119OSM    H8F12599   6.671   5.024   9.811  0.4591 -0.5687 -1.1748
  119OSM    H8G12600   6.511   5.084   9.846  1.4941  1.5740 -0.7723
  119OSM    C9F12601   6.532   5.013   9.641  0.1053 -0.7303 -0.0153
  119OSM    H9F12602   6.432   4.968   9.627 -0.4154  0.5550 -0.6647
  119OSM   C10F12603   6.610   5.049   9.539 -0.6164  0.1424 -0.0352
  119OSM   H10F12604   6.585   5.035   9.433  1.9609 -3.5165 -0.3410
  119OSM   C11F12605   6.744   5.107   9.563 -0.8456 -0.1407  0.0983
  119OSM   H11F12606   6.814   5.042   9.619  0.1370  0.3004 -0.5700
  119OSM   H11G12607   6.724   5.205   9.611 -2.4013 -0.3478 -0.0956
  119OSM   C12F12608   6.802   5.137   9.419 -1.1049 -0.2370 -0.6855
  119OSM   H12F12609   6.795   5.052   9.349  1.2958  0.3199 -1.7099
  119OSM   H12G12610   6.912   5.148   9.431 -1.2906  0.6279  0.4469
  119OSM   C13F12611   6.758   5.268   9.361 -0.1550  0.5171  0.3177
  119OSM   H13F12612   6.786   5.336   9.444  0.9536 -0.1194  0.4869
  119OSM   H13G12613   6.647   5.269   9.350 -0.2313  0.0471  1.0412
  119OSM   C14F12614   6.810   5.299   9.226  0.8894 -0.2229  0.3555
  119OSM   H14F12615   6.776   5.402   9.203  1.4874 -0.1147 -0.0482
  119OSM   H14G12616   6.759   5.235   9.151  0.3523  0.8808 -0.2545
  119OSM   C15F12617   6.963   5.293   9.216  0.0233 -0.2764 -0.1154
  119OSM   H15F12618   6.981   5.184   9.221 -1.2715 -0.4741  0.6849
  119OSM   H15G12619   7.018   5.345   9.297  2.2053 -0.7927 -1.1696
  119OSM   C16F12620   7.027   5.366   9.094  0.0628 -0.5950 -0.8162
  119OSM   H16F12621   6.965   5.459   9.084  1.0073  0.0804 -0.4756
  119OSM   H16G12622   7.009   5.304   9.003  1.7121 -0.0263 -1.5669
  119OSM   C17F12623   7.178   5.392   9.093 -0.8656  0.3116  0.3854
  119OSM   H17F12624   7.233   5.297   9.109 -0.3998  0.5481  0.1944
  119OSM   H17G12625   7.206   5.462   9.175  1.1001 -0.0891  0.1204
  119OSM   C18F12626   7.242   5.452   8.960 -0.1295  0.7303  0.0363
  119OSM   H18F12627   7.218   5.395   8.868  0.1876  2.3445 -1.0842
  119OSM   H18G12628   7.353   5.450   8.970  0.0717  2.1347 -1.5438
  119OSM   H18H12629   7.202   5.554   8.940 -1.6864 -0.5077 -4.0627
  120OSM      N12630   4.834   1.264  10.822  0.2204 -0.9567 -0.2465
  120OSM    C1512631   4.781   1.135  10.878  0.5385  1.2306 -0.4194
  120OSM   H15A12632   4.679   1.117  10.848  0.0496  2.6951  0.2176
  120OSM   H15B12633   4.784   1.138  10.986 -2.2244  0.4369 -0.2345
  120OSM   H15C12634   4.846   1.055  10.845 -1.7590 -0.4782 -1.0538
  120OSM    C1412635   4.754   1.375  10.886  0.4866  0.6517  0.5653
  120OSM   H14A12636   4.744   1.364  10.993 -1.4448 -0.8721  0.2802
  120OSM   H14B12637   4.656   1.379  10.843  1.3664 -1.6976 -1.8894
  120OSM   H14C12638   4.791   1.475  10.865  1.8854  0.1501  0.5262
  120OSM    C1312639   4.977   1.298  10.868 -0.0397  0.0600  0.1345
  120OSM   H13A12640   5.035   1.216  10.827 -0.1398  0.0462  0.0222
  120OSM   H13B12641   4.970   1.297  10.976 -4.1544 -0.4998  0.0442
  120OSM   H13C12642   5.016   1.391  10.831  0.6094 -0.5592 -0.8009
  120OSM    C1212643   4.831   1.260  10.669 -0.0440  0.1337 -0.1972
  120OSM   H12A12644   4.726   1.261  10.642 -0.9817 -0.7970  2.9788
  120OSM   H12B12645   4.873   1.168  10.631  0.8565  0.9389 -1.2419
  120OSM    C1112646   4.911   1.365  10.594 -0.5987 -0.2544  0.5187
  120OSM   H11A12647   4.894   1.360  10.485  0.6417 -0.1728  0.3029
  120OSM   H11B12648   5.021   1.352  10.600 -0.2903  1.6449 -0.4209
  120OSM      P12649   4.780   1.601  10.599 -0.1429 -0.0110  0.2497
  120OSM    O1312650   4.707   1.666  10.711 -0.0799  0.0593  0.2440
  120OSM    O1412651   4.844   1.690  10.504 -0.0805 -0.3800  0.8716
  120OSM    O1112652   4.689   1.510  10.517  0.2050 -0.9093 -0.1411
  120OSM    O1212653   4.889   1.497  10.653 -0.4917 -0.1090 -0.4846
  120OSM    C1S12654   4.566   1.551  10.471  0.2407  0.9538  0.4250
  120OSM    H1S12655   4.519   1.642  10.514 -0.2305  1.8596 -1.8370
  120OSM    H1T12656   4.492   1.471  10.496  1.7088 -0.5536  0.1463
  120OSM     NF12657   4.456   1.645  10.275  0.0888  0.1687 -0.8711
  120OSM    HNF12658   4.386   1.582  10.242  1.0800 -0.0864 -2.5835
  120OSM    C2S12659   4.569   1.569  10.320 -0.3749  0.3786  0.0444
  120OSM    H2S12660   4.660   1.630  10.300  0.8353 -1.3336  0.0588
  120OSM    C3S12661   4.589   1.437  10.245 -0.3819  0.7468  0.3040
  120OSM    H3S12662   4.508   1.370  10.282 -1.6420  1.8241 -0.4452
  120OSM     O312663   4.714   1.384  10.282  0.1300  0.2639 -0.1943
  120OSM    HO312664   4.739   1.435  10.360 -2.4486  2.8136 -0.8681
  120OSM    C4S12665   4.581   1.451  10.099 -1.2081 -0.0947 -0.2206
  120OSM    H4S12666   4.665   1.506  10.055 -1.6235  0.0833 -0.8101
  120OSM    C5S12667   4.482   1.400  10.022  0.6581 -0.0233  0.0641
  120OSM    H5S12668   4.407   1.337  10.071  0.8547 -1.9768 -1.9765
  120OSM    C6S12669   4.462   1.404   9.866 -0.2816  0.0233  0.3031
  120OSM    H6S12670   4.423   1.502   9.833 -0.6601 -0.0798  0.4341
  120OSM    H6T12671   4.391   1.323   9.838  1.9269 -2.3797  1.2442
  120OSM    C7S12672   4.592   1.381   9.786 -0.2132 -0.5719  0.3751
  120OSM    H7S12673   4.660   1.305   9.830 -0.6611 -0.8903  0.5211
  120OSM    H7T12674   4.646   1.478   9.783 -0.8916 -0.1898  0.2230
  120OSM    C8S12675   4.562   1.346   9.640 -0.2030  0.1136  0.4923
  120OSM    H8S12676   4.495   1.257   9.640  1.9308 -1.5946 -0.5116
  120OSM    H8T12677   4.653   1.327   9.578 -0.0565  1.5402  0.2413
  120OSM    C9S12678   4.483   1.463   9.560 -0.1731  0.0469  0.6067
  120OSM    H9S12679   4.535   1.558   9.586 -1.5992  0.4569  2.0873
  120OSM    H9T12680   4.382   1.472   9.603 -0.6654  1.1482 -0.7003
  120OSM   C10S12681   4.478   1.439   9.405  0.1567  0.1201 -0.1321
  120OSM   H10S12682   4.413   1.523   9.371  0.6060  0.4952 -0.0690
  120OSM   H10T12683   4.423   1.346   9.381  3.7246 -1.7258 -1.8716
  120OSM   C11S12684   4.610   1.441   9.338 -0.1136 -0.5170 -0.0260
  120OSM   H11S12685   4.690   1.384   9.390  1.5259  1.8452  0.2151
  120OSM   H11T12686   4.648   1.545   9.340  0.7161 -0.7279 -2.2939
  120OSM   C12S12687   4.610   1.366   9.202 -0.9697 -0.4185  0.4447
  120OSM   H12S12688   4.551   1.273   9.221  0.1204 -1.1882  0.1759
  120OSM   H12T12689   4.709   1.331   9.167 -0.9448  1.0966 -1.1028
  120OSM   C13S12690   4.543   1.438   9.073 -0.2699  0.0031 -0.3010
  120OSM   H13S12691   4.595   1.531   9.043 -0.4301  0.5789  1.1589
  120OSM   H13T12692   4.441   1.455   9.113 -0.8819  0.5109 -2.0057
  120OSM   C14S12693   4.521   1.336   8.965  0.5084  0.3167  0.1244
  120OSM   H14S12694   4.477   1.242   9.004  1.6845 -0.0809  0.5544
  120OSM   H14T12695   4.625   1.307   8.937  0.5292 -1.0850  1.5462
  120OSM   C15S12696   4.440   1.396   8.847 -0.4194  0.3785  0.3903
  120OSM   H15S12697   4.348   1.443   8.888 -2.0647 -0.4631 -2.1390
  120OSM   H15T12698   4.417   1.302   8.794 -2.2534  0.7800  0.4283
  120OSM   C16S12699   4.516   1.490   8.758 -0.0779  0.3773 -0.8502
  120OSM   H16S12700   4.608   1.448   8.713  2.1637  2.1286  1.7190
  120OSM   H16T12701   4.561   1.570   8.821  0.5143 -0.8343  0.3226
  120OSM   C17S12702   4.424   1.563   8.661  0.3737 -0.0685  0.0590
  120OSM   H17S12703   4.322   1.577   8.702  0.5514 -1.8772  1.2716
  120OSM   H17T12704   4.417   1.491   8.576  1.9505  0.8908 -0.9294
  120OSM   C18S12705   4.491   1.687   8.603  0.5258 -0.0134  0.5654
  120OSM   H18S12706   4.557   1.660   8.518  0.5362  0.5083  0.4052
  120OSM   H18T12707   4.561   1.743   8.668  0.4792  1.2369 -0.4267
  120OSM   H18U12708   4.417   1.760   8.564  0.1764 -0.2208  0.8323
  120OSM    C1F12709   4.432   1.771  10.300 -0.8388 -0.1661 -0.6592
  120OSM     OF12710   4.519   1.839  10.358  0.4476  0.0601 -0.2175
  120OSM    C2F12711   4.298   1.824  10.253 -0.1598  0.7720 -0.0520
  120OSM    H2F12712   4.307   1.933  10.271  0.5907  0.5211  1.2583
  120OSM    H2G12713   4.222   1.776  10.318 -0.6151  1.1261 -0.3256
  120OSM    C3F12714   4.264   1.798  10.104 -0.7385  0.3668  0.0842
  120OSM    H3F12715   4.160   1.833  10.092 -0.4461  0.8616 -1.1401
  120OSM    H3G12716   4.264   1.690  10.081  2.2035  0.3942 -0.4513
  120OSM    C4F12717   4.362   1.863  10.002  0.3547  0.1766 -0.3479
  120OSM    H4F12718   4.458   1.810  10.015  0.7157  0.8958 -0.0607
  120OSM    H4G12719   4.378   1.966  10.040 -1.3372 -0.9720  4.0481
  120OSM    C5F12720   4.311   1.846   9.859 -0.6489 -0.3619  0.5147
  120OSM    H5F12721   4.216   1.901   9.842 -1.2709 -1.4166  0.4855
  120OSM    H5G12722   4.284   1.740   9.840 -0.8613 -0.0947 -0.8252
  120OSM    C6F12723   4.414   1.876   9.746  0.2223  0.2823  0.0073
  120OSM    H6F12724   4.509   1.826   9.776  0.4381  1.1170  0.7449
  120OSM    H6G12725   4.426   1.985   9.731 -2.3516  0.5138 -0.8983
  120OSM    C7F12726   4.372   1.813   9.614 -0.7456 -0.4641 -0.6124
  120OSM    H7F12727   4.270   1.850   9.592 -0.1585  1.1765 -0.7536
  120OSM    H7G12728   4.346   1.706   9.629  1.6748 -0.6884  3.3705
  120OSM    C8F12729   4.470   1.831   9.498  0.7066 -0.1807  0.3867
  120OSM    H8F12730   4.418   1.783   9.412 -0.8478  0.2293  1.0546
  120OSM    H8G12731   4.561   1.775   9.527  0.3737 -1.1744 -0.4065
  120OSM    C9F12732   4.516   1.965   9.447  0.0605 -0.3894  0.4985
  120OSM    H9F12733   4.491   2.054   9.507 -0.0599  0.5565 -0.8903
  120OSM   C10F12734   4.600   1.982   9.340  0.3173  0.6236 -1.2583
  120OSM   H10F12735   4.622   2.087   9.315 -0.5792  1.4225  1.0311
  120OSM   C11F12736   4.656   1.861   9.253  0.6512 -0.7298  0.1701
  120OSM   H11F12737   4.624   1.767   9.303  2.1485 -0.3790  1.9045
  120OSM   H11G12738   4.767   1.856   9.253  0.6821 -0.5415 -1.4113
  120OSM   C12F12739   4.585   1.866   9.117  0.4963 -0.2963  0.2397
  120OSM   H12F12740   4.475   1.860   9.135  0.5628 -0.7688  0.5132
  120OSM   H12G12741   4.616   1.794   9.039  2.3671 -0.5649  1.1763
  120OSM   C13F12742   4.609   1.999   9.056  0.9190  0.7500 -0.8353
  120OSM   H13F12743   4.718   2.019   9.068  0.6084  3.7575 -2.0265
  120OSM   H13G12744   4.553   2.080   9.109 -1.3895 -1.4716  0.3795
  120OSM   C14F12745   4.578   2.009   8.902  0.0555  0.1364 -0.7196
  120OSM   H14F12746   4.638   1.927   8.858  1.9785  1.2741 -0.3390
  120OSM   H14G12747   4.618   2.108   8.870 -1.4287  1.2767  0.7503
  120OSM   C15F12748   4.430   1.995   8.848 -0.0610 -0.2790 -0.2692
  120OSM   H15F12749   4.371   2.070   8.905  1.2185  0.8136 -0.3335
  120OSM   H15G12750   4.400   1.892   8.878  0.1517 -0.2559  0.0366
  120OSM   C16F12751   4.415   2.032   8.698 -0.1334  0.3761 -0.6529
  120OSM   H16F12752   4.314   2.002   8.663 -0.2957 -0.9100  0.8218
  120OSM   H16G12753   4.486   1.964   8.645  2.7448  0.8486  2.2686
  120OSM   C17F12754   4.440   2.173   8.650  0.5908 -0.0782  0.9499
  120OSM   H17F12755   4.394   2.195   8.550  2.0651 -2.4978 -0.3340
  120OSM   H17G12756   4.548   2.188   8.632  0.3315  0.0814 -0.6810
  120OSM   C18F12757   4.397   2.282   8.746  0.2689 -0.4630 -0.5596
  120OSM   H18F12758   4.287   2.271   8.763  0.4333 -1.1896  0.0964
  120OSM   H18G12759   4.419   2.387   8.717 -0.4531  0.6292  2.4532
  120OSM   H18H12760   4.438   2.269   8.848 -2.1132  1.4232  0.7459
  121OSM      N12761   5.457   4.935  10.986 -0.1909  0.2872 -0.5152
  121OSM    C1512762   5.523   5.020  10.880  0.2438 -0.0347 -0.1714
  121OSM   H15A12763   5.471   5.032  10.786  1.6169 -0.4747 -1.0183
  121OSM   H15B12764   5.622   4.985  10.853  0.7234  0.7854  0.4858
  121OSM   H15C12765   5.533   5.123  10.910  0.4698  0.0954 -0.6924
  121OSM    C1412766   5.542   4.949  11.105 -0.0305 -0.1438 -0.3573
  121OSM   H14A12767   5.645   4.929  11.082 -0.0839  0.0789 -0.7955
  121OSM   H14B12768   5.516   4.877  11.181 -1.0370 -1.1326 -1.6024
  121OSM   H14C12769   5.541   5.052  11.138 -2.2108 -0.8091  1.8944
  121OSM    C1312770   5.318   4.995  11.008  0.2108  0.0970  0.2467
  121OSM   H13A12771   5.324   5.103  11.015  1.5781  0.1857 -1.6429
  121OSM   H13B12772   5.277   4.948  11.097  0.7627 -0.7519  0.0705
  121OSM   H13C12773   5.243   4.979  10.933 -1.9430 -0.9752  2.4765
  121OSM    C1212774   5.447   4.784  10.955 -0.2167 -0.3252 -0.4057
  121OSM   H12A12775   5.541   4.741  10.925 -0.3139 -2.6580  2.2443
  121OSM   H12B12776   5.375   4.758  10.878  1.8384 -2.4242 -1.7449
  121OSM    C1112777   5.397   4.693  11.071 -0.3015 -0.2242 -0.8353
  121OSM   H11A12778   5.462   4.702  11.161 -1.2231 -1.7975  0.0458
  121OSM   H11B12779   5.420   4.593  11.027  2.3197  0.1058 -0.3807
  121OSM      P12780   5.146   4.663  10.993 -0.0189  0.3312  0.5176
  121OSM    O1312781   5.147   4.518  10.996 -0.5914  0.2267  0.0365
  121OSM    O1412782   5.017   4.726  11.020  0.5310 -0.7403  0.4200
  121OSM    O1112783   5.195   4.708  10.850  0.6699 -0.2705  0.2784
  121OSM    O1212784   5.255   4.711  11.095 -0.3568  0.2250  0.5203
  121OSM    C1S12785   5.252   4.605  10.762  0.5047  0.1107  0.1208
  121OSM    H1S12786   5.192   4.511  10.758  0.7922 -0.1931  2.0772
  121OSM    H1T12787   5.354   4.579  10.798  0.9734  0.5308 -0.8740
  121OSM     NF12788   5.375   4.527  10.564  0.5502 -0.1413  0.3023
  121OSM    HNF12789   5.468   4.551  10.537  0.6352 -0.5288  0.2440
  121OSM    C2S12790   5.285   4.633  10.613  0.1051  0.5504  0.5335
  121OSM    H2S12791   5.193   4.630  10.550  0.4403 -2.8173  0.0292
  121OSM    C3S12792   5.359   4.771  10.603  0.8524 -0.0896  0.0975
  121OSM    H3S12793   5.437   4.760  10.682  0.8840  3.2716  0.6612
  121OSM     O312794   5.275   4.870  10.653  0.0435 -0.3898  0.2584
  121OSM    HO312795   5.213   4.817  10.704 -1.3303 -0.1006 -1.0623
  121OSM    C4S12796   5.408   4.827  10.476  0.3958  0.1924 -0.0763
  121OSM    H4S12797   5.326   4.855  10.409  0.4497 -0.7009 -0.5355
  121OSM    C5S12798   5.533   4.832  10.423 -0.6608  0.0152  0.5913
  121OSM    H5S12799   5.624   4.801  10.477  1.1831  2.0138 -1.1601
  121OSM    C6S12800   5.574   4.878  10.284  0.1467  0.3307 -0.1899
  121OSM    H6S12801   5.667   4.823  10.258 -1.4862 -2.9954  0.4689
  121OSM    H6T12802   5.596   4.986  10.300  2.7662 -0.0042 -0.9752
  121OSM    C7S12803   5.459   4.852  10.182 -0.3036  0.1694  0.3913
  121OSM    H7S12804   5.373   4.917  10.209  0.3984  0.5217  1.9006
  121OSM    H7T12805   5.421   4.750  10.202 -0.5789 -0.0019 -0.8976
  121OSM    C8S12806   5.504   4.886  10.038 -0.5052  0.2472  0.1296
  121OSM    H8S12807   5.594   4.835   9.996 -2.4660 -2.3855 -1.2016
  121OSM    H8T12808   5.526   4.995  10.038  0.5992  0.0668  1.5743
  121OSM    C9S12809   5.403   4.843   9.934  0.2198  0.2347  0.4006
  121OSM    H9S12810   5.315   4.906   9.955 -0.4574 -1.0679  1.6310
  121OSM    H9T12811   5.366   4.738   9.944 -0.3203  0.2830 -0.8373
  121OSM   C10S12812   5.459   4.854   9.787  0.5483  0.3229  0.1962
  121OSM   H10S12813   5.538   4.777   9.773 -1.2380 -2.0519  2.1807
  121OSM   H10T12814   5.502   4.957   9.786  0.8470  0.2187  1.1439
  121OSM   C11S12815   5.353   4.824   9.681  1.1283  0.8323 -0.1853
  121OSM   H11S12816   5.266   4.892   9.665 -0.0420 -0.3283  1.0072
  121OSM   H11T12817   5.312   4.728   9.720 -1.0527  1.9525  0.4664
  121OSM   C12S12818   5.398   4.791   9.539 -0.1056  0.3342 -0.1536
  121OSM   H12S12819   5.426   4.684   9.534  1.3987  0.4580  2.9249
  121OSM   H12T12820   5.492   4.850   9.530  0.7782 -1.3628 -3.2337
  121OSM   C13S12821   5.301   4.832   9.429 -0.3506  0.5011 -1.1662
  121OSM   H13S12822   5.289   4.942   9.432  1.5565  0.7639  2.5097
  121OSM   H13T12823   5.199   4.793   9.453 -0.5257  2.4660  1.8496
  121OSM   C14S12824   5.363   4.796   9.291  0.2897  1.0507  0.0873
  121OSM   H14S12825   5.471   4.820   9.287  0.6385  0.0701  2.1456
  121OSM   H14T12826   5.324   4.871   9.219  0.7365  0.5914 -0.6458
  121OSM   C15S12827   5.349   4.648   9.240 -0.0862  0.6998 -0.0843
  121OSM   H15S12828   5.241   4.624   9.236  0.5015 -2.1049 -0.7076
  121OSM   H15T12829   5.384   4.576   9.317 -0.9617  0.0121 -0.3106
  121OSM   C16S12830   5.396   4.630   9.095 -0.6098  0.3950  0.3508
  121OSM   H16S12831   5.507   4.635   9.101 -0.7157  1.6000  1.9527
  121OSM   H16T12832   5.337   4.708   9.042 -2.9523 -0.7353  1.1730
  121OSM   C17S12833   5.354   4.487   9.034 -0.3117 -0.2227 -0.1762
  121OSM   H17S12834   5.371   4.497   8.925  0.6783  1.4551  0.1074
  121OSM   H17T12835   5.246   4.472   9.059 -0.3404  1.7454  1.1362
  121OSM   C18S12836   5.443   4.376   9.091 -0.2827  0.3800  0.5202
  121OSM   H18S12837   5.422   4.273   9.056 -0.4129  0.1469  1.2720
  121OSM   H18T12838   5.433   4.374   9.201 -1.8757  1.4005  0.4308
  121OSM   H18U12839   5.547   4.393   9.055 -0.5879 -0.6376 -0.9369
  121OSM    C1F12840   5.343   4.403  10.530 -0.0547  0.2478 -0.1249
  121OSM     OF12841   5.225   4.370  10.528  0.0052  0.1107 -0.2320
  121OSM    C2F12842   5.455   4.308  10.495  0.0160  0.3703 -0.1123
  121OSM    H2F12843   5.430   4.206  10.531  1.0681  0.3577  0.6309
  121OSM    H2G12844   5.548   4.343  10.546  0.9044 -1.5912 -0.2797
  121OSM    C3F12845   5.490   4.297  10.340 -0.3857 -0.0890  0.5626
  121OSM    H3F12846   5.398   4.280  10.281 -1.1520  1.2550  1.3158
  121OSM    H3G12847   5.553   4.206  10.328  1.8354  1.2591  1.3646
  121OSM    C4F12848   5.548   4.420  10.268 -0.2049 -0.0196  0.3521
  121OSM    H4F12849   5.618   4.462  10.344 -2.6873  0.8920  2.3080
  121OSM    H4G12850   5.470   4.492  10.237  1.9038  2.0160 -0.5557
  121OSM    C5F12851   5.620   4.369  10.136  0.8137  0.2976 -0.2205
  121OSM    H5F12852   5.546   4.323  10.068  0.5146  0.7525 -0.2104
  121OSM    H5G12853   5.687   4.290  10.177  0.5350  0.5097  0.6655
  121OSM    C6F12854   5.706   4.472  10.064  0.0040 -0.0671  0.0269
  121OSM    H6F12855   5.776   4.521  10.136 -0.2913  0.6696 -0.1722
  121OSM    H6G12856   5.648   4.557  10.022  1.8425  1.2886  0.0424
  121OSM    C7F12857   5.791   4.422   9.946  0.1172  0.1357  0.4120
  121OSM    H7F12858   5.858   4.344   9.988  0.6456  2.4211  4.2446
  121OSM    H7G12859   5.851   4.506   9.905  0.2411 -0.1941 -0.1012
  121OSM    C8F12860   5.705   4.354   9.835  0.1469  0.1515 -0.2381
  121OSM    H8F12861   5.681   4.256   9.882 -1.8386  0.2884 -0.8628
  121OSM    H8G12862   5.764   4.328   9.745  1.8968 -1.2017  1.2126
  121OSM    C9F12863   5.576   4.413   9.799  0.4286 -0.0303  0.0495
  121OSM    H9F12864   5.505   4.423   9.882 -0.5091 -1.6427 -0.5020
  121OSM   C10F12865   5.523   4.445   9.674 -0.3952  0.1712 -0.3749
  121OSM   H10F12866   5.417   4.476   9.668 -0.3907  0.2001 -0.3084
  121OSM   C11F12867   5.577   4.427   9.533 -0.7401 -0.9596 -0.0054
  121OSM   H11F12868   5.487   4.432   9.467  1.2406  0.3236 -2.8087
  121OSM   H11G12869   5.626   4.328   9.538  3.0097  0.8097  3.2553
  121OSM   C12F12870   5.680   4.524   9.476  0.0020  0.3138  0.3180
  121OSM   H12F12871   5.768   4.516   9.542  0.3366  1.8618  0.1006
  121OSM   H12G12872   5.643   4.629   9.483 -1.1896 -0.1295  0.9565
  121OSM   C13F12873   5.716   4.474   9.333 -0.3368 -0.0215  0.3505
  121OSM   H13F12874   5.623   4.488   9.274  0.2587 -0.4813 -0.7238
  121OSM   H13G12875   5.735   4.365   9.341 -4.0267 -0.7927  0.4575
  121OSM   C14F12876   5.823   4.556   9.260  0.0201 -0.7910 -0.7698
  121OSM   H14F12877   5.907   4.544   9.332 -1.7353  0.3854  1.5846
  121OSM   H14G12878   5.789   4.661   9.264  0.0838 -0.7326 -1.5535
  121OSM   C15F12879   5.850   4.506   9.119  0.0443  0.5765 -0.5758
  121OSM   H15F12880   5.758   4.450   9.090 -1.1364  0.2628  3.2004
  121OSM   H15G12881   5.933   4.432   9.122 -1.1408 -0.7935  0.7717
  121OSM   C16F12882   5.881   4.613   9.018  0.2094 -0.1017  0.4792
  121OSM   H16F12883   5.925   4.706   9.059  1.0780  1.5009 -3.6705
  121OSM   H16G12884   5.797   4.640   8.950  2.1351 -0.1183 -2.0448
  121OSM   C17F12885   5.987   4.558   8.919  0.8561 -0.2489  0.5094
  121OSM   H17F12886   5.955   4.458   8.883  0.3631 -1.2762  3.5155
  121OSM   H17G12887   6.072   4.532   8.986 -0.0095 -1.1942  1.2695
  121OSM   C18F12888   6.038   4.657   8.812 -0.3793  0.3193  0.2160
  121OSM   H18F12889   5.967   4.685   8.731  1.6816  1.0901 -1.4007
  121OSM   H18G12890   6.125   4.609   8.763  0.6191  1.0452  1.2091
  121OSM   H18H12891   6.098   4.739   8.857  3.4598 -2.6043  0.8725
  122OSM      N12892   3.358   2.774  10.574 -0.3376 -0.2033  0.3812
  122OSM    C1512893   3.395   2.806  10.430 -0.6186 -0.5492  0.4601
  122OSM   H15A12894   3.408   2.909  10.402  1.0427 -1.2540 -1.6513
  122OSM   H15B12895   3.315   2.767  10.369  0.1136 -2.2528  0.5188
  122OSM   H15C12896   3.482   2.746  10.407  0.2495  1.4600 -1.8480
  122OSM    C1412897   3.217   2.820  10.591 -0.3309  0.1004 -0.4931
  122OSM   H14A12898   3.184   2.792  10.691  1.5922  1.3000  0.5270
  122OSM   H14B12899   3.163   2.765  10.516 -1.4317  0.9543 -0.3539
  122OSM   H14C12900   3.203   2.925  10.571 -1.3487  0.3594  1.3119
  122OSM    C1312901   3.374   2.633  10.613  0.3326 -0.0075  0.3654
  122OSM   H13A12902   3.365   2.620  10.720  0.4326 -2.4945  0.1377
  122OSM   H13B12903   3.466   2.589  10.577 -0.4524 -2.0564  0.7311
  122OSM   H13C12904   3.299   2.576  10.559  0.0078  1.2365 -0.5592
  122OSM    C1212905   3.451   2.851  10.666  0.3880 -0.1482 -0.9664
  122OSM   H12A12906   3.401   2.857  10.761 -1.1168  0.4965 -1.7601
  122OSM   H12B12907   3.443   2.954  10.633 -2.5755  0.5352  1.4850
  122OSM    C1112908   3.596   2.808  10.676 -0.1500 -0.3968  0.3154
  122OSM   H11A12909   3.647   2.898  10.717 -1.6565 -0.2727  2.0815
  122OSM   H11B12910   3.622   2.789  10.570  0.4245 -2.0847  0.7373
  122OSM      P12911   3.771   2.660  10.806  0.4662  0.1143 -0.0274
  122OSM    O1312912   3.800   2.787  10.881  0.0444 -0.1673 -0.3902
  122OSM    O1412913   3.773   2.536  10.882  0.3234 -0.2917  0.3229
  122OSM    O1112914   3.857   2.647  10.676 -0.5995  0.2209 -0.3654
  122OSM    O1212915   3.623   2.690  10.754  0.0234 -0.1778  0.5666
  122OSM    C1S12916   3.837   2.554  10.570 -0.2031 -0.5176 -0.2336
  122OSM    H1S12917   3.734   2.514  10.573 -1.0546  1.6031  0.5366
  122OSM    H1T12918   3.912   2.472  10.574 -0.2314 -0.6359 -1.6147
  122OSM     NF12919   3.839   2.526  10.323  0.6134 -0.1073  0.1501
  122OSM    HNF12920   3.916   2.489  10.271 -1.5168 -2.1753 -1.8027
  122OSM    C2S12921   3.857   2.623  10.426 -0.5582  0.5486  0.3192
  122OSM    H2S12922   3.779   2.700  10.415 -1.2471 -0.3353 -1.2659
  122OSM    C3S12923   3.999   2.687  10.415  0.5058 -0.9497  0.1681
  122OSM    H3S12924   4.072   2.604  10.412  0.2099 -1.1678 -1.5101
  122OSM     O312925   4.038   2.776  10.524  0.0057  0.3965  0.3906
  122OSM    HO312926   3.993   2.739  10.601 -0.6277  1.0908  0.3585
  122OSM    C4S12927   4.012   2.756  10.279  0.2434  0.0813  0.0348
  122OSM    H4S12928   4.074   2.702  10.206 -1.5040 -0.3758 -1.1733
  122OSM    C5S12929   3.956   2.875  10.239  0.3924  0.2911  0.8836
  122OSM    H5S12930   3.895   2.934  10.309 -0.1225 -1.3693  1.8827
  122OSM    C6S12931   3.978   2.944  10.101 -0.8776 -0.0767 -0.7263
  122OSM    H6S12932   3.962   3.054  10.105 -0.1470  0.0081  0.1988
  122OSM    H6T12933   3.895   2.914  10.033 -0.6148  1.3107 -1.7089
  122OSM    C7S12934   4.106   2.906  10.027  0.3178 -0.4079  0.2875
  122OSM    H7S12935   4.076   2.808   9.984 -3.1102  0.4905  0.3258
  122OSM    H7T12936   4.198   2.901  10.088  1.1828 -1.9679 -1.0690
  122OSM    C8S12937   4.130   3.003   9.915  0.0189 -0.3790 -0.5036
  122OSM    H8S12938   4.205   2.945   9.857  1.4897  1.6015 -0.6878
  122OSM    H8T12939   4.176   3.095   9.956  0.5734  0.4096 -2.7722
  122OSM    C9S12940   4.011   3.028   9.827  0.1436 -0.3022 -0.3912
  122OSM    H9S12941   3.945   3.109   9.868  1.7594  0.7572  0.2219
  122OSM    H9T12942   3.960   2.930   9.824 -0.0040 -0.2113 -0.8326
  122OSM   C10S12943   4.044   3.057   9.674  0.2524  0.4742 -0.4550
  122OSM   H10S12944   4.098   2.969   9.634  0.7430  0.6779 -0.2554
  122OSM   H10T12945   4.120   3.136   9.659  0.8618 -0.1102 -0.4768
  122OSM   C11S12946   3.922   3.091   9.586  0.1316 -1.0109 -0.8307
  122OSM   H11S12947   3.872   3.186   9.615 -0.4770 -1.8527  1.0165
  122OSM   H11T12948   3.846   3.010   9.600  2.3170 -2.7565  1.8841
  122OSM   C12S12949   3.968   3.112   9.442  0.5988  0.3957 -0.0237
  122OSM   H12S12950   4.034   3.028   9.413 -0.6548 -0.4302 -0.5961
  122OSM   H12T12951   4.028   3.203   9.425  2.5930 -0.9222 -0.3131
  122OSM   C13S12952   3.844   3.115   9.344 -0.2422 -0.6208 -0.1944
  122OSM   H13S12953   3.768   3.188   9.379 -0.2018 -1.6247  2.2139
  122OSM   H13T12954   3.795   3.016   9.351  3.2643 -2.5463 -0.3212
  122OSM   C14S12955   3.889   3.132   9.200 -0.3322 -0.4768  0.2604
  122OSM   H14S12956   3.949   3.040   9.181  1.0313  0.4122  0.1598
  122OSM   H14T12957   3.952   3.223   9.207 -3.1034  1.5404  0.7232
  122OSM   C15S12958   3.782   3.147   9.095 -0.0886 -0.3231  0.8783
  122OSM   H15S12959   3.743   3.251   9.096  1.7217  0.4279 -0.3085
  122OSM   H15T12960   3.700   3.076   9.116  0.7750 -2.3951 -2.1188
  122OSM   C16S12961   3.831   3.109   8.952  0.2652 -0.1520  0.1350
  122OSM   H16S12962   3.854   3.001   8.961  1.9711  0.2626  1.2067
  122OSM   H16T12963   3.925   3.165   8.937  0.6833 -1.1171 -1.0551
  122OSM   C17S12964   3.734   3.153   8.840  0.4235  0.0747 -0.4763
  122OSM   H17S12965   3.728   3.263   8.831  0.1838  0.1533  0.5685
  122OSM   H17T12966   3.631   3.114   8.851  0.1811  1.1358  1.3363
  122OSM   C18S12967   3.788   3.103   8.712 -0.7434 -0.0035 -0.2736
  122OSM   H18S12968   3.803   2.996   8.736 -0.0317  0.9618  4.7260
  122OSM   H18T12969   3.879   3.162   8.687 -0.7659  0.9273  1.6781
  122OSM   H18U12970   3.717   3.123   8.628 -1.0312 -0.5282 -0.1580
  122OSM    C1F12971   3.719   2.469  10.295  0.1483 -0.2676 -0.1112
  122OSM     OF12972   3.616   2.512  10.350  0.0174 -0.4958 -0.1198
  122OSM    C2F12973   3.719   2.353  10.195  0.2185  0.7300  0.2837
  122OSM    H2F12974   3.757   2.258  10.238 -1.9377  0.2250  1.2139
  122OSM    H2G12975   3.790   2.387  10.117 -1.2868  0.7783 -1.1089
  122OSM    C3F12976   3.582   2.345  10.120 -0.4787  0.2207 -0.2440
  122OSM    H3F12977   3.570   2.443  10.069 -0.6890  0.4129  0.1693
  122OSM    H3G12978   3.506   2.339  10.200 -0.0408 -1.6283  0.0730
  122OSM    C4F12979   3.585   2.230  10.023 -0.0642  0.3473  0.3669
  122OSM    H4F12980   3.580   2.129  10.070 -0.7314 -0.4950 -1.3915
  122OSM    H4G12981   3.686   2.235   9.976  0.8145 -1.0713  2.0141
  122OSM    C5F12982   3.463   2.247   9.923 -0.8703  0.3080  0.1623
  122OSM    H5F12983   3.496   2.316   9.842 -0.3890 -3.4021 -3.1417
  122OSM    H5G12984   3.377   2.292   9.976 -1.1836  2.2574 -1.8240
  122OSM    C6F12985   3.436   2.113   9.848  0.5600 -0.5479 -1.2958
  122OSM    H6F12986   3.338   2.121   9.796 -1.1440 -1.1684  1.5368
  122OSM    H6G12987   3.415   2.039   9.928 -1.0285 -0.2177 -1.3708
  122OSM    C7F12988   3.547   2.061   9.761 -0.4310 -0.5355  0.0306
  122OSM    H7F12989   3.545   1.952   9.739 -1.4393 -0.6775  0.7673
  122OSM    H7G12990   3.649   2.088   9.795 -1.3047  1.0231  1.6051
  122OSM    C8F12991   3.516   2.129   9.616  0.0793  0.6871 -1.1093
  122OSM    H8F12992   3.507   2.238   9.638 -0.2839  1.0688 -2.9673
  122OSM    H8G12993   3.420   2.083   9.584  0.7141  0.0441 -2.1386
  122OSM    C9F12994   3.630   2.112   9.516 -0.5257 -0.1655  0.5120
  122OSM    H9F12995   3.706   2.191   9.526  1.4972 -1.9918  0.2608
  122OSM   C10F12996   3.639   2.018   9.422 -0.6944  0.4198 -0.4266
  122OSM   H10F12997   3.732   2.012   9.364 -1.0673 -0.7219 -0.9558
  122OSM   C11F12998   3.539   1.909   9.410 -0.1796 -1.1683  0.5870
  122OSM   H11F12999   3.447   1.942   9.356  1.3401  2.1227 -0.2024
  122OSM   H11G13000   3.510   1.879   9.513  2.0550 -0.3227  1.5236
  122OSM   C12F13001   3.587   1.778   9.341  0.3365 -0.4650 -1.1560
  122OSM   H12F13002   3.512   1.697   9.353 -1.9055  1.3974 -1.7068
  122OSM   H12G13003   3.683   1.735   9.374  1.0656  1.9306  0.0863
  122OSM   C13F13004   3.618   1.785   9.192 -0.1165  0.5877  0.8973
  122OSM   H13F13005   3.704   1.851   9.168 -0.7908  1.0118 -0.4834
  122OSM   H13G13006   3.523   1.813   9.141 -0.3352  1.9686  2.0024
  122OSM   C14F13007   3.655   1.645   9.136  0.4447 -0.9422 -0.2254
  122OSM   H14F13008   3.556   1.594   9.136 -0.1161  0.1276 -0.5066
  122OSM   H14G13009   3.729   1.593   9.200  0.0724  1.2709  2.1519
  122OSM   C15F13010   3.695   1.656   8.988 -0.2252 -0.5763 -1.0121
  122OSM   H15F13011   3.805   1.674   8.977 -0.1133  1.4542  2.2037
  122OSM   H15G13012   3.645   1.743   8.940  0.1289  0.9939  1.3283
  122OSM   C16F13013   3.654   1.532   8.922 -0.5567  0.5647 -0.4867
  122OSM   H16F13014   3.545   1.514   8.927 -0.3246 -1.3593 -1.1990
  122OSM   H16G13015   3.702   1.444   8.971 -1.3543  0.4704  0.1314
  122OSM   C17F13016   3.690   1.520   8.774  0.2637 -0.2624 -0.1863
  122OSM   H17F13017   3.797   1.489   8.772 -0.0329 -1.3075 -1.0025
  122OSM   H17G13018   3.684   1.617   8.721 -0.8167 -0.8834 -1.2410
  122OSM   C18F13019   3.606   1.420   8.696 -0.0731  0.6819  0.1992
  122OSM   H18F13020   3.517   1.463   8.645  0.0932  0.6353 -0.1291
  122OSM   H18G13021   3.569   1.345   8.770 -1.2438 -1.0573 -2.0402
  122OSM   H18H13022   3.657   1.355   8.622 -0.6868 -1.7588  1.7805
  123OSM      N13023   2.242   1.638   5.731  0.4205  0.2662  0.6459
  123OSM    C1513024   2.360   1.721   5.759 -0.1723 -0.3528 -0.5443
  123OSM   H15A13025   2.328   1.823   5.773 -0.7137 -0.8253  2.0287
  123OSM   H15B13026   2.447   1.702   5.697  1.1521 -0.4367  1.2520
  123OSM   H15C13027   2.402   1.685   5.851  0.6909  0.5042 -0.5813
  123OSM    C1413028   2.181   1.701   5.611 -0.6937 -0.1622 -0.4274
  123OSM   H14A13029   2.145   1.799   5.640  0.1307 -0.3734  1.4910
  123OSM   H14B13030   2.101   1.641   5.570 -0.9230 -0.2504  0.1313
  123OSM   H14C13031   2.251   1.707   5.529 -0.2639 -0.3634 -0.0798
  123OSM    C1313032   2.296   1.505   5.696 -0.2270 -0.0115 -0.2417
  123OSM   H13A13033   2.340   1.459   5.783  0.8350 -2.9006 -2.1534
  123OSM   H13B13034   2.367   1.507   5.615  0.1813 -1.3212  0.0717
  123OSM   H13C13035   2.214   1.436   5.692 -0.1845 -0.1380  0.8125
  123OSM    C1213036   2.147   1.636   5.841  0.1487  0.5545 -0.1729
  123OSM   H12A13037   2.074   1.564   5.808  0.0084  1.0149 -0.8731
  123OSM   H12B13038   2.106   1.735   5.854 -0.4321  0.0178  2.9219
  123OSM    C1113039   2.200   1.593   5.981 -0.1501 -0.3846  0.8031
  123OSM   H11A13040   2.124   1.617   6.059 -0.1708  1.6812  0.2003
  123OSM   H11B13041   2.288   1.657   6.001  0.1251 -0.0538 -1.2425
  123OSM      P13042   2.159   1.329   6.013  0.3140  0.4662 -0.4352
  123OSM    O1313043   2.043   1.320   5.929 -0.4237 -0.5788  0.5049
  123OSM    O1413044   2.264   1.227   6.008 -0.7155 -0.0300 -0.4870
  123OSM    O1113045   2.108   1.372   6.153  0.0126 -0.1320  0.5774
  123OSM    O1213046   2.247   1.465   5.986 -0.7735  0.3385  0.5926
  123OSM    C1S13047   2.156   1.326   6.276 -0.0852  0.7171  0.0089
  123OSM    H1S13048   2.267   1.319   6.276 -0.1135  0.0454 -0.9966
  123OSM    H1T13049   2.120   1.224   6.303 -2.9099  2.3879  3.2265
  123OSM     NF13050   2.166   1.367   6.525 -0.6711 -0.8262 -0.6019
  123OSM    HNF13051   2.107   1.319   6.589  0.9863 -0.4505  1.3015
  123OSM    C2S13052   2.119   1.416   6.396 -0.0451  0.2452  0.0164
  123OSM    H2S13053   2.148   1.521   6.375 -1.7723  1.0803  1.5227
  123OSM    C3S13054   1.960   1.433   6.401  0.1317  0.3574  0.5487
  123OSM    H3S13055   1.915   1.338   6.434 -2.8503  1.4146 -0.1601
  123OSM     O313056   1.892   1.446   6.274  0.1471 -0.3716 -0.1471
  123OSM    HO313057   1.957   1.440   6.204 -0.0722 -2.3936 -0.2120
  123OSM    C4S13058   1.920   1.542   6.508  0.3805  0.7555  0.2175
  123OSM    H4S13059   1.917   1.488   6.604 -0.1088 -0.6138 -0.5468
  123OSM    C5S13060   1.911   1.674   6.497 -0.2849 -0.1822  0.3503
  123OSM    H5S13061   1.928   1.725   6.401  2.5421 -0.2673  0.7199
  123OSM    C6S13062   1.868   1.767   6.608  0.2877 -0.5380 -0.6176
  123OSM    H6S13063   1.778   1.822   6.575  1.5901  2.7228  0.8609
  123OSM    H6T13064   1.947   1.844   6.624 -0.7507 -0.1640  4.4685
  123OSM    C7S13065   1.850   1.716   6.755 -0.1349 -0.1157  0.1483
  123OSM    H7S13066   1.945   1.673   6.796 -0.7377  0.3745  2.1869
  123OSM    H7T13067   1.785   1.628   6.734  3.1960 -2.7923  0.1267
  123OSM    C8S13068   1.790   1.818   6.853 -0.3916  0.8010  0.4637
  123OSM    H8S13069   1.681   1.828   6.837 -0.5016 -0.4844  0.2404
  123OSM    H8T13070   1.842   1.915   6.840 -0.0545  0.5973  0.2803
  123OSM    C9S13071   1.795   1.771   6.998  0.6598  0.3075  0.9056
  123OSM    H9S13072   1.899   1.761   7.037  0.1768  1.5520  2.6854
  123OSM    H9T13073   1.742   1.675   6.983  1.5477 -0.3558  1.8227
  123OSM   C10S13074   1.720   1.848   7.110 -0.3290 -0.2416 -0.6769
  123OSM   H10S13075   1.610   1.835   7.100 -0.3535  0.1741 -1.0226
  123OSM   H10T13076   1.740   1.957   7.097  1.0087  0.0545  2.8114
  123OSM   C11S13077   1.779   1.796   7.247  0.3105  0.1114 -0.3858
  123OSM   H11S13078   1.885   1.824   7.264  0.4091  0.0175 -0.8537
  123OSM   H11T13079   1.780   1.685   7.237 -2.6259 -0.0930  0.6608
  123OSM   C12S13080   1.686   1.848   7.359 -0.7485  0.2226 -0.0306
  123OSM   H12S13081   1.590   1.792   7.352 -1.6917  1.5089  1.8132
  123OSM   H12T13082   1.650   1.953   7.352 -0.9549  0.1156 -0.7216
  123OSM   C13S13083   1.738   1.816   7.504 -0.2188  0.2583  0.6852
  123OSM   H13S13084   1.667   1.865   7.574  0.7413  2.3435  0.2914
  123OSM   H13T13085   1.830   1.877   7.517 -0.3898  1.4076 -2.4519
  123OSM   C14S13086   1.764   1.677   7.547  0.7048 -0.2811  0.8185
  123OSM   H14S13087   1.825   1.624   7.470 -0.8841 -1.0698  0.0605
  123OSM   H14T13088   1.666   1.627   7.530  1.3162 -0.8086 -1.5809
  123OSM   C15S13089   1.820   1.654   7.691  0.4482  0.0611 -0.7700
  123OSM   H15S13090   1.826   1.543   7.687  0.6924  0.0841 -1.1510
  123OSM   H15T13091   1.748   1.684   7.769  1.9899 -0.4774  0.9448
  123OSM   C16S13092   1.952   1.719   7.731 -0.5007  0.0431  0.1232
  123OSM   H16S13093   1.951   1.728   7.842  2.3472  0.1594  0.2115
  123OSM   H16T13094   1.957   1.824   7.696 -1.0586 -0.0703 -0.3115
  123OSM   C17S13095   2.070   1.635   7.681  0.4487 -0.1397 -0.1511
  123OSM   H17S13096   2.059   1.617   7.572  0.1244 -1.4512  0.0761
  123OSM   H17T13097   2.071   1.537   7.734 -1.6967  0.4637  1.0948
  123OSM   C18S13098   2.202   1.719   7.704 -0.1038  0.4150 -0.3845
  123OSM   H18S13099   2.203   1.766   7.805 -0.9269 -0.2360 -0.0589
  123OSM   H18T13100   2.197   1.803   7.632 -0.0364 -0.1542 -1.0609
  123OSM   H18U13101   2.295   1.661   7.687 -0.6522 -0.1667 -1.5348
  123OSM    C1F13102   2.295   1.345   6.545 -0.0073 -0.0173 -0.2745
  123OSM     OF13103   2.381   1.399   6.481  0.5926 -0.2839 -0.0382
  123OSM    C2F13104   2.343   1.256   6.655  0.5539  0.3617 -0.6271
  123OSM    H2F13105   2.381   1.167   6.601 -0.1695 -1.1132  1.1966
  123OSM    H2G13106   2.263   1.224   6.725  1.9968  2.2426  2.0917
  123OSM    C3F13107   2.467   1.320   6.734 -0.3406 -0.0331  0.1797
  123OSM    H3F13108   2.426   1.404   6.794 -2.5044 -2.2990  2.1606
  123OSM    H3G13109   2.546   1.344   6.660  0.3564  1.4642  1.3637
  123OSM    C4F13110   2.533   1.238   6.845  0.7396  0.4459  1.1758
  123OSM    H4F13111   2.625   1.291   6.878  0.5737  2.6669 -1.5131
  123OSM    H4G13112   2.566   1.139   6.806 -0.9743  0.1899  0.3116
  123OSM    C5F13113   2.437   1.213   6.960 -0.8427  0.0742  0.2414
  123OSM    H5F13114   2.350   1.151   6.931  0.7608 -2.1927  0.0232
  123OSM    H5G13115   2.400   1.313   6.993 -1.0143 -0.0431  0.4016
  123OSM    C6F13116   2.496   1.145   7.081 -0.3143 -0.8446  0.1005
  123OSM    H6F13117   2.602   1.171   7.102  0.0058 -0.6958 -1.5686
  123OSM    H6G13118   2.502   1.037   7.055  0.9533 -0.7303 -0.1423
  123OSM    C7F13119   2.417   1.171   7.209 -0.3351 -0.0497  0.5754
  123OSM    H7F13120   2.308   1.152   7.204 -0.4251 -0.2181  2.4209
  123OSM    H7G13121   2.436   1.275   7.244  1.5113  0.6738 -2.2375
  123OSM    C8F13122   2.482   1.079   7.320  0.8899 -0.0974  0.2333
  123OSM    H8F13123   2.590   1.102   7.317  0.5418  1.6224 -0.8903
  123OSM    H8G13124   2.467   0.975   7.285  1.1279  0.3322 -1.2188
  123OSM    C9F13125   2.414   1.100   7.453 -0.0811  0.4640 -0.0902
  123OSM    H9F13126   2.330   1.171   7.460 -1.0898 -0.7957  4.9765
  123OSM   C10F13127   2.448   1.040   7.564 -0.0967 -0.1932 -0.5137
  123OSM   H10F13128   2.390   1.060   7.656  1.3755  1.1586  0.1781
  123OSM   C11F13129   2.554   0.934   7.576 -0.7937 -0.1169  0.6304
  123OSM   H11F13130   2.629   0.948   7.495 -0.1673 -0.9289  1.0567
  123OSM   H11G13131   2.514   0.831   7.564 -0.7194  0.0875 -2.0759
  123OSM   C12F13132   2.626   0.955   7.706 -0.3963  0.2806 -0.9136
  123OSM   H12F13133   2.728   0.910   7.701  0.5810  2.4322 -1.7519
  123OSM   H12G13134   2.572   0.907   7.789  1.9145  1.7003  1.5689
  123OSM   C13F13135   2.678   1.093   7.731 -0.0562 -1.3643 -0.8161
  123OSM   H13F13136   2.589   1.159   7.732 -0.8341 -2.3999 -0.4403
  123OSM   H13G13137   2.746   1.123   7.648  1.2217 -0.0409  0.6492
  123OSM   C14F13138   2.754   1.116   7.868  0.3568  0.0018 -0.9289
  123OSM   H14F13139   2.854   1.066   7.867 -0.3836 -1.8357  2.4002
  123OSM   H14G13140   2.696   1.060   7.944  0.6018 -1.2658 -1.6344
  123OSM   C15F13141   2.766   1.268   7.906 -0.0865  0.2244 -0.6783
  123OSM   H15F13142   2.664   1.309   7.891  0.6405  2.7953  0.8200
  123OSM   H15G13143   2.833   1.324   7.837 -0.4958  3.0050  1.0328
  123OSM   C16F13144   2.812   1.288   8.051  1.0669  0.0060 -0.3238
  123OSM   H16F13145   2.830   1.395   8.077  0.0047 -0.0981  0.9560
  123OSM   H16G13146   2.913   1.243   8.062  0.2533 -1.8391  0.0380
  123OSM   C17F13147   2.720   1.230   8.163 -0.1901  0.1629 -0.1018
  123OSM   H17F13148   2.758   1.260   8.262  0.2185 -0.2065 -0.1432
  123OSM   H17G13149   2.722   1.120   8.145 -0.3683  0.3371 -1.2855
  123OSM   C18F13150   2.574   1.277   8.146  0.0678  0.5681 -0.8965
  123OSM   H18F13151   2.526   1.248   8.242 -0.0575 -0.2752 -1.2006
  123OSM   H18G13152   2.517   1.220   8.070  1.5335 -1.4585 -0.5629
  123OSM   H18H13153   2.579   1.384   8.118  3.9318  0.9414  0.4655
  124OSM      N13154   5.279   5.697   6.057  0.2371 -0.1025 -0.3437
  124OSM    C1513155   5.200   5.653   6.180  0.2553  0.9566  0.3108
  124OSM   H15A13156   5.246   5.581   6.246  1.0478  1.8021  0.7084
  124OSM   H15B13157   5.105   5.618   6.142  1.5383  0.5689 -2.8139
  124OSM   H15C13158   5.183   5.736   6.247 -0.8169  1.2919 -0.3369
  124OSM    C1413159   5.288   5.573   5.969 -0.2468 -0.6491 -0.1053
  124OSM   H14A13160   5.309   5.479   6.017  1.8121 -0.1237  0.1255
  124OSM   H14B13161   5.357   5.581   5.886 -0.9928 -0.4361 -0.7243
  124OSM   H14C13162   5.193   5.562   5.918 -0.6272 -0.7460  0.6159
  124OSM    C1313163   5.197   5.796   5.986  0.0488 -0.5011 -0.4249
  124OSM   H13A13164   5.250   5.832   5.899  0.3739  0.8831  0.3092
  124OSM   H13B13165   5.181   5.879   6.053 -1.9635 -2.3837  1.5815
  124OSM   H13C13166   5.101   5.759   5.952  0.6335 -1.4766 -1.0559
  124OSM    C1213167   5.419   5.752   6.102 -0.2778  0.3126 -0.3967
  124OSM   H12A13168   5.460   5.801   6.015  1.7501  0.8212  0.7660
  124OSM   H12B13169   5.491   5.673   6.118 -0.6179 -0.2904 -1.7147
  124OSM    C1113170   5.414   5.865   6.212 -0.5962  0.4690 -0.4928
  124OSM   H11A13171   5.518   5.904   6.218  0.0285 -0.7248 -2.6370
  124OSM   H11B13172   5.388   5.820   6.310 -0.4971 -1.2182 -1.2048
  124OSM      P13173   5.241   6.054   6.264 -0.0215  0.1468 -0.3506
  124OSM    O1313174   5.248   6.195   6.229 -0.1194 -0.4254 -0.4779
  124OSM    O1413175   5.108   5.992   6.276 -0.5410  0.2095 -0.1091
  124OSM    O1113176   5.311   6.037   6.404  0.1450 -0.1850 -0.1010
  124OSM    O1213177   5.337   5.975   6.171 -0.0348  0.8107  0.0196
  124OSM    C1S13178   5.400   6.127   6.469  0.2871  0.3981  0.0432
  124OSM    H1S13179   5.374   6.233   6.446  2.2201  0.9449  0.1923
  124OSM    H1T13180   5.502   6.098   6.437 -0.9765 -0.3993 -3.7356
  124OSM     NF13181   5.453   6.216   6.693 -0.4822 -0.0959 -0.5644
  124OSM    HNF13182   5.541   6.193   6.735 -0.5847 -0.3346 -0.4751
  124OSM    C2S13183   5.395   6.102   6.622 -0.5918  0.5790 -0.4007
  124OSM    H2S13184   5.289   6.091   6.654 -0.0978 -2.3756  0.5230
  124OSM    C3S13185   5.454   5.967   6.662 -0.0894 -0.0317 -0.0397
  124OSM    H3S13186   5.564   5.984   6.664 -0.3361  1.7589  0.3850
  124OSM     O313187   5.424   5.867   6.559 -0.2609  1.4699  0.2202
  124OSM    HO313188   5.391   5.925   6.490  1.0349  0.5822 -1.2020
  124OSM    C4S13189   5.416   5.935   6.808 -0.3722 -0.4836 -0.0089
  124OSM    H4S13190   5.495   5.978   6.871 -1.8686  2.1665  0.2124
  124OSM    C5S13191   5.309   5.873   6.853  0.5413  0.1958 -0.7885
  124OSM    H5S13192   5.232   5.837   6.784 -0.5246  1.9925 -0.6190
  124OSM    C6S13193   5.279   5.852   7.001  0.0128 -0.0715  0.3804
  124OSM    H6S13194   5.374   5.853   7.058  2.3434  0.6848 -3.1636
  124OSM    H6T13195   5.221   5.756   7.004  2.4344 -1.6283 -0.0247
  124OSM    C7S13196   5.192   5.961   7.067  0.2232  0.1918 -0.2356
  124OSM    H7S13197   5.096   5.975   7.013 -0.8061  0.7361  1.6408
  124OSM    H7T13198   5.245   6.059   7.067 -0.0753  0.3768 -1.4717
  124OSM    C8S13199   5.156   5.937   7.217  0.1075 -0.3223  0.5758
  124OSM    H8S13200   5.130   5.831   7.237 -0.9678 -0.0129  0.8791
  124OSM    H8T13201   5.073   6.009   7.231  1.0715  0.9447 -0.0036
  124OSM    C9S13202   5.272   5.967   7.304 -0.6078 -0.5809 -0.2140
  124OSM    H9S13203   5.323   6.058   7.267 -1.6046  0.2141  0.3232
  124OSM    H9T13204   5.349   5.887   7.312 -0.1979  0.0086  2.8758
  124OSM   C10S13205   5.224   5.999   7.449 -0.2615 -0.5237 -0.3187
  124OSM   H10S13206   5.157   6.088   7.455  1.2878  0.6114  1.3239
  124OSM   H10T13207   5.312   6.029   7.509  0.5106 -1.6463 -0.8568
  124OSM   C11S13208   5.163   5.872   7.514 -0.2964  0.3410 -0.0600
  124OSM   H11S13209   5.213   5.774   7.498 -0.0404  0.0971  1.9681
  124OSM   H11T13210   5.067   5.860   7.459 -1.5427  0.8325  1.9183
  124OSM   C12S13211   5.116   5.886   7.655 -0.6298  0.2519  0.6402
  124OSM   H12S13212   5.030   5.818   7.670  0.1822 -1.4632 -1.9234
  124OSM   H12T13213   5.081   5.990   7.672  1.4151  1.1429 -0.2293
  124OSM   C13S13214   5.229   5.870   7.753 -0.6298 -0.3482 -0.1696
  124OSM   H13S13215   5.313   5.942   7.741  0.3746 -1.7222 -1.9537
  124OSM   H13T13216   5.272   5.768   7.765  0.6147  0.3396  1.5163
  124OSM   C14S13217   5.175   5.885   7.893 -0.4198 -0.1954 -0.8339
  124OSM   H14S13218   5.110   5.797   7.914  0.1622 -0.0676  1.9386
  124OSM   H14T13219   5.106   5.971   7.909 -2.0107 -1.9650  3.0063
  124OSM   C15S13220   5.294   5.891   8.000  0.2330  0.6882  0.7316
  124OSM   H15S13221   5.353   5.801   7.972 -0.3227 -0.4740  3.0636
  124OSM   H15T13222   5.269   5.866   8.105  0.0721 -3.4801 -0.1452
  124OSM   C16S13223   5.379   6.018   7.993 -0.1367  0.1917 -0.3483
  124OSM   H16S13224   5.310   6.093   7.948 -0.3070 -0.6012 -1.4734
  124OSM   H16T13225   5.458   6.007   7.916  1.4419 -1.3117  1.3744
  124OSM   C17S13226   5.428   6.081   8.124 -0.3062  0.6016 -0.2417
  124OSM   H17S13227   5.346   6.111   8.193 -1.0818  2.2060 -1.7816
  124OSM   H17T13228   5.466   6.179   8.088 -5.5602  2.2591 -2.2043
  124OSM   C18S13229   5.533   6.000   8.202 -0.1364  0.1305 -0.3230
  124OSM   H18S13230   5.633   5.994   8.154  0.8580 -0.4097  1.7029
  124OSM   H18T13231   5.500   5.896   8.221 -1.4580  0.7319  0.8232
  124OSM   H18U13232   5.546   6.058   8.297  0.0507  0.4273 -0.5270
  124OSM    C1F13233   5.396   6.340   6.700  0.0050  0.4754 -0.1858
  124OSM     OF13234   5.281   6.352   6.664  0.2535  0.0292 -0.6502
  124OSM    C2F13235   5.490   6.447   6.746  0.3046  0.1114 -0.6906
  124OSM    H2F13236   5.494   6.530   6.673  1.0593  1.3187  0.6682
  124OSM    H2G13237   5.594   6.414   6.768 -0.1366  0.0953  1.6826
  124OSM    C3F13238   5.434   6.512   6.877  1.3511 -0.2527  0.5489
  124OSM    H3F13239   5.338   6.560   6.847  1.6737  0.0946  0.0554
  124OSM    H3G13240   5.512   6.586   6.905  1.4068  0.4975 -1.3878
  124OSM    C4F13241   5.418   6.414   6.995  0.4442 -0.4273 -0.0758
  124OSM    H4F13242   5.351   6.334   6.956 -1.2250  0.3086  1.1628
  124OSM    H4G13243   5.365   6.460   7.081 -0.5783  1.0572 -1.4436
  124OSM    C5F13244   5.553   6.351   7.042 -0.1477  0.2130  0.0199
  124OSM    H5F13245   5.605   6.425   7.106 -0.4250  0.2848  0.1656
  124OSM    H5G13246   5.622   6.344   6.955 -0.4432  0.3921 -0.2364
  124OSM    C6F13247   5.544   6.226   7.128 -0.0568 -0.2409 -0.3734
  124OSM    H6F13248   5.498   6.143   7.071 -0.9086  0.4694 -0.7491
  124OSM    H6G13249   5.470   6.254   7.206  0.6209  1.7733 -0.3900
  124OSM    C7F13250   5.677   6.190   7.197  0.3894 -0.9041 -0.2051
  124OSM    H7F13251   5.677   6.272   7.272 -2.2294 -0.1576 -0.9084
  124OSM    H7G13252   5.765   6.186   7.131  0.7836 -0.3186  0.2746
  124OSM    C8F13253   5.655   6.060   7.278  0.9001  0.1644  0.2896
  124OSM    H8F13254   5.638   5.976   7.208  2.8051  0.5174 -0.6669
  124OSM    H8G13255   5.562   6.082   7.335  1.8689  0.7778  1.6952
  124OSM    C9F13256   5.761   6.015   7.372  0.3828 -0.8805  0.4712
  124OSM    H9F13257   5.857   5.990   7.325 -0.0429 -0.9112 -0.4049
  124OSM   C10F13258   5.761   5.995   7.507  0.6084 -0.1622  0.4907
  124OSM   H10F13259   5.854   5.957   7.552 -1.5027 -0.4645  5.1743
  124OSM   C11F13260   5.648   6.007   7.608 -0.8244  0.1616  0.1235
  124OSM   H11F13261   5.564   6.066   7.565  0.4491  0.2956 -2.3530
  124OSM   H11G13262   5.687   6.053   7.701  2.2647 -0.5687 -0.6894
  124OSM   C12F13263   5.601   5.856   7.641 -0.2838  0.2058  0.2018
  124OSM   H12F13264   5.593   5.793   7.549 -0.5740 -1.0850  1.0920
  124OSM   H12G13265   5.502   5.872   7.688 -0.2597  0.7346  0.0864
  124OSM   C13F13266   5.689   5.784   7.742 -0.6924 -0.0778 -0.2508
  124OSM   H13F13267   5.796   5.775   7.713 -0.3796  0.3559  0.7474
  124OSM   H13G13268   5.662   5.676   7.752  1.4476 -0.4790  1.9247
  124OSM   C14F13269   5.684   5.855   7.885 -0.4226  0.1827  0.0314
  124OSM   H14F13270   5.581   5.845   7.927  0.2172 -0.2792  1.6002
  124OSM   H14G13271   5.704   5.964   7.881 -2.5950  0.5950 -1.8552
  124OSM   C15F13272   5.778   5.793   7.994  0.8041 -0.0712 -0.6354
  124OSM   H15F13273   5.770   5.844   8.092  0.9706 -0.8563 -0.2025
  124OSM   H15G13274   5.887   5.798   7.976  1.2562 -0.4400  1.6282
  124OSM   C16F13275   5.757   5.642   8.019  0.0283 -0.4370 -0.0899
  124OSM   H16F13276   5.779   5.595   7.920  1.0128 -0.9031  0.3428
  124OSM   H16G13277   5.652   5.617   8.048  0.1515 -0.0154  0.7274
  124OSM   C17F13278   5.856   5.593   8.126  0.4121  0.8894  0.4081
  124OSM   H17F13279   5.861   5.654   8.219 -0.0872  1.8850 -0.2025
  124OSM   H17G13280   5.958   5.608   8.084  0.4960  0.6808  0.5367
  124OSM   C18F13281   5.833   5.436   8.165 -0.7700 -0.4821 -0.0059
  124OSM   H18F13282   5.742   5.426   8.226  0.9007  1.5512  3.1169
  124OSM   H18G13283   5.917   5.390   8.222  0.1773  1.8027  0.5841
  124OSM   H18H13284   5.832   5.378   8.071 -1.1260 -1.8945  0.8527
  125OSM      N13285   4.326   6.339   6.270 -0.8038  0.1653  0.4342
  125OSM    C1513286   4.289   6.238   6.159  0.0565  0.3104 -0.1945
  125OSM   H15A13287   4.182   6.230   6.163  0.0898  0.1555  3.0101
  125OSM   H15B13288   4.312   6.136   6.187 -2.0306  0.1313  1.0342
  125OSM   H15C13289   4.307   6.276   6.059 -0.2269 -0.1374 -0.4210
  125OSM    C1413290   4.477   6.360   6.264 -0.1984  0.5997  0.5826
  125OSM   H14A13291   4.520   6.379   6.166 -0.7853  1.9833  0.5773
  125OSM   H14B13292   4.524   6.271   6.302  1.0573  1.1150  0.2775
  125OSM   H14C13293   4.508   6.442   6.327  1.0564 -0.4246  1.3455
  125OSM    C1313294   4.271   6.470   6.243  0.3449 -0.3110  0.4604
  125OSM   H13A13295   4.297   6.542   6.320  2.6792  0.3426 -0.8418
  125OSM   H13B13296   4.165   6.470   6.225  0.7949 -4.6663 -4.0856
  125OSM   H13C13297   4.315   6.508   6.152 -2.8487  0.6053 -0.8167
  125OSM    C1213298   4.291   6.296   6.408 -0.4222 -0.0884 -0.2489
  125OSM   H12A13299   4.336   6.366   6.477 -1.5002 -0.9765  1.4471
  125OSM   H12B13300   4.342   6.203   6.427  1.0418  0.9580  1.2355
  125OSM    C1113301   4.150   6.295   6.469  0.6203  0.7913 -0.5948
  125OSM   H11A13302   4.092   6.382   6.432 -1.8701  1.4097  3.9763
  125OSM   H11B13303   4.150   6.300   6.580  0.3620  0.2520 -0.5664
  125OSM      P13304   4.128   6.035   6.486 -0.1765  0.0798  0.3056
  125OSM    O1313305   4.013   5.951   6.458  0.6970  0.6479 -0.0253
  125OSM    O1413306   4.255   5.984   6.426 -0.1194 -0.5017  0.3270
  125OSM    O1113307   4.149   6.048   6.639 -0.4670 -0.0861 -0.0847
  125OSM    O1213308   4.091   6.171   6.428 -0.5832 -0.2729 -0.4929
  125OSM    C1S13309   4.041   6.095   6.719 -0.0191 -0.7676  0.6617
  125OSM    H1S13310   3.953   6.031   6.694 -0.4766 -1.0542  2.7601
  125OSM    H1T13311   4.004   6.199   6.703  3.3086  0.2160 -1.8101
  125OSM     NF13312   3.954   6.119   6.938 -0.1167 -0.7874 -0.1691
  125OSM    HNF13313   3.959   6.197   7.000  1.5578 -2.4481  1.9391
  125OSM    C2S13314   4.070   6.073   6.870  0.5063  0.2551  0.4043
  125OSM    H2S13315   4.087   5.965   6.893  2.0561  0.6436  1.2386
  125OSM    C3S13316   4.198   6.142   6.916  0.1854 -0.3695 -0.3782
  125OSM    H3S13317   4.190   6.243   6.871 -0.4976 -0.0657  0.4135
  125OSM     O313318   4.310   6.074   6.845 -0.4676 -0.0344 -0.0387
  125OSM    HO313319   4.261   6.018   6.785 -0.0722 -1.6492  1.0809
  125OSM    C4S13320   4.221   6.146   7.062  0.1039  0.3762 -0.1200
  125OSM    H4S13321   4.192   6.240   7.111 -0.8844  0.5514 -1.0033
  125OSM    C5S13322   4.278   6.050   7.143 -0.1935 -0.1957 -0.3199
  125OSM    H5S13323   4.306   5.958   7.090  0.2100 -0.8511  1.0182
  125OSM    C6S13324   4.304   6.064   7.292  0.0983 -0.3714 -0.0993
  125OSM    H6S13325   4.385   6.140   7.299 -0.7756  0.7860 -1.7285
  125OSM    H6T13326   4.353   5.971   7.328  0.6310  0.2967  0.9446
  125OSM    C7S13327   4.183   6.128   7.361  0.4231  0.7359  0.8155
  125OSM    H7S13328   4.092   6.066   7.344 -0.1297  1.6266  0.4327
  125OSM    H7T13329   4.147   6.224   7.317 -3.4084 -0.1238  1.6515
  125OSM    C8S13330   4.212   6.141   7.506 -0.3559 -0.2548  0.1548
  125OSM    H8S13331   4.262   6.239   7.526 -1.3052  0.0467  1.1651
  125OSM    H8T13332   4.277   6.064   7.553  0.0732  0.5620  0.9474
  125OSM    C9S13333   4.083   6.118   7.589  0.1217 -0.2257 -0.3062
  125OSM    H9S13334   4.037   6.023   7.554  1.2711 -0.5358 -1.0362
  125OSM    H9T13335   4.011   6.200   7.570 -1.2567 -0.8284  1.9044
  125OSM   C10S13336   4.117   6.117   7.737 -0.2499  0.5437  0.0060
  125OSM   H10S13337   4.176   6.205   7.771  0.9995 -0.5343  0.6873
  125OSM   H10T13338   4.181   6.029   7.759 -0.6463 -0.2264 -1.7159
  125OSM   C11S13339   3.996   6.107   7.834  1.0195  0.2246  0.1248
  125OSM   H11S13340   3.916   6.044   7.791 -0.0824  0.2455  2.0459
  125OSM   H11T13341   3.958   6.211   7.843 -0.0731 -0.0876 -0.7042
  125OSM   C12S13342   4.032   6.060   7.980 -0.4595 -0.6114  0.1251
  125OSM   H12S13343   3.954   6.098   8.049  2.3656  1.3965  2.5334
  125OSM   H12T13344   4.129   6.107   8.008  0.0905 -1.7377  0.1608
  125OSM   C13S13345   4.038   5.913   8.003  0.3788 -0.2154  0.7084
  125OSM   H13S13346   4.115   5.891   8.080  1.5450  1.2509  0.0297
  125OSM   H13T13347   4.080   5.860   7.915  3.8896 -0.2219  2.2251
  125OSM   C14S13348   3.908   5.837   8.046 -0.2569  0.3964  0.2662
  125OSM   H14S13349   3.819   5.853   7.981  0.6653  0.8475 -0.9297
  125OSM   H14T13350   3.869   5.879   8.141  0.8181 -1.2162  1.4682
  125OSM   C15S13351   3.927   5.686   8.067 -0.0100  0.1886  0.1536
  125OSM   H15S13352   3.987   5.672   8.160 -1.2214  0.3172  0.9830
  125OSM   H15T13353   3.977   5.635   7.982  0.1927  0.2658  0.2253
  125OSM   C16S13354   3.800   5.603   8.108 -0.0417  0.4387  0.3692
  125OSM   H16S13355   3.722   5.596   8.028  0.2707  0.3983  0.0659
  125OSM   H16T13356   3.750   5.645   8.198  0.3312  0.7822  0.4159
  125OSM   C17S13357   3.837   5.461   8.162  0.5105 -0.1385  0.7066
  125OSM   H17S13358   3.925   5.472   8.229  0.5317  1.8414  0.3887
  125OSM   H17T13359   3.859   5.385   8.083 -1.3011 -1.1526  1.1261
  125OSM   C18S13360   3.724   5.404   8.249  0.9777  0.1727  0.8210
  125OSM   H18S13361   3.732   5.293   8.256  1.5827 -0.0010 -1.6226
  125OSM   H18T13362   3.627   5.424   8.199  1.6301 -1.3662 -1.2394
  125OSM   H18U13363   3.748   5.440   8.351  0.8259  0.5702  0.7164
  125OSM    C1F13364   3.847   6.040   6.944  0.1260  0.0913 -0.9495
  125OSM     OF13365   3.850   5.931   6.887  0.3170 -0.1843 -0.2994
  125OSM    C2F13366   3.725   6.098   7.021  0.3696 -0.3217  0.6761
  125OSM    H2F13367   3.641   6.114   6.949  0.3612  1.2896  1.0029
  125OSM    H2G13368   3.761   6.190   7.072 -0.3172  0.8536 -0.8681
  125OSM    C3F13369   3.695   5.996   7.130  0.3877  0.3474  0.7075
  125OSM    H3F13370   3.685   5.892   7.091 -1.3204  0.0605  1.7916
  125OSM    H3G13371   3.596   6.028   7.171 -0.8149 -1.6535 -0.4550
  125OSM    C4F13372   3.792   5.992   7.251 -0.3090  0.1608  0.0493
  125OSM    H4F13373   3.791   6.088   7.306 -0.8312  0.5883 -0.6901
  125OSM    H4G13374   3.891   5.975   7.204 -0.8460 -3.9202  0.0056
  125OSM    C5F13375   3.760   5.873   7.338  0.0704  1.1451  0.1394
  125OSM    H5F13376   3.768   5.778   7.280 -1.1235  1.8391 -1.2238
  125OSM    H5G13377   3.654   5.886   7.367 -0.8706 -2.1814 -1.2983
  125OSM    C6F13378   3.825   5.859   7.475 -0.0319  0.3145  0.4385
  125OSM    H6F13379   3.828   5.942   7.548  2.1009 -0.6939  1.5836
  125OSM    H6G13380   3.927   5.824   7.448 -1.0864 -1.6434 -1.3066
  125OSM    C7F13381   3.756   5.742   7.548  0.4263  0.1558 -0.2992
  125OSM    H7F13382   3.754   5.653   7.482  0.4300 -0.1825  0.1485
  125OSM    H7G13383   3.653   5.767   7.580  0.2748 -2.2070  1.3073
  125OSM    C8F13384   3.836   5.693   7.670  0.2706  0.1940  0.6444
  125OSM    H8F13385   3.806   5.764   7.750 -1.2081 -0.7456  0.9714
  125OSM    H8G13386   3.946   5.699   7.653  0.0606 -2.3936 -2.8897
  125OSM    C9F13387   3.776   5.570   7.737 -0.4503 -0.6072  0.9133
  125OSM    H9F13388   3.672   5.585   7.768 -1.1450 -0.1082 -1.4711
  125OSM   C10F13389   3.841   5.458   7.780 -0.0734  0.0664 -0.7136
  125OSM   H10F13390   3.778   5.376   7.819 -0.3884 -0.4920 -2.3090
  125OSM   C11F13391   3.985   5.423   7.768 -0.0909 -0.1304 -0.8144
  125OSM   H11F13392   4.010   5.351   7.849 -0.4242  3.0051  2.2981
  125OSM   H11G13393   4.053   5.511   7.762 -0.8044  0.3723 -2.0928
  125OSM   C12F13394   4.009   5.351   7.635 -0.1472  0.0143 -0.2743
  125OSM   H12F13395   4.118   5.334   7.623 -0.5325 -2.3042 -0.9091
  125OSM   H12G13396   3.974   5.406   7.544 -0.1958 -1.7463 -1.3703
  125OSM   C13F13397   3.936   5.218   7.606  0.5432  0.7466  0.6675
  125OSM   H13F13398   3.827   5.233   7.621  0.3642  1.4575 -1.0267
  125OSM   H13G13399   3.969   5.140   7.677 -2.9480  1.5347  3.4090
  125OSM   C14F13400   3.965   5.149   7.465  0.5583 -0.1675  0.0302
  125OSM   H14F13401   3.911   5.208   7.388  2.7277 -0.9650 -2.2279
  125OSM   H14G13402   3.911   5.051   7.464 -3.7270  1.9414  0.5607
  125OSM   C15F13403   4.111   5.126   7.428 -0.2020  0.1846 -1.0199
  125OSM   H15F13404   4.166   5.087   7.516  0.0219 -0.4280 -1.4239
  125OSM   H15G13405   4.146   5.227   7.399 -1.2782  1.1459  0.8444
  125OSM   C16F13406   4.122   5.014   7.325  0.6029  0.3704 -0.0606
  125OSM   H16F13407   4.042   5.045   7.254 -0.2644 -0.8979  0.3424
  125OSM   H16G13408   4.096   4.916   7.370  0.5406  0.7742  0.7993
  125OSM   C17F13409   4.254   4.999   7.247 -0.4152  0.3082 -0.2151
  125OSM   H17F13410   4.329   4.965   7.322 -0.8370 -2.4528 -0.9501
  125OSM   H17G13411   4.286   5.104   7.228  1.8074 -0.1402  0.6904
  125OSM   C18F13412   4.266   4.902   7.125  0.4407  0.0877 -0.6048
  125OSM   H18F13413   4.221   4.951   7.036 -2.1915  1.9780  1.5983
  125OSM   H18G13414   4.213   4.808   7.152  1.2374 -0.0818  0.4268
  125OSM   H18H13415   4.370   4.870   7.102  1.3232  0.9676  1.8676
  126OSM      N13416   2.759   6.383   6.317  0.0053  0.1701  0.0801
  126OSM    C1513417   2.828   6.261   6.359 -0.4996  0.1832 -0.5378
  126OSM   H15A13418   2.785   6.167   6.326  2.2880 -0.6622 -2.0671
  126OSM   H15B13419   2.842   6.261   6.466  1.8586 -2.7609 -0.7087
  126OSM   H15C13420   2.930   6.260   6.325  0.4629 -1.1071  2.1482
  126OSM    C1413421   2.815   6.507   6.375 -0.4169  0.0793 -0.9425
  126OSM   H14A13422   2.765   6.597   6.342 -1.9699 -1.0388 -1.7437
  126OSM   H14B13423   2.920   6.519   6.352 -0.9129  0.3782 -3.3099
  126OSM   H14C13424   2.811   6.507   6.482  1.0619 -0.7241 -0.8640
  126OSM    C1313425   2.768   6.390   6.163  0.5965 -0.2227  0.2249
  126OSM   H13A13426   2.859   6.430   6.119 -0.6922  0.3115 -2.1429
  126OSM   H13B13427   2.694   6.454   6.117  0.5735 -2.1641 -2.7437
  126OSM   H13C13428   2.748   6.290   6.127 -0.0667 -0.0475  0.0932
  126OSM    C1213429   2.608   6.379   6.342 -0.1186  0.2962 -0.8879
  126OSM   H12A13430   2.558   6.309   6.278  0.9195 -0.1852 -1.1970
  126OSM   H12B13431   2.573   6.474   6.305  4.2479  1.1266 -3.5677
  126OSM    C1113432   2.567   6.364   6.492 -0.1230 -0.0576 -0.1434
  126OSM   H11A13433   2.607   6.450   6.551  0.4415  0.2650 -0.9730
  126OSM   H11B13434   2.605   6.268   6.532  2.9429  1.4340  0.8604
  126OSM      P13435   2.353   6.258   6.587  0.1765 -0.1912 -0.3872
  126OSM    O1313436   2.211   6.284   6.561 -0.4003  0.2335  0.5259
  126OSM    O1413437   2.405   6.128   6.550 -0.2603 -0.0551 -0.1208
  126OSM    O1113438   2.373   6.284   6.743 -0.3302 -0.1925  0.5350
  126OSM    O1213439   2.429   6.369   6.503  0.4119 -0.7987  0.7133
  126OSM    C1S13440   2.424   6.411   6.785 -0.5588 -0.5844  0.5449
  126OSM    H1S13441   2.363   6.494   6.742  1.5439 -0.3073 -2.1996
  126OSM    H1T13442   2.527   6.422   6.744 -1.8016  2.9919 -2.1644
  126OSM     NF13443   2.434   6.558   6.980  0.3656 -0.1715 -1.0112
  126OSM    HNF13444   2.525   6.586   7.008 -0.9528  1.0958  2.7103
  126OSM    C2S13445   2.424   6.421   6.938 -0.4347 -0.8206 -0.2180
  126OSM    H2S13446   2.324   6.386   6.972 -0.6737 -0.6794 -0.7697
  126OSM    C3S13447   2.533   6.328   6.989 -0.3915  0.3770  0.7322
  126OSM    H3S13448   2.626   6.369   6.943 -2.3719  1.4800 -2.6691
  126OSM     O313449   2.515   6.195   6.945  0.6698  0.2245  0.7290
  126OSM    HO313450   2.457   6.212   6.870  1.4235  1.3279  0.3708
  126OSM    C4S13451   2.525   6.330   7.142  0.0645 -0.4423 -0.2846
  126OSM    H4S13452   2.588   6.403   7.195 -0.7104  0.3689 -0.4445
  126OSM    C5S13453   2.436   6.263   7.217  0.1839 -0.0662  1.0744
  126OSM    H5S13454   2.363   6.198   7.167 -0.7344 -0.5508  2.9235
  126OSM    C6S13455   2.408   6.278   7.362 -0.2087  0.2966 -0.0253
  126OSM    H6S13456   2.400   6.177   7.407 -0.1642 -0.3435 -1.3947
  126OSM    H6T13457   2.314   6.337   7.370  0.4391  1.2458  0.8419
  126OSM    C7S13458   2.513   6.351   7.451 -0.1612 -0.4730  0.0837
  126OSM    H7S13459   2.529   6.456   7.421  3.5022 -1.0493 -0.4517
  126OSM    H7T13460   2.613   6.303   7.452  0.4526  0.7257 -1.2389
  126OSM    C8S13461   2.456   6.356   7.597  0.7964 -0.3032 -0.0632
  126OSM    H8S13462   2.440   6.249   7.622  1.1523 -0.5266 -0.7577
  126OSM    H8T13463   2.354   6.400   7.602  0.3006 -1.5827  2.6323
  126OSM    C9S13464   2.542   6.413   7.702 -0.7393  0.0905 -0.3168
  126OSM    H9S13465   2.534   6.524   7.704 -2.3574  0.0398 -1.8016
  126OSM    H9T13466   2.645   6.395   7.665 -0.9223  0.0476 -0.8063
  126OSM   C10S13467   2.528   6.359   7.841 -0.3678 -0.3082 -0.5634
  126OSM   H10S13468   2.542   6.249   7.845  1.3172 -0.1558 -1.2305
  126OSM   H10T13469   2.426   6.376   7.881  0.2588 -0.2790  1.1276
  126OSM   C11S13470   2.623   6.429   7.939  0.0902  0.7347  0.3267
  126OSM   H11S13471   2.599   6.537   7.931 -0.4456  0.5493 -0.8699
  126OSM   H11T13472   2.729   6.410   7.912  0.4439 -0.7823  2.5284
  126OSM   C12S13473   2.598   6.376   8.080 -0.0782 -0.3916 -0.4262
  126OSM   H12S13474   2.618   6.267   8.086 -0.1942 -0.3782  0.2365
  126OSM   H12T13475   2.489   6.392   8.094 -0.2668 -1.7675 -0.1765
  126OSM   C13S13476   2.676   6.458   8.183  1.0403 -0.9861 -0.7030
  126OSM   H13S13477   2.655   6.567   8.170 -0.6253 -1.0022  1.2964
  126OSM   H13T13478   2.782   6.430   8.168  1.5908  1.9549 -3.5822
  126OSM   C14S13479   2.628   6.422   8.327  0.0415 -0.1138 -0.3239
  126OSM   H14S13480   2.615   6.312   8.327 -0.6490 -0.2124  3.7395
  126OSM   H14T13481   2.527   6.468   8.334  0.8572  2.3931 -2.9881
  126OSM   C15S13482   2.721   6.471   8.437 -0.1082 -0.0933 -0.2522
  126OSM   H15S13483   2.700   6.579   8.454 -0.5634  0.2553 -2.7300
  126OSM   H15T13484   2.823   6.464   8.393  0.3051 -2.8369  0.9350
  126OSM   C16S13485   2.721   6.379   8.559 -0.4148 -0.4329  0.0110
  126OSM   H16S13486   2.734   6.271   8.535 -1.2020 -0.5007 -0.1297
  126OSM   H16T13487   2.624   6.382   8.614 -0.5713 -0.0404 -0.2839
  126OSM   C17S13488   2.830   6.419   8.665  0.0171  1.0360 -0.6340
  126OSM   H17S13489   2.853   6.527   8.661  2.3678  0.5604 -3.4871
  126OSM   H17T13490   2.922   6.363   8.639 -0.2018  0.3412  0.0280
  126OSM   C18S13491   2.780   6.378   8.801 -0.1815  0.2277 -0.2329
  126OSM   H18S13492   2.689   6.437   8.826 -0.7367 -0.0342 -1.5867
  126OSM   H18T13493   2.864   6.400   8.871  0.3688  2.0292 -1.4035
  126OSM   H18U13494   2.750   6.271   8.802 -1.2910  0.5176 -1.0127
  126OSM    C1F13495   2.335   6.644   6.972 -0.0886  0.8728 -0.9538
  126OSM     OF13496   2.230   6.603   6.929  0.2040  0.2030  0.4120
  126OSM    C2F13497   2.357   6.785   7.014 -0.6064 -0.0347  0.3385
  126OSM    H2F13498   2.353   6.848   6.923  1.6051 -2.5654 -1.6580
  126OSM    H2G13499   2.461   6.792   7.052 -1.0883  1.4271  1.5170
  126OSM    C3F13500   2.255   6.838   7.124  0.2183 -0.6214 -0.3073
  126OSM    H3F13501   2.153   6.811   7.091 -0.0126 -0.0684 -0.0633
  126OSM    H3G13502   2.260   6.949   7.128 -0.6139 -0.5890  0.0999
  126OSM    C4F13503   2.282   6.782   7.263  0.3406  0.0130 -0.1111
  126OSM    H4F13504   2.281   6.671   7.255  1.9378 -0.1593  1.3768
  126OSM    H4G13505   2.196   6.799   7.331  0.9796 -0.1347  0.7625
  126OSM    C5F13506   2.408   6.814   7.337  0.4736  0.3028 -0.0955
  126OSM    H5F13507   2.405   6.923   7.358 -1.1000  0.2264  0.2281
  126OSM    H5G13508   2.494   6.784   7.274 -0.0368  1.4817 -1.3983
  126OSM    C6F13509   2.421   6.737   7.474 -0.3672 -0.9200  0.2773
  126OSM    H6F13510   2.528   6.749   7.499 -0.3901 -0.0224 -0.0499
  126OSM    H6G13511   2.417   6.630   7.445  1.6772 -1.4032  1.5559
  126OSM    C7F13512   2.336   6.806   7.578  0.3625  0.2512  0.1910
  126OSM    H7F13513   2.231   6.789   7.545  0.8989  0.4595 -1.7484
  126OSM    H7G13514   2.359   6.915   7.576  0.0682  0.3038 -1.5867
  126OSM    C8F13515   2.347   6.748   7.722 -0.3606 -0.3704 -0.2531
  126OSM    H8F13516   2.454   6.732   7.744 -0.2128  0.7825 -0.1012
  126OSM    H8G13517   2.321   6.640   7.714  2.1121 -1.0307 -0.0458
  126OSM    C9F13518   2.267   6.835   7.808 -0.0672 -0.1409  0.2116
  126OSM    H9F13519   2.178   6.875   7.757 -1.0313 -1.2541  0.9685
  126OSM   C10F13520   2.291   6.861   7.939  0.4047 -0.1841 -0.4014
  126OSM   H10F13521   2.224   6.934   7.987 -1.3145 -1.5214 -0.6212
  126OSM   C11F13522   2.403   6.807   8.023  0.5612 -0.4054  0.6122
  126OSM   H11F13523   2.502   6.792   7.974  1.3981 -2.4961  2.7391
  126OSM   H11G13524   2.371   6.703   8.044 -1.1575  0.1086  0.6618
  126OSM   C12F13525   2.466   6.877   8.146  0.5872  0.3893 -0.5039
  126OSM   H12F13526   2.543   6.814   8.196 -0.6041 -1.0093 -0.3608
  126OSM   H12G13527   2.385   6.904   8.217  2.0861  2.1658  0.6320
  126OSM   C13F13528   2.538   7.008   8.110  0.1694  0.8430  0.5182
  126OSM   H13F13529   2.461   7.068   8.057  2.0239  1.5801 -1.4886
  126OSM   H13G13530   2.626   6.985   8.047 -1.1372  1.1257 -1.4993
  126OSM   C14F13531   2.592   7.086   8.233 -0.5832  0.4142  0.2446
  126OSM   H14F13532   2.522   7.069   8.318  0.0992  1.3075  1.0062
  126OSM   H14G13533   2.609   7.195   8.218 -0.1807  0.5162  1.3640
  126OSM   C15F13534   2.733   7.037   8.284  0.2714  0.3283 -0.1816
  126OSM   H15F13535   2.801   7.083   8.209 -0.5700  0.5198 -0.8514
  126OSM   H15G13536   2.721   6.928   8.268  1.4182  0.3736 -1.5365
  126OSM   C16F13537   2.767   7.081   8.417  0.3876  0.1597 -0.1213
  126OSM   H16F13538   2.681   7.062   8.485  1.7733  1.1590  2.0276
  126OSM   H16G13539   2.768   7.191   8.430  1.4900  0.2341 -0.7174
  126OSM   C17F13540   2.900   7.024   8.468  0.1052  0.2072 -1.0072
  126OSM   H17F13541   2.983   7.035   8.395  1.3432  0.8612  0.4452
  126OSM   H17G13542   2.898   6.918   8.501 -0.7719  0.2069 -1.0391
  126OSM   C18F13543   2.952   7.110   8.589  0.3690  0.8139 -0.4459
  126OSM   H18F13544   2.991   7.205   8.546  1.0101  0.3895 -0.8190
  126OSM   H18G13545   3.034   7.046   8.627 -1.4318 -1.6581 -0.4750
  126OSM   H18H13546   2.868   7.123   8.661 -0.3414 -0.8910 -0.9166
  127OSM      N13547   5.434   4.093   6.111 -0.0854 -0.2367 -0.1172
  127OSM    C1513548   5.335   3.975   6.100 -0.0948 -0.4014 -0.6717
  127OSM   H15A13549   5.243   3.988   6.154 -0.5835 -0.3800 -1.4917
  127OSM   H15B13550   5.400   3.897   6.138  2.0948  2.3501  1.7517
  127OSM   H15C13551   5.321   3.949   5.996  0.0788  2.0292 -1.3773
  127OSM    C1413552   5.469   4.125   6.255 -0.4980  0.0349 -0.6800
  127OSM   H14A13553   5.502   4.226   6.271 -2.1229  0.1275  2.9189
  127OSM   H14B13554   5.541   4.053   6.291  0.6621  1.0337 -0.9447
  127OSM   H14C13555   5.383   4.113   6.319  0.6909  0.0894  0.9938
  127OSM    C1313556   5.563   4.068   6.041  0.7430 -0.6642  0.1614
  127OSM   H13A13557   5.543   4.048   5.936 -0.9570 -0.5673  0.4329
  127OSM   H13B13558   5.614   3.988   6.091 -1.1245 -1.5434  0.7500
  127OSM   H13C13559   5.629   4.152   6.055  3.6294 -3.0266  1.7790
  127OSM    C1213560   5.356   4.208   6.055 -0.4307 -0.0124 -0.5353
  127OSM   H12A13561   5.264   4.207   6.112  0.6945  2.4388  1.5579
  127OSM   H12B13562   5.331   4.173   5.956  1.3651 -3.7749  0.1837
  127OSM    C1113563   5.408   4.353   6.071  0.3632  0.3903 -0.1096
  127OSM   H11A13564   5.364   4.418   5.992  2.0256  1.4932 -0.1822
  127OSM   H11B13565   5.515   4.356   6.043  0.8056 -1.0989  1.3138
  127OSM      P13566   5.276   4.497   6.245 -0.2607  0.0215 -0.2270
  127OSM    O1313567   5.325   4.607   6.331 -0.5644 -0.2252 -0.4532
  127OSM    O1413568   5.185   4.529   6.134  0.3879  0.2784  0.3152
  127OSM    O1113569   5.197   4.398   6.337  0.1749  0.1634  0.0348
  127OSM    O1213570   5.397   4.404   6.202 -0.0291 -0.4229  0.1294
  127OSM    C1S13571   5.265   4.371   6.462  0.7159  0.6768  0.2178
  127OSM    H1S13572   5.285   4.463   6.520  2.1166  0.9340 -0.6176
  127OSM    H1T13573   5.367   4.326   6.463  0.8248  0.8713 -0.6394
  127OSM     NF13574   5.238   4.272   6.692 -0.2711  0.9169  0.1241
  127OSM    HNF13575   5.288   4.191   6.720 -1.8126  0.3314  1.2813
  127OSM    C2S13576   5.179   4.283   6.560 -0.3040 -0.6565  0.4445
  127OSM    H2S13577   5.076   4.322   6.576  0.7708  2.3072  0.8240
  127OSM    C3S13578   5.166   4.142   6.498  0.2419 -0.0400  0.4474
  127OSM    H3S13579   5.260   4.096   6.461  0.1683  0.3917 -0.2978
  127OSM     O313580   5.111   4.142   6.368 -0.2315  0.7113 -0.1625
  127OSM    HO313581   5.127   4.227   6.326 -0.7376  0.7739 -0.2376
  127OSM    C4S13582   5.089   4.038   6.580  0.6530 -0.4229 -0.0898
  127OSM    H4S13583   5.148   3.965   6.638 -2.0108 -2.1584  0.5821
  127OSM    C5S13584   4.953   4.025   6.576 -0.0978  0.5554  0.2247
  127OSM    H5S13585   4.899   4.074   6.494  0.4402 -2.6703 -2.2697
  127OSM    C6S13586   4.881   3.920   6.652  0.0251 -0.5324  0.5170
  127OSM    H6S13587   4.941   3.827   6.659  1.5469  0.3917  0.1084
  127OSM    H6T13588   4.786   3.905   6.595  2.7036 -2.6008 -3.9725
  127OSM    C7S13589   4.853   3.974   6.793  0.6592 -0.4064 -0.0501
  127OSM    H7S13590   4.759   4.035   6.788  1.2904  0.5844 -4.9582
  127OSM    H7T13591   4.930   4.045   6.831  1.2989  0.4807 -2.7180
  127OSM    C8S13592   4.828   3.861   6.903 -0.0840  0.4694  0.4666
  127OSM    H8S13593   4.897   3.779   6.872  0.5067  0.7159  1.0840
  127OSM    H8T13594   4.724   3.827   6.886  0.3310 -1.1614  0.9484
  127OSM    C9S13595   4.844   3.905   7.048 -0.6838  0.3083  0.3238
  127OSM    H9S13596   4.789   3.826   7.104 -0.2848  1.1272  1.9483
  127OSM    H9T13597   4.799   4.004   7.072  0.2548  0.1630  2.9996
  127OSM   C10S13598   4.986   3.920   7.101 -0.1665  0.2113  0.0829
  127OSM   H10S13599   5.050   3.993   7.047  1.5771 -0.4266  1.2045
  127OSM   H10T13600   5.044   3.826   7.099 -0.4513  0.0534 -1.0280
  127OSM   C11S13601   4.973   3.983   7.249  0.4942 -0.0183  0.5301
  127OSM   H11S13602   4.928   3.906   7.314 -0.5481  0.4447  0.3686
  127OSM   H11T13603   4.902   4.067   7.235 -0.2672 -0.4570  1.6784
  127OSM   C12S13604   5.112   4.025   7.298 -0.0765 -0.1018 -0.0193
  127OSM   H12S13605   5.162   4.093   7.226 -0.9087 -0.1205 -0.6202
  127OSM   H12T13606   5.176   3.934   7.303 -0.2565 -0.2154  0.2759
  127OSM   C13S13607   5.100   4.088   7.436 -0.3924  0.1737  0.1601
  127OSM   H13S13608   5.030   4.175   7.434 -0.8342 -0.1824  0.1482
  127OSM   H13T13609   5.205   4.118   7.457  0.0615 -0.5580 -1.0012
  127OSM   C14S13610   5.062   3.986   7.547  0.2055  0.2310 -0.7078
  127OSM   H14S13611   5.152   3.922   7.562  0.6996  0.1316 -3.4916
  127OSM   H14T13612   4.978   3.920   7.519 -1.7423  1.9203  0.8419
  127OSM   C15S13613   5.044   4.054   7.689  1.1789  0.7469  1.2572
  127OSM   H15S13614   4.974   4.139   7.674  1.6594  1.0181  0.4107
  127OSM   H15T13615   5.145   4.095   7.711  0.1969  2.1299  3.5128
  127OSM   C16S13616   5.005   3.953   7.798  0.1668  0.3479  0.5023
  127OSM   H16S13617   5.047   3.853   7.777  0.7271  0.9637 -1.5092
  127OSM   H16T13618   4.894   3.944   7.798  0.0445  1.5484 -0.8474
  127OSM   C17S13619   5.040   4.005   7.941 -0.2996  0.2333  0.0440
  127OSM   H17S13620   4.990   3.947   8.022  1.4044  0.3787  1.2446
  127OSM   H17T13621   5.003   4.110   7.944 -0.3758  0.2084 -0.0303
  127OSM   C18S13622   5.192   3.990   7.962 -0.3306 -0.1414 -0.2240
  127OSM   H18S13623   5.235   4.040   8.051  4.6022 -0.0608 -2.3276
  127OSM   H18T13624   5.264   4.025   7.885  0.4342 -1.4508 -0.1532
  127OSM   H18U13625   5.217   3.882   7.971 -1.9487 -0.8054 -2.7748
  127OSM    C1F13626   5.224   4.362   6.790 -0.2049 -0.2910 -0.2359
  127OSM     OF13627   5.162   4.467   6.771  0.2629 -0.0587  0.2827
  127OSM    C2F13628   5.279   4.307   6.922  0.1791  0.1639  0.6678
  127OSM    H2F13629   5.390   4.312   6.927  0.1474 -0.1719  2.9313
  127OSM    H2G13630   5.245   4.202   6.931 -0.0101  0.0586 -1.0140
  127OSM    C3F13631   5.237   4.405   7.034  0.6674 -0.1192  0.3148
  127OSM    H3F13632   5.127   4.386   7.040  0.8394 -1.0604  0.6583
  127OSM    H3G13633   5.262   4.506   6.994  0.3046 -0.1003  0.1286
  127OSM    C4F13634   5.298   4.388   7.170 -0.7496  0.5205 -0.3364
  127OSM    H4F13635   5.408   4.401   7.164 -0.4664 -0.6286  1.5287
  127OSM    H4G13636   5.281   4.283   7.202 -0.8901  0.1286 -1.6122
  127OSM    C5F13637   5.247   4.492   7.272 -0.6616  0.4055 -0.0736
  127OSM    H5F13638   5.136   4.499   7.268 -0.9071 -1.4818  2.0420
  127OSM    H5G13639   5.286   4.594   7.249  3.7400 -0.8785  0.7701
  127OSM    C6F13640   5.290   4.457   7.414 -0.1688  0.0168 -0.7945
  127OSM    H6F13641   5.398   4.454   7.439  0.0201 -0.9555 -1.6800
  127OSM    H6G13642   5.260   4.351   7.427 -0.0740  0.1123  0.2967
  127OSM    C7F13643   5.210   4.538   7.515  0.8460  0.1615  0.1641
  127OSM    H7F13644   5.104   4.518   7.489  0.1388  2.0590  1.3387
  127OSM    H7G13645   5.227   4.642   7.477 -0.0196 -0.4453 -2.0662
  127OSM    C8F13646   5.242   4.519   7.667  0.0477 -0.0796  0.0143
  127OSM    H8F13647   5.193   4.599   7.727  1.4893  0.3941  0.6037
  127OSM    H8G13648   5.352   4.535   7.679  0.2389 -1.3983  0.1472
  127OSM    C9F13649   5.207   4.384   7.728  0.6657 -0.2283  0.5408
  127OSM    H9F13650   5.255   4.307   7.666  0.2710  0.6085 -0.8669
  127OSM   C10F13651   5.144   4.361   7.842  0.0103  0.4258  0.1293
  127OSM   H10F13652   5.120   4.254   7.855  0.6506 -0.0053 -1.9255
  127OSM   C11F13653   5.095   4.442   7.960  0.3355  0.1200 -0.5993
  127OSM   H11F13654   4.993   4.416   7.995  0.7854  0.2246  0.8551
  127OSM   H11G13655   5.097   4.548   7.926  0.9354 -0.0818 -1.2110
  127OSM   C12F13656   5.191   4.408   8.077  1.0074 -0.1153  0.6684
  127OSM   H12F13657   5.298   4.391   8.051  0.5963 -2.3625  0.2080
  127OSM   H12G13658   5.160   4.308   8.115  0.2119  0.4643  1.5751
  127OSM   C13F13659   5.175   4.500   8.199  0.4647 -0.1352 -0.2579
  127OSM   H13F13660   5.212   4.601   8.173  1.3029 -0.4476 -0.3340
  127OSM   H13G13661   5.239   4.462   8.282 -1.2946 -1.2985  0.6156
  127OSM   C14F13662   5.035   4.501   8.246 -0.2456  0.6085 -0.3621
  127OSM   H14F13663   5.004   4.398   8.274 -0.7845  0.6641 -0.7401
  127OSM   H14G13664   4.979   4.534   8.156 -0.9106  2.1393  0.5720
  127OSM   C15F13665   5.011   4.583   8.368  0.5590 -1.0182 -0.0679
  127OSM   H15F13666   5.050   4.684   8.346 -0.6660 -0.2522  1.0765
  127OSM   H15G13667   5.066   4.541   8.455  2.4292  0.5835 -0.4072
  127OSM   C16F13668   4.862   4.596   8.404  0.3870 -0.8565 -0.5552
  127OSM   H16F13669   4.802   4.631   8.317  0.7444  1.8260  0.1807
  127OSM   H16G13670   4.874   4.668   8.488  2.1335 -2.8002  0.9543
  127OSM   C17F13671   4.805   4.469   8.461  0.3715 -0.1357 -0.7322
  127OSM   H17F13672   4.889   4.414   8.510  0.0789 -0.9961 -1.1706
  127OSM   H17G13673   4.779   4.408   8.372 -0.9429  1.5150 -1.5322
  127OSM   C18F13674   4.687   4.480   8.560  0.2113  0.3205  0.4658
  127OSM   H18F13675   4.662   4.379   8.601  2.1859 -0.8033 -0.9071
  127OSM   H18G13676   4.602   4.523   8.504  2.1549  2.6116 -0.9480
  127OSM   H18H13677   4.709   4.547   8.646 -0.4136  3.5539 -1.7260
  128OSM      N13678   5.838   1.143   5.924  0.5682  0.3199 -0.2870
  128OSM    C1513679   5.836   1.012   5.852 -0.2223  0.7521 -0.1765
  128OSM   H15A13680   5.743   0.966   5.879 -0.6588  2.1930  0.9176
  128OSM   H15B13681   5.926   0.960   5.882  1.3443  2.5904 -1.4293
  128OSM   H15C13682   5.828   1.024   5.745  1.5982  0.3251 -0.3989
  128OSM    C1413683   5.921   1.241   5.840  0.7965  0.4152 -0.1567
  128OSM   H14A13684   5.895   1.240   5.735 -0.2650  0.5648  0.0891
  128OSM   H14B13685   6.026   1.220   5.845  0.6495 -0.6888 -1.1823
  128OSM   H14C13686   5.908   1.342   5.876  2.6655  1.0725 -1.2221
  128OSM    C1313687   5.698   1.193   5.928  0.9390 -0.1876 -0.1667
  128OSM   H13A13688   5.629   1.119   5.964 -0.2709  1.3096  0.6804
  128OSM   H13B13689   5.666   1.211   5.826 -0.0278  0.9433  0.3155
  128OSM   H13C13690   5.698   1.278   5.994  0.0736  1.9752 -2.7465
  128OSM    C1213691   5.898   1.123   6.061 -0.4833 -0.5449 -0.5234
  128OSM   H12A13692   6.001   1.091   6.053  0.0729  0.7210  0.9992
  128OSM   H12B13693   5.846   1.039   6.105 -0.6205 -0.8575 -1.2619
  128OSM    C1113694   5.890   1.234   6.161 -0.3179 -0.6380 -0.4685
  128OSM   H11A13695   5.932   1.202   6.259 -0.4512  0.1879 -0.1340
  128OSM   H11B13696   5.784   1.256   6.187 -0.5348 -0.8079 -1.1769
  128OSM      P13697   6.105   1.380   6.131 -0.1840 -0.1353  0.3108
  128OSM    O1313698   6.179   1.254   6.113  0.2528 -0.9271  0.0286
  128OSM    O1413699   6.154   1.490   6.038 -0.1098  0.5271 -0.4133
  128OSM    O1113700   6.117   1.417   6.283 -0.1803  0.4098 -0.2561
  128OSM    O1213701   5.953   1.355   6.109  0.7400  0.2750  0.2573
  128OSM    C1S13702   6.013   1.460   6.373 -0.2640  0.4926 -0.0223
  128OSM    H1S13703   5.913   1.417   6.352  1.3003 -3.3361 -0.3059
  128OSM    H1T13704   6.003   1.568   6.346 -0.2361  0.3083 -0.7837
  128OSM     NF13705   5.935   1.422   6.603 -0.1007 -0.4406  0.0570
  128OSM    HNF13706   5.902   1.501   6.654  0.4807 -0.4843  0.5113
  128OSM    C2S13707   6.055   1.439   6.522 -0.9927  0.9515  0.8348
  128OSM    H2S13708   6.118   1.348   6.520 -1.2176  0.8106 -0.6961
  128OSM    C3S13709   6.142   1.558   6.569  0.0123 -1.3940  0.7324
  128OSM    H3S13710   6.085   1.653   6.564 -0.8647 -1.9304  0.1844
  128OSM     O313711   6.263   1.579   6.499 -0.9913  0.3684 -0.6852
  128OSM    HO313712   6.247   1.527   6.419 -2.3795  0.1600 -0.2895
  128OSM    C4S13713   6.174   1.540   6.713 -0.5910 -0.8304 -0.3478
  128OSM    H4S13714   6.083   1.545   6.775 -0.8141 -0.9494 -0.6643
  128OSM    C5S13715   6.293   1.504   6.761 -0.2612 -0.0449 -0.2232
  128OSM    H5S13716   6.375   1.466   6.698  0.9896  0.7501  0.8532
  128OSM    C6S13717   6.323   1.481   6.913  0.1584  0.6446 -0.0828
  128OSM    H6S13718   6.404   1.553   6.934  0.0522  2.0797 -3.8047
  128OSM    H6T13719   6.358   1.378   6.934 -2.3808 -0.2067  0.3639
  128OSM    C7S13720   6.217   1.492   7.024  0.2521  0.1830 -0.2263
  128OSM    H7S13721   6.126   1.434   6.998 -0.3829  0.4814  1.2045
  128OSM    H7T13722   6.185   1.598   7.036 -0.9662 -0.2310  0.3436
  128OSM    C8S13723   6.269   1.442   7.163  0.2561 -0.1688  0.3171
  128OSM    H8S13724   6.364   1.495   7.184  1.1691 -1.2581 -0.9072
  128OSM    H8T13725   6.294   1.334   7.155 -1.2242 -0.6997  2.2029
  128OSM    C9S13726   6.170   1.464   7.271  0.0116 -0.1711  0.9539
  128OSM    H9S13727   6.077   1.404   7.263  0.9024 -1.5585  0.6683
  128OSM    H9T13728   6.151   1.574   7.269  0.9341  0.0459 -2.7587
  128OSM   C10S13729   6.231   1.428   7.404 -0.4098  0.0834 -0.0580
  128OSM   H10S13730   6.329   1.482   7.406 -0.1733 -0.3329 -0.2401
  128OSM   H10T13731   6.245   1.319   7.416 -0.9061  0.1088  0.7671
  128OSM   C11S13732   6.147   1.478   7.519 -0.0527 -0.7833 -0.3110
  128OSM   H11S13733   6.053   1.421   7.530  0.4355 -1.4818  0.3781
  128OSM   H11T13734   6.121   1.583   7.493  1.0169 -0.6144 -0.7791
  128OSM   C12S13735   6.228   1.464   7.654 -0.0732  0.2760 -0.2183
  128OSM   H12S13736   6.313   1.535   7.646  2.2351 -2.4588 -1.7226
  128OSM   H12T13737   6.266   1.362   7.674 -2.9282 -0.7948  0.1191
  128OSM   C13S13738   6.143   1.503   7.780 -0.5619 -0.5074  0.4547
  128OSM   H13S13739   6.076   1.416   7.798 -0.8125 -0.0439  1.9102
  128OSM   H13T13740   6.093   1.598   7.750 -0.0402 -0.5031 -0.4196
  128OSM   C14S13741   6.242   1.517   7.904 -0.0511 -0.4238 -0.1911
  128OSM   H14S13742   6.305   1.608   7.894  1.0526 -1.1429 -0.0212
  128OSM   H14T13743   6.314   1.432   7.898  0.8667  0.2272  1.1674
  128OSM   C15S13744   6.167   1.528   8.034  0.1492 -0.1287  0.0134
  128OSM   H15S13745   6.191   1.443   8.102 -0.5253  0.5798  1.1663
  128OSM   H15T13746   6.057   1.520   8.021  0.2543 -1.8998  0.0029
  128OSM   C16S13747   6.211   1.652   8.115 -0.1964 -0.1023  0.5381
  128OSM   H16S13748   6.179   1.739   8.054 -1.3804 -0.7110  0.2599
  128OSM   H16T13749   6.322   1.650   8.121 -0.1955 -0.0754  0.5215
  128OSM   C17S13750   6.155   1.668   8.252 -0.5819 -0.8388 -0.2560
  128OSM   H17S13751   6.178   1.571   8.302  2.1888 -1.5154 -2.6051
  128OSM   H17T13752   6.044   1.670   8.252 -0.6307 -2.1968 -0.1660
  128OSM   C18S13753   6.219   1.797   8.321  0.1718  0.0271 -0.1129
  128OSM   H18S13754   6.176   1.808   8.423  1.0490  1.2605  0.1488
  128OSM   H18T13755   6.189   1.889   8.265 -0.4216  1.8129  2.8709
  128OSM   H18U13756   6.329   1.784   8.329  0.0544 -0.8427  0.1349
  128OSM    C1F13757   5.859   1.315   6.606 -0.5574 -0.0383  0.9458
  128OSM     OF13758   5.886   1.226   6.524  0.3638  0.5807 -0.3953
  128OSM    C2F13759   5.739   1.311   6.701  0.0681 -0.6967  0.1873
  128OSM    H2F13760   5.669   1.394   6.677  2.4087  1.6807  1.0477
  128OSM    H2G13761   5.795   1.325   6.797 -0.9788  1.2422  0.5537
  128OSM    C3F13762   5.657   1.175   6.718 -0.8302  0.2265 -0.8607
  128OSM    H3F13763   5.733   1.096   6.703  1.0768  2.1709 -1.9532
  128OSM    H3G13764   5.578   1.165   6.639  0.8986 -3.3950 -2.3492
  128OSM    C4F13765   5.569   1.161   6.848  0.0725 -0.1357 -0.0711
  128OSM    H4F13766   5.506   1.072   6.829  0.1863 -0.6701  1.8238
  128OSM    H4G13767   5.497   1.246   6.858 -0.9611 -1.0880  0.8465
  128OSM    C5F13768   5.646   1.154   6.976 -0.8240 -0.0669  0.3895
  128OSM    H5F13769   5.697   1.252   6.990  1.5759 -1.3556  1.1623
  128OSM    H5G13770   5.726   1.079   6.958 -1.8093 -0.9785 -0.2806
  128OSM    C6F13771   5.556   1.103   7.090 -0.5029 -0.4406 -0.7660
  128OSM    H6F13772   5.508   1.009   7.055  1.3632 -1.4074 -0.8249
  128OSM    H6G13773   5.474   1.173   7.118 -0.1845 -0.1351 -0.5964
  128OSM    C7F13774   5.633   1.063   7.215  0.2019 -0.2228 -0.3711
  128OSM    H7F13775   5.732   1.023   7.183 -0.5928 -0.7299 -2.3750
  128OSM    H7G13776   5.582   0.979   7.265 -0.9793 -0.1788 -1.4664
  128OSM    C8F13777   5.655   1.177   7.315 -0.9023  0.1567 -0.3396
  128OSM    H8F13778   5.558   1.228   7.332 -0.5600  0.8415 -0.4162
  128OSM    H8G13779   5.727   1.249   7.271  0.0229 -0.7719 -0.3781
  128OSM    C9F13780   5.720   1.130   7.443  0.0626 -0.3184 -0.3584
  128OSM    H9F13781   5.824   1.094   7.434  0.5449  1.2938 -1.9532
  128OSM   C10F13782   5.664   1.126   7.563  0.0675 -0.4741 -0.1331
  128OSM   H10F13783   5.720   1.091   7.651 -0.6037  3.0900  1.9389
  128OSM   C11F13784   5.528   1.176   7.613 -0.0530  0.1892  0.4492
  128OSM   H11F13785   5.488   1.112   7.694  1.8440 -0.5577  0.8503
  128OSM   H11G13786   5.459   1.170   7.526  1.9501 -3.8878 -1.0938
  128OSM   C12F13787   5.538   1.314   7.686 -0.3627  0.0873  0.9294
  128OSM   H12F13788   5.439   1.335   7.730 -1.1107  1.0689 -1.0997
  128OSM   H12G13789   5.545   1.400   7.616  1.6743  0.2593  1.2659
  128OSM   C13F13790   5.642   1.317   7.795 -0.5186 -0.1980  0.8359
  128OSM   H13F13791   5.741   1.325   7.746 -1.0693  0.1711 -0.2540
  128OSM   H13G13792   5.645   1.222   7.854  2.2188 -0.5245  0.2530
  128OSM   C14F13793   5.615   1.429   7.895 -0.2794 -0.5684 -0.5965
  128OSM   H14F13794   5.515   1.419   7.944 -1.1637 -1.4967 -2.5017
  128OSM   H14G13795   5.630   1.522   7.836  1.7505 -1.7664 -2.1056
  128OSM   C15F13796   5.722   1.423   8.014 -0.1704 -0.1058 -0.0152
  128OSM   H15F13797   5.742   1.526   8.050 -0.9566 -0.3454  1.1550
  128OSM   H15G13798   5.821   1.384   7.982 -0.3704 -0.6044 -0.0300
  128OSM   C16F13799   5.667   1.343   8.137  0.9801  0.6403 -0.4985
  128OSM   H16F13800   5.629   1.241   8.113  1.1998  0.1112  1.2665
  128OSM   H16G13801   5.575   1.394   8.171  2.3890  1.1571  3.0125
  128OSM   C17F13802   5.759   1.348   8.257  0.2800 -0.0501 -0.0234
  128OSM   H17F13803   5.804   1.449   8.251  1.2740 -0.5101 -0.4457
  128OSM   H17G13804   5.839   1.272   8.258  2.8813  2.5205  1.8503
  128OSM   C18F13805   5.685   1.360   8.395 -0.2411 -0.1383  0.1595
  128OSM   H18F13806   5.755   1.389   8.477 -0.5779  0.1475  0.3463
  128OSM   H18G13807   5.640   1.261   8.414 -0.4205 -0.0107  0.4080
  128OSM   H18H13808   5.605   1.437   8.385 -0.0853  0.0926  0.6344
  129OSM      N13809   4.798   4.514   6.181 -0.0805  0.2480  0.0320
  129OSM    C1513810   4.787   4.623   6.289 -0.5952 -0.2560 -0.1899
  129OSM   H15A13811   4.750   4.581   6.381 -2.1177 -1.6183 -1.3555
  129OSM   H15B13812   4.716   4.693   6.247  0.0778 -0.7235 -2.2493
  129OSM   H15C13813   4.874   4.681   6.313 -1.1381  0.0949  1.0057
  129OSM    C1413814   4.828   4.581   6.059  0.5480  0.1561 -0.1382
  129OSM   H14A13815   4.811   4.521   5.971 -0.8650  1.5751 -0.8880
  129OSM   H14B13816   4.933   4.601   6.048  1.0924 -2.3313 -0.1896
  129OSM   H14C13817   4.769   4.670   6.043  2.8031  1.3203 -2.5807
  129OSM    C1313818   4.906   4.417   6.225  0.7188 -0.0221  0.1264
  129OSM   H13A13819   5.001   4.467   6.242  2.0010 -2.3060  0.1159
  129OSM   H13B13820   4.925   4.343   6.149  0.4203  0.0236  0.0049
  129OSM   H13C13821   4.885   4.364   6.316  0.6877 -1.7642 -0.8429
  129OSM    C1213822   4.672   4.423   6.176 -0.7471 -0.0347  0.4059
  129OSM   H12A13823   4.582   4.482   6.165 -1.1933 -0.9481 -1.4251
  129OSM   H12B13824   4.674   4.369   6.269 -1.8038  0.7082  0.8769
  129OSM    C1113825   4.666   4.304   6.062  0.4721 -0.1605 -0.5875
  129OSM   H11A13826   4.717   4.341   5.971 -1.0287 -2.0082 -2.2703
  129OSM   H11B13827   4.561   4.275   6.037 -0.2055  1.6962 -0.0595
  129OSM      P13828   4.662   4.093   6.212  0.7396  0.1677  0.1954
  129OSM    O1313829   4.519   4.093   6.182  0.2319 -0.3180 -0.0318
  129OSM    O1413830   4.738   3.965   6.206  0.0507 -0.4601  0.0331
  129OSM    O1113831   4.687   4.167   6.355  0.4962 -0.0939 -0.2931
  129OSM    O1213832   4.737   4.186   6.111  0.5694 -0.1952 -0.0021
  129OSM    C1S13833   4.575   4.213   6.432 -0.7319 -0.3819  0.0930
  129OSM    H1S13834   4.485   4.148   6.427 -1.0990  0.1600 -0.4558
  129OSM    H1T13835   4.538   4.305   6.381 -0.8394  0.3122  1.3863
  129OSM     NF13836   4.472   4.258   6.645  0.5760  0.1287 -0.3616
  129OSM    HNF13837   4.438   4.347   6.675 -1.3749 -1.1005  1.3202
  129OSM    C2S13838   4.606   4.246   6.582  0.6876  0.1194 -0.0551
  129OSM    H2S13839   4.668   4.166   6.628  0.5847  0.7583  1.2505
  129OSM    C3S13840   4.696   4.373   6.593  0.6187 -0.8561  0.0063
  129OSM    H3S13841   4.644   4.458   6.542  0.0459  0.2872  2.3693
  129OSM     O313842   4.824   4.362   6.529  0.0513 -0.1897 -0.1587
  129OSM    HO313843   4.818   4.269   6.506 -0.7508 -0.5240  1.2938
  129OSM    C4S13844   4.705   4.424   6.735 -0.3126  0.2580 -0.5864
  129OSM    H4S13845   4.619   4.485   6.767  1.8852  2.0267  2.5985
  129OSM    C5S13846   4.806   4.402   6.815 -0.3277 -0.5246  0.0786
  129OSM    H5S13847   4.885   4.329   6.791  0.7776  0.0080  1.9363
  129OSM    C6S13848   4.810   4.444   6.959  0.6047  0.0513  0.3937
  129OSM    H6S13849   4.737   4.527   6.970  0.9164  0.0871  3.0002
  129OSM    H6T13850   4.913   4.469   6.990  1.2336 -0.7588 -0.9642
  129OSM    C7S13851   4.770   4.323   7.047  0.6682 -0.3078 -0.0616
  129OSM    H7S13852   4.830   4.235   7.015  1.8191  1.0415 -1.7739
  129OSM    H7T13853   4.663   4.302   7.026  0.5903  0.1042 -0.0838
  129OSM    C8S13854   4.786   4.352   7.197  0.1082  1.3693 -0.1154
  129OSM    H8S13855   4.894   4.369   7.216  0.8088 -2.3277 -0.0939
  129OSM    H8T13856   4.762   4.265   7.262  0.2703  0.3986 -1.3167
  129OSM    C9S13857   4.699   4.474   7.230 -0.3375  0.5615  0.5133
  129OSM    H9S13858   4.596   4.460   7.191 -0.3012  1.2687  0.1427
  129OSM    H9T13859   4.749   4.571   7.211 -1.9721  1.3075 -0.1767
  129OSM   C10S13860   4.671   4.474   7.383  0.6506 -0.5860  0.0856
  129OSM   H10S13861   4.637   4.373   7.413  0.8588 -0.2209  1.6273
  129OSM   H10T13862   4.581   4.539   7.395 -0.9030 -2.3306 -1.4277
  129OSM   C11S13863   4.801   4.515   7.455 -0.1131 -0.3284  0.8787
  129OSM   H11S13864   4.858   4.601   7.414 -1.1954  0.3457  0.7314
  129OSM   H11T13865   4.875   4.434   7.443 -0.3805 -0.4262 -0.1444
  129OSM   C12S13866   4.785   4.535   7.604  0.0320  0.2564 -0.6161
  129OSM   H12S13867   4.886   4.542   7.650 -0.6120 -1.2513  1.1546
  129OSM   H12T13868   4.740   4.439   7.635 -0.7885  0.8468  0.0601
  129OSM   C13S13869   4.696   4.654   7.648  0.0669 -0.3174  0.1783
  129OSM   H13S13870   4.617   4.653   7.569  0.2993 -3.6446 -0.1683
  129OSM   H13T13871   4.742   4.755   7.650 -0.9688  0.2404 -1.4647
  129OSM   C14S13872   4.639   4.617   7.777 -0.2295 -0.0368 -0.9166
  129OSM   H14S13873   4.586   4.520   7.763  0.0807  0.0049 -2.5368
  129OSM   H14T13874   4.571   4.701   7.806  0.6489  0.9018 -1.5234
  129OSM   C15S13875   4.749   4.614   7.888 -0.4243  0.0923 -0.4521
  129OSM   H15S13876   4.780   4.716   7.920 -0.7504  0.3054 -0.8112
  129OSM   H15T13877   4.831   4.541   7.870 -0.6314 -0.3447  0.3512
  129OSM   C16S13878   4.685   4.545   8.011  0.0639 -0.0437  0.1274
  129OSM   H16S13879   4.757   4.517   8.091 -1.3295  0.4252  1.5803
  129OSM   H16T13880   4.624   4.458   7.979  0.4919 -0.3194  0.0517
  129OSM   C17S13881   4.576   4.639   8.082 -0.1808  0.5145 -0.3273
  129OSM   H17S13882   4.504   4.665   8.001 -2.0084 -0.2883  0.9965
  129OSM   H17T13883   4.627   4.731   8.117  0.7711  0.1438 -0.7056
  129OSM   C18S13884   4.505   4.557   8.194 -0.0804 -0.1719  0.0630
  129OSM   H18S13885   4.579   4.502   8.255 -1.7666 -1.0216  1.4085
  129OSM   H18T13886   4.428   4.489   8.154  1.1899 -2.4100  1.2463
  129OSM   H18U13887   4.454   4.634   8.256 -2.0962 -0.7870 -0.7620
  129OSM    C1F13888   4.420   4.143   6.695 -0.2509  0.1558  0.4110
  129OSM     OF13889   4.493   4.043   6.692  0.2705 -0.1247  0.2579
  129OSM    C2F13890   4.287   4.143   6.762 -0.4853 -0.1464 -0.4400
  129OSM    H2F13891   4.207   4.092   6.705 -3.3686  1.6655  1.6810
  129OSM    H2G13892   4.262   4.251   6.772  0.9453  0.2471 -0.9284
  129OSM    C3F13893   4.288   4.074   6.898 -0.5998  0.5475 -1.0639
  129OSM    H3F13894   4.327   3.970   6.907 -0.8112  0.5274 -0.3427
  129OSM    H3G13895   4.182   4.054   6.926 -0.0526 -3.1180 -1.0940
  129OSM    C4F13896   4.365   4.145   7.017  0.0916 -0.6174 -0.0179
  129OSM    H4F13897   4.325   4.246   7.039 -1.5098 -1.1025 -0.5432
  129OSM    H4G13898   4.469   4.150   6.978 -0.2858 -2.3837 -1.3918
  129OSM    C5F13899   4.368   4.081   7.154  0.1813  0.3350  0.0996
  129OSM    H5F13900   4.414   3.980   7.163 -0.9503 -0.0588  2.2367
  129OSM    H5G13901   4.258   4.073   7.167  0.2301  1.5220  1.4267
  129OSM    C6F13902   4.439   4.165   7.262 -0.1486 -0.2209  0.2158
  129OSM    H6F13903   4.414   4.272   7.244 -0.1117 -0.3309 -0.4858
  129OSM    H6G13904   4.545   4.147   7.237 -0.3949  1.2010 -2.2057
  129OSM    C7F13905   4.405   4.124   7.404 -0.5327  0.2496  0.0720
  129OSM    H7F13906   4.297   4.148   7.419 -1.1653 -0.9256 -2.0735
  129OSM    H7G13907   4.470   4.184   7.471 -2.5613  2.6613  0.0292
  129OSM    C8F13908   4.412   3.979   7.436 -0.2829  0.0908 -0.4470
  129OSM    H8F13909   4.345   3.916   7.374 -1.0767  0.4917 -0.0060
  129OSM    H8G13910   4.374   3.967   7.540  0.1691  4.3311  0.3886
  129OSM    C9F13911   4.557   3.942   7.443 -0.6920  0.0331 -0.1741
  129OSM    H9F13912   4.603   3.927   7.344  0.2359  0.4774  0.1765
  129OSM   C10F13913   4.642   3.959   7.548  0.7838  1.1356  0.8765
  129OSM   H10F13914   4.751   3.947   7.538  0.7622  1.1933  0.5758
  129OSM   C11F13915   4.593   3.992   7.689 -0.1236  0.1441  0.6736
  129OSM   H11F13916   4.653   3.928   7.757  0.7847  0.9923  0.6937
  129OSM   H11G13917   4.492   3.954   7.716 -1.0917 -0.0647 -2.7628
  129OSM   C12F13918   4.610   4.142   7.722 -0.0026  1.0170 -0.6041
  129OSM   H12F13919   4.539   4.201   7.661 -0.2060 -0.4815 -1.8796
  129OSM   H12G13920   4.716   4.171   7.705 -0.4054  2.9667 -0.0711
  129OSM   C13F13921   4.582   4.176   7.875  0.8755 -0.1284 -0.0037
  129OSM   H13F13922   4.489   4.129   7.913 -0.4205 -0.3290 -3.0699
  129OSM   H13G13923   4.569   4.286   7.870  0.9554 -0.1612 -2.1697
  129OSM   C14F13924   4.695   4.134   7.962 -0.5478 -0.0077 -0.5115
  129OSM   H14F13925   4.784   4.200   7.953 -0.4653 -0.0692 -0.1506
  129OSM   H14G13926   4.737   4.037   7.927  1.8146 -0.6000  3.3812
  129OSM   C15F13927   4.671   4.123   8.116  0.1634 -0.1576 -0.2888
  129OSM   H15F13928   4.605   4.035   8.128  0.5497 -0.2418  1.4158
  129OSM   H15G13929   4.612   4.209   8.152 -1.2040 -2.2310  2.7923
  129OSM   C16F13930   4.796   4.114   8.203 -0.5636  0.6264  1.3168
  129OSM   H16F13931   4.865   4.199   8.182 -0.5769  0.6921  1.5435
  129OSM   H16G13932   4.849   4.021   8.172  0.6119  1.6228  0.1555
  129OSM   C17F13933   4.761   4.112   8.351  0.1370 -0.8366  0.3441
  129OSM   H17F13934   4.663   4.064   8.375 -2.1707  3.2379  0.0702
  129OSM   H17G13935   4.743   4.219   8.372 -0.1371 -0.3796 -2.0261
  129OSM   C18F13936   4.879   4.073   8.431  0.5742  0.5605  0.6014
  129OSM   H18F13937   4.973   4.040   8.383 -1.3090 -0.6240 -2.5279
  129OSM   H18G13938   4.848   3.989   8.497  0.6308  1.2731  1.5635
  129OSM   H18H13939   4.892   4.162   8.497  4.9604 -1.0187  2.2119
  130OSM      N13940   5.967   0.223   6.013 -0.3722  0.5634  0.2684
  130OSM    C1513941   5.963   0.183   6.157  0.3457 -0.0282  0.0094
  130OSM   H15A13942   5.993   0.080   6.167 -1.1870 -0.3673  1.4568
  130OSM   H15B13943   5.862   0.179   6.193  0.4142 -0.5561  0.1472
  130OSM   H15C13944   6.021   0.242   6.226  0.2528  0.9874 -0.7512
  130OSM    C1413945   5.893   0.126   5.933 -0.7346  0.0406  0.0982
  130OSM   H14A13946   5.900   0.148   5.828 -0.9789 -0.1371  0.0426
  130OSM   H14B13947   5.790   0.111   5.964 -1.2352  3.0526  0.1872
  130OSM   H14C13948   5.944   0.032   5.949 -0.7814 -0.0103 -0.0532
  130OSM    C1313949   5.909   0.366   6.007  0.2791 -0.1378 -0.1530
  130OSM   H13A13950   5.811   0.384   6.048  1.0598 -0.9013  2.2772
  130OSM   H13B13951   5.887   0.394   5.905 -3.7670 -0.0124  0.6095
  130OSM   H13C13952   5.970   0.433   6.065  2.0134 -1.3935 -0.4440
  130OSM    C1213953   6.112   0.222   5.966  0.2500  0.1108 -0.0513
  130OSM   H12A13954   6.114   0.276   5.872 -2.7753  2.5522  1.0957
  130OSM   H12B13955   6.137   0.118   5.952 -0.7108 -0.3792  1.5380
  130OSM    C1113956   6.215   0.298   6.055 -0.1997 -0.1834 -0.2684
  130OSM   H11A13957   6.315   0.289   6.007  0.1244 -0.0446  0.3710
  130OSM   H11B13958   6.221   0.239   6.149  0.6687  0.9363  0.4023
  130OSM      P13959   6.194   0.493   6.231 -0.4468 -0.0345  0.2888
  130OSM    O1313960   6.124   0.623   6.226 -0.8656  0.5470 -0.5853
  130OSM    O1413961   6.147   0.393   6.330 -0.1237 -0.4984  0.6141
  130OSM    O1113962   6.352   0.512   6.251  0.1293 -0.4832 -0.9549
  130OSM    O1213963   6.185   0.433   6.085 -0.0692  0.0419  0.0892
  130OSM    C1S13964   6.406   0.625   6.321  0.0412 -0.5752  0.5793
  130OSM    H1S13965   6.358   0.720   6.289 -0.0970 -1.0644 -0.7279
  130OSM    H1T13966   6.513   0.639   6.296 -0.0986  1.7619  0.9975
  130OSM     NF13967   6.397   0.744   6.538 -0.5277  0.2538 -0.4176
  130OSM    HNF13968   6.478   0.766   6.593  0.0657 -0.0575 -1.1489
  130OSM    C2S13969   6.390   0.617   6.476 -0.3595  0.3671  0.0353
  130OSM    H2S13970   6.286   0.583   6.499 -1.0072  0.1994 -2.7824
  130OSM    C3S13971   6.478   0.500   6.543 -0.2031 -0.2657  0.2025
  130OSM    H3S13972   6.586   0.513   6.519 -0.0216 -1.6079  0.2375
  130OSM     O313973   6.439   0.378   6.478 -0.2002  0.3829  0.2723
  130OSM    HO313974   6.397   0.415   6.401 -1.4251  1.7007  1.5030
  130OSM    C4S13975   6.446   0.477   6.681  0.6589  0.2927 -0.7231
  130OSM    H4S13976   6.345   0.439   6.702  1.1318 -0.5243  0.1432
  130OSM    C5S13977   6.535   0.518   6.777 -0.0280 -0.1800  0.3124
  130OSM    H5S13978   6.623   0.576   6.744 -0.4885  0.9111  0.9817
  130OSM    C6S13979   6.516   0.501   6.923 -0.3086  0.5175 -0.0343
  130OSM    H6S13980   6.602   0.440   6.959  0.2974  2.0315  1.2012
  130OSM    H6T13981   6.424   0.443   6.945  0.3494  0.1853  2.0242
  130OSM    C7S13982   6.513   0.632   7.010  0.3646  0.4874  0.5982
  130OSM    H7S13983   6.422   0.685   6.972  0.1761  1.2626  2.0499
  130OSM    H7T13984   6.604   0.690   6.985  0.6324 -0.3876 -0.5392
  130OSM    C8S13985   6.519   0.616   7.160 -0.4849  0.2315 -0.9341
  130OSM    H8S13986   6.623   0.582   7.181 -0.9136  0.1082  1.2471
  130OSM    H8T13987   6.446   0.540   7.195 -2.1523  1.7732 -0.8988
  130OSM    C9S13988   6.494   0.747   7.237  0.5533  0.8044  0.0705
  130OSM    H9S13989   6.390   0.784   7.230  1.4932  3.3234 -3.0847
  130OSM    H9T13990   6.550   0.827   7.184 -0.1446 -0.1232 -2.1999
  130OSM   C10S13991   6.543   0.728   7.381  0.3207 -0.3783 -0.1822
  130OSM   H10S13992   6.585   0.818   7.432 -0.9468 -1.1333  2.3832
  130OSM   H10T13993   6.622   0.651   7.383 -0.4795 -1.2093  0.2655
  130OSM   C11S13994   6.423   0.686   7.467  0.1514 -0.3071 -0.6831
  130OSM   H11S13995   6.382   0.597   7.415  0.8867  0.0136 -1.8547
  130OSM   H11T13996   6.355   0.774   7.478 -0.2824 -0.4966 -1.7457
  130OSM   C12S13997   6.469   0.638   7.611 -0.0115 -0.5882 -0.2807
  130OSM   H12S13998   6.553   0.567   7.595  3.1509  2.9812 -0.7933
  130OSM   H12T13999   6.376   0.594   7.654  1.0777 -1.9854  0.7470
  130OSM   C13S14000   6.520   0.757   7.691  0.2606  0.4281  0.1547
  130OSM   H13S14001   6.450   0.843   7.686  0.1069  0.3376  0.6770
  130OSM   H13T14002   6.614   0.790   7.642  0.0052  1.2868  0.2407
  130OSM   C14S14003   6.540   0.721   7.836 -0.3023  0.0360  0.0761
  130OSM   H14S14004   6.617   0.642   7.845 -0.4183 -0.0779  0.0713
  130OSM   H14T14005   6.442   0.683   7.872  0.4686  0.0457  2.3226
  130OSM   C15S14006   6.582   0.848   7.910  0.4435  0.3414  0.4932
  130OSM   H15S14007   6.493   0.912   7.892  0.3194 -0.1243 -0.6001
  130OSM   H15T14008   6.671   0.894   7.862 -1.0795  1.3511 -1.5221
  130OSM   C16S14009   6.611   0.827   8.062 -0.5194  0.9099  0.5738
  130OSM   H16S14010   6.713   0.786   8.080  0.2882  2.9560  1.0067
  130OSM   H16T14011   6.532   0.759   8.098  0.0679 -0.6105 -0.8458
  130OSM   C17S14012   6.615   0.964   8.138 -0.4786  0.7101  0.0826
  130OSM   H17S14013   6.511   1.003   8.134  0.0418  2.1763  0.2358
  130OSM   H17T14014   6.678   1.020   8.067  0.5931 -1.8341 -1.0853
  130OSM   C18S14015   6.674   0.949   8.281  0.4279 -0.4209  0.0552
  130OSM   H18S14016   6.601   0.877   8.324  1.1401 -1.6776 -0.7720
  130OSM   H18T14017   6.677   1.048   8.332 -1.4356 -0.5338  0.4601
  130OSM   H18U14018   6.773   0.898   8.277  0.4570 -0.2834 -2.0841
  130OSM    C1F14019   6.304   0.840   6.535  0.2503 -0.3433  0.2702
  130OSM     OF14020   6.199   0.821   6.470  0.0249  0.0421  0.5398
  130OSM    C2F14021   6.331   0.967   6.612  0.1089  0.7127  0.1939
  130OSM    H2F14022   6.416   1.018   6.562  1.8522 -0.0332  2.2149
  130OSM    H2G14023   6.367   0.939   6.713  1.2637  0.3960 -0.2946
  130OSM    C3F14024   6.215   1.063   6.632  0.1407 -0.2866  0.2130
  130OSM    H3F14025   6.119   1.009   6.641 -0.2444  0.6892  3.0319
  130OSM    H3G14026   6.193   1.125   6.542 -1.7066 -0.6423  0.3743
  130OSM    C4F14027   6.250   1.151   6.750 -0.2386 -0.5189  0.8030
  130OSM    H4F14028   6.196   1.248   6.747  0.8200  0.0879  0.9053
  130OSM    H4G14029   6.357   1.177   6.738 -0.5515  0.2828 -0.5439
  130OSM    C5F14030   6.225   1.098   6.904  0.7647 -0.6578 -0.1150
  130OSM    H5F14031   6.271   1.174   6.970  0.0647  1.3754 -1.8611
  130OSM    H5G14032   6.278   1.001   6.915  2.6041  0.3706  0.4033
  130OSM    C6F14033   6.081   1.080   6.927  0.4178 -0.2311 -0.3570
  130OSM    H6F14034   6.028   1.041   6.838  0.0253 -0.2858 -0.1051
  130OSM    H6G14035   6.042   1.182   6.950  0.9595 -0.5218  2.2538
  130OSM    C7F14036   6.049   0.976   7.035 -0.2498  0.0168 -0.0870
  130OSM    H7F14037   6.126   0.896   7.040  0.0908  0.2905 -0.8139
  130OSM    H7G14038   5.949   0.932   7.014 -0.9922  2.0805 -1.2410
  130OSM    C8F14039   6.034   1.042   7.174 -0.0284  0.2725 -0.1793
  130OSM    H8F14040   5.992   0.957   7.232  1.4212 -0.0319  0.4723
  130OSM    H8G14041   5.961   1.125   7.186 -1.6616 -1.2360  0.8702
  130OSM    C9F14042   6.167   1.066   7.238  0.0746 -0.3911  0.7239
  130OSM    H9F14043   6.236   1.127   7.177 -0.8287  1.1298  1.1669
  130OSM   C10F14044   6.206   1.030   7.360 -0.0920 -0.4423  0.2851
  130OSM   H10F14045   6.314   1.032   7.380 -0.2659 -0.6321  1.3041
  130OSM   C11F14046   6.121   0.959   7.462 -0.0922 -0.5906 -0.7012
  130OSM   H11F14047   6.147   0.851   7.452  0.2673 -0.4163 -1.8084
  130OSM   H11G14048   6.015   0.980   7.437 -0.1255  0.3593  0.1606
  130OSM   C12F14049   6.149   0.984   7.614  0.3252  0.6290  0.1763
  130OSM   H12F14050   6.257   0.995   7.639  0.0684 -0.4068  1.9397
  130OSM   H12G14051   6.102   0.896   7.663 -0.3403  1.5535  1.2491
  130OSM   C13F14052   6.068   1.095   7.670 -0.2655 -0.2079 -0.1635
  130OSM   H13F14053   5.965   1.089   7.629  0.2617 -2.6168 -1.3287
  130OSM   H13G14054   6.119   1.189   7.641  1.0410 -0.2796  1.6901
  130OSM   C14F14055   6.049   1.080   7.819 -0.2053 -0.4587  0.7924
  130OSM   H14F14056   6.034   0.972   7.840 -1.6774 -0.4705 -0.2405
  130OSM   H14G14057   5.965   1.146   7.849  1.0644  1.1203  1.0189
  130OSM   C15F14058   6.171   1.118   7.903  0.6847  1.3992 -0.5227
  130OSM   H15F14059   6.224   1.206   7.860 -0.9725  2.0566 -1.2964
  130OSM   H15G14060   6.249   1.040   7.913 -0.2227  0.7557  2.6336
  130OSM   C16F14061   6.127   1.157   8.048  0.1926 -0.2902 -0.4520
  130OSM   H16F14062   6.063   1.073   8.084  1.6654 -0.1253  2.9096
  130OSM   H16G14063   6.056   1.242   8.049  2.1666  1.4374 -0.9169
  130OSM   C17F14064   6.241   1.177   8.149  0.2050 -0.0619 -0.2476
  130OSM   H17F14065   6.315   1.252   8.112  0.8685 -0.4673  0.2264
  130OSM   H17G14066   6.289   1.077   8.160 -0.9110 -0.6593 -0.6760
  130OSM   C18F14067   6.193   1.217   8.291 -0.0680  0.6529  0.1338
  130OSM   H18F14068   6.175   1.120   8.341  1.0197  0.2132 -0.2786
  130OSM   H18G14069   6.096   1.271   8.289 -2.3762 -3.1670 -0.2702
  130OSM   H18H14070   6.275   1.272   8.343 -0.8182  0.1471  1.9026
  131OSM      N14071   4.744   2.370   6.027  0.0316 -0.2880 -0.1491
  131OSM    C1514072   4.780   2.229   6.028  0.2759  0.0322 -0.0018
  131OSM   H15A14073   4.883   2.217   6.000  0.9079 -1.4522  2.6069
  131OSM   H15B14074   4.721   2.173   5.957 -1.8198  0.5248  1.2545
  131OSM   H15C14075   4.755   2.185   6.124 -2.2482  0.0904 -0.5733
  131OSM    C1414076   4.783   2.439   5.901 -0.6936 -0.1716 -0.1164
  131OSM   H14A14077   4.745   2.395   5.811  1.9529 -0.2705 -1.2884
  131OSM   H14B14078   4.890   2.447   5.889 -0.7196 -1.2880 -1.2757
  131OSM   H14C14079   4.740   2.538   5.904 -0.3956 -0.0444  2.0008
  131OSM    C1314080   4.588   2.382   6.033 -0.5721  0.5645 -0.2846
  131OSM   H13A14081   4.552   2.349   5.937 -1.4164 -1.5450  0.6713
  131OSM   H13B14082   4.550   2.483   6.037 -3.0826 -0.3304  0.1150
  131OSM   H13C14083   4.542   2.322   6.111  1.3384  0.1876  0.6152
  131OSM    C1214084   4.790   2.450   6.150  1.1353  0.6513  0.4591
  131OSM   H12A14085   4.735   2.415   6.236  0.5907 -0.9014 -0.4847
  131OSM   H12B14086   4.763   2.553   6.131  1.1513  0.2340 -2.2405
  131OSM    C1114087   4.942   2.454   6.175  0.3511  0.0973  0.6190
  131OSM   H11A14088   4.971   2.347   6.180 -0.9093 -0.3385 -0.8662
  131OSM   H11B14089   4.961   2.499   6.275  0.0153  0.1462  0.6604
  131OSM      P14090   5.014   2.685   6.075 -0.4406 -0.5412  0.4384
  131OSM    O1314091   5.091   2.737   5.960 -0.2617 -0.1185  0.0084
  131OSM    O1414092   4.881   2.734   6.092  0.2234 -0.2269 -0.5330
  131OSM    O1114093   5.106   2.710   6.199  0.0651 -0.0476  0.1482
  131OSM    O1214094   5.009   2.527   6.077  0.2217  0.1778  0.1711
  131OSM    C1S14095   5.073   2.799   6.306  0.5163  0.6423 -0.2068
  131OSM    H1S14096   4.963   2.808   6.317  0.6764  2.2566  0.2765
  131OSM    H1T14097   5.107   2.904   6.294 -2.2547  1.7439  0.9398
  131OSM     NF14098   5.090   2.824   6.553  0.1200  0.2056  0.0259
  131OSM    HNF14099   5.148   2.883   6.609 -1.0571  0.5076  1.0020
  131OSM    C2S14100   5.145   2.757   6.440 -0.3648  0.0626 -0.2279
  131OSM    H2S14101   5.133   2.649   6.464 -0.0131  0.0906  0.0941
  131OSM    C3S14102   5.299   2.766   6.423 -0.9252  0.3674  0.3819
  131OSM    H3S14103   5.339   2.868   6.407 -2.0704  0.8109  0.2211
  131OSM     O314104   5.341   2.690   6.308  0.2002 -0.5147  0.1924
  131OSM    HO314105   5.264   2.690   6.250  1.6893 -1.0346 -1.8851
  131OSM    C4S14106   5.374   2.712   6.547 -0.1837 -0.3089  0.6126
  131OSM    H4S14107   5.428   2.786   6.607  0.8731 -0.9677  0.5017
  131OSM    C5S14108   5.410   2.582   6.573  0.1166 -0.4511  0.3003
  131OSM    H5S14109   5.389   2.505   6.498 -0.0750 -1.8609  1.7491
  131OSM    C6S14110   5.486   2.544   6.690 -0.4543 -0.6066 -1.2754
  131OSM    H6S14111   5.582   2.499   6.657  1.0660 -0.1820  2.0957
  131OSM    H6T14112   5.427   2.464   6.740  0.4817 -0.4814  0.1062
  131OSM    C7S14113   5.523   2.656   6.799  0.3146  0.1788 -0.2561
  131OSM    H7S14114   5.428   2.706   6.829 -0.7990 -0.8183 -1.8973
  131OSM    H7T14115   5.597   2.726   6.755  3.0414 -1.4978  1.4249
  131OSM    C8S14116   5.588   2.596   6.931 -0.3970 -0.0295 -0.5538
  131OSM    H8S14117   5.673   2.537   6.892 -0.2440 -0.7587  0.8176
  131OSM    H8T14118   5.511   2.531   6.977  0.2349 -0.4986 -0.1499
  131OSM    C9S14119   5.658   2.709   7.014 -0.1536  0.4295  0.0494
  131OSM    H9S14120   5.579   2.784   7.036 -0.0655  0.6029 -0.2369
  131OSM    H9T14121   5.743   2.756   6.961 -1.0965  0.7530 -1.2151
  131OSM   C10S14122   5.710   2.645   7.147 -0.1979  0.0356 -0.8175
  131OSM   H10S14123   5.770   2.554   7.128 -1.9601 -0.9826 -1.7910
  131OSM   H10T14124   5.622   2.601   7.199 -0.5189  1.4087 -0.1499
  131OSM   C11S14125   5.763   2.760   7.238 -0.1850 -0.3378 -0.1220
  131OSM   H11S14126   5.672   2.812   7.277  1.0975 -0.3902  3.2186
  131OSM   H11T14127   5.834   2.833   7.193 -0.4581  1.2449  1.8426
  131OSM   C12S14128   5.837   2.700   7.360  0.2590  0.0408  0.0497
  131OSM   H12S14129   5.941   2.675   7.332  0.1814 -2.0043  1.3328
  131OSM   H12T14130   5.777   2.613   7.395 -3.3656  2.3041 -0.0204
  131OSM   C13S14131   5.838   2.790   7.482 -0.3776 -0.2918 -0.5564
  131OSM   H13S14132   5.735   2.819   7.512 -0.1396 -1.5652  1.7982
  131OSM   H13T14133   5.885   2.887   7.456 -1.4069 -0.0393 -1.5394
  131OSM   C14S14134   5.908   2.729   7.602 -0.8617 -0.3397  0.0489
  131OSM   H14S14135   6.015   2.708   7.581 -1.1330 -0.4700 -1.3010
  131OSM   H14T14136   5.858   2.633   7.627 -0.1907 -0.5940  0.4349
  131OSM   C15S14137   5.884   2.814   7.720 -0.7012 -0.3093 -0.8389
  131OSM   H15S14138   5.776   2.825   7.741 -0.5071 -0.2844  0.1914
  131OSM   H15T14139   5.919   2.916   7.694 -2.3206  0.5334  0.1672
  131OSM   C16S14140   5.954   2.754   7.849  0.1308  0.2734  0.5772
  131OSM   H16S14141   6.062   2.747   7.828 -0.2379 -0.3137 -1.2977
  131OSM   H16T14142   5.913   2.655   7.878  1.7627 -0.8031 -0.6477
  131OSM   C17S14143   5.952   2.847   7.973  0.7804  0.8324 -0.5753
  131OSM   H17S14144   5.993   2.948   7.952 -0.5674  1.4034 -0.5714
  131OSM   H17T14145   6.004   2.785   8.049  0.2423 -0.9750 -1.6020
  131OSM   C18S14146   5.810   2.875   8.018 -0.1996 -0.5454 -0.3360
  131OSM   H18S14147   5.753   2.783   8.038  0.5280 -0.9116  0.0946
  131OSM   H18T14148   5.749   2.930   7.942  1.9311  1.8521 -0.4695
  131OSM   H18U14149   5.809   2.940   8.108 -0.4890  0.8813 -1.3369
  131OSM    C1F14150   4.972   2.791   6.608  0.5384 -0.5325  0.2701
  131OSM     OF14151   4.898   2.706   6.560 -0.1613  0.5393 -0.1295
  131OSM    C2F14152   4.948   2.868   6.738 -0.0668  0.3881  0.1057
  131OSM    H2F14153   4.878   2.950   6.709  1.2448  0.9062 -1.7499
  131OSM    H2G14154   5.043   2.911   6.776  2.0885 -2.1554 -1.9874
  131OSM    C3F14155   4.886   2.789   6.850 -0.0857  0.5506 -0.2220
  131OSM    H3F14156   4.961   2.725   6.899  0.7736  1.2815 -0.5567
  131OSM    H3G14157   4.800   2.730   6.810  0.0312  0.3928 -0.2397
  131OSM    C4F14158   4.834   2.872   6.966 -0.2776  0.7565  0.8840
  131OSM    H4F14159   4.742   2.823   7.005  0.3888 -1.2860  0.0196
  131OSM    H4G14160   4.807   2.972   6.926  1.2593  0.9640  0.2950
  131OSM    C5F14161   4.943   2.895   7.076  0.1841  0.0630  0.1996
  131OSM    H5F14162   5.037   2.940   7.037  0.4800  0.4845  1.3568
  131OSM    H5G14163   4.976   2.803   7.128 -2.0514 -0.6654  0.4587
  131OSM    C6F14164   4.898   2.998   7.184  1.0519  0.1546 -0.4263
  131OSM    H6F14165   4.856   3.084   7.129 -2.6451  1.3421  3.7039
  131OSM    H6G14166   4.993   3.015   7.239  1.0696 -0.0546 -0.3880
  131OSM    C7F14167   4.782   2.955   7.279 -0.1747  0.2716 -0.3083
  131OSM    H7F14168   4.812   2.866   7.338  0.2651  0.9869  0.5567
  131OSM    H7G14169   4.703   2.915   7.212  0.5964  1.3593 -1.9307
  131OSM    C8F14170   4.743   3.065   7.377 -0.7815 -0.0803 -0.8113
  131OSM    H8F14171   4.663   3.036   7.449  0.1315  2.1734  1.2417
  131OSM    H8G14172   4.706   3.141   7.304 -1.3088 -0.8810 -1.3951
  131OSM    C9F14173   4.875   3.111   7.453  0.2802 -0.0957  0.2319
  131OSM    H9F14174   4.939   3.182   7.399  1.4993 -1.4679 -0.2257
  131OSM   C10F14175   4.921   3.059   7.569 -0.3201  0.0107 -0.2630
  131OSM   H10F14176   5.014   3.098   7.614 -0.0672 -0.1665 -0.6277
  131OSM   C11F14177   4.854   2.942   7.643 -0.1350 -0.3915 -0.1453
  131OSM   H11F14178   4.906   2.850   7.609 -0.1704  0.3552 -2.4129
  131OSM   H11G14179   4.746   2.937   7.617 -0.3575 -0.5247  0.7876
  131OSM   C12F14180   4.878   2.963   7.793 -0.7769 -0.2330  0.1178
  131OSM   H12F14181   4.817   3.054   7.811 -0.8886 -0.4827  1.0580
  131OSM   H12G14182   4.983   2.981   7.825 -0.8834 -1.2910  1.1198
  131OSM   C13F14183   4.823   2.847   7.878  0.3071 -0.3666 -0.4041
  131OSM   H13F14184   4.858   2.745   7.854 -3.1246 -1.5763 -0.7764
  131OSM   H13G14185   4.714   2.845   7.855 -0.4327 -1.0921  2.6763
  131OSM   C14F14186   4.817   2.877   8.026 -0.1805  0.0864 -0.6873
  131OSM   H14F14187   4.822   2.775   8.070 -1.2082 -1.0843 -3.0550
  131OSM   H14G14188   4.713   2.912   8.044 -0.4102 -1.4803  1.3587
  131OSM   C15F14189   4.931   2.965   8.084  0.0579 -0.1419 -0.5962
  131OSM   H15F14190   4.941   3.068   8.046 -0.0016 -0.2070 -0.7925
  131OSM   H15G14191   5.027   2.924   8.047  2.4672  1.5018  3.2140
  131OSM   C16F14192   4.940   2.950   8.239  0.9015  0.4443  0.5990
  131OSM   H16F14193   4.836   2.954   8.278 -0.2564 -1.4523 -1.9796
  131OSM   H16G14194   5.002   3.036   8.272 -2.6079  3.4696  0.0163
  131OSM   C17F14195   5.007   2.824   8.286  0.6348 -0.1087 -0.3771
  131OSM   H17F14196   5.102   2.815   8.229 -0.3047 -3.2812 -1.6878
  131OSM   H17G14197   4.944   2.740   8.250 -0.7303  0.2592  1.0321
  131OSM   C18F14198   5.015   2.814   8.436  0.2201  0.3179 -0.4048
  131OSM   H18F14199   5.066   2.899   8.486  1.7668 -0.4472 -0.6274
  131OSM   H18G14200   5.072   2.727   8.474  0.5424  0.5782 -0.2826
  131OSM   H18H14201   4.911   2.806   8.474  0.4591  3.0799  1.0734
  132OSM      N14202   6.448   4.898   6.245  0.6049  0.1613 -0.7984
  132OSM    C1514203   6.522   4.994   6.155  0.1666 -0.7748  0.4965
  132OSM   H15A14204   6.532   4.946   6.059 -0.7364  0.0929 -0.0550
  132OSM   H15B14205   6.620   5.018   6.195  0.0675 -0.6310  0.6583
  132OSM   H15C14206   6.466   5.081   6.125 -0.6391 -1.8744 -1.3509
  132OSM    C1414207   6.539   4.777   6.260  0.4435 -0.7646  0.3220
  132OSM   H14A14208   6.584   4.763   6.163  0.5340 -0.4239  0.3123
  132OSM   H14B14209   6.488   4.689   6.294  1.5029 -0.8281  1.8904
  132OSM   H14C14210   6.613   4.808   6.333  1.5521  1.3668 -1.5638
  132OSM    C1314211   6.413   4.957   6.373 -0.2275  0.4733  0.0044
  132OSM   H13A14212   6.370   4.887   6.444 -0.4979  1.0843  0.4512
  132OSM   H13B14213   6.345   5.040   6.376  1.0156  1.5024  0.7391
  132OSM   H13C14214   6.504   5.002   6.411  1.9656 -0.9492 -3.1012
  132OSM    C1214215   6.331   4.848   6.165 -0.2504 -0.0841  0.0918
  132OSM   H12A14216   6.369   4.767   6.103  1.6018 -0.1757  1.2760
  132OSM   H12B14217   6.296   4.927   6.100  1.9162  1.0778  0.2465
  132OSM    C1114218   6.204   4.801   6.239  0.7815 -0.0243 -0.0212
  132OSM   H11A14219   6.133   4.783   6.156 -0.6619  0.7408  0.9870
  132OSM   H11B14220   6.149   4.883   6.292 -0.9288 -0.4975 -0.9950
  132OSM      P14221   6.249   4.545   6.266  0.2600  0.0097  0.0274
  132OSM    O1314222   6.124   4.468   6.265  1.0297 -0.2418 -0.5338
  132OSM    O1414223   6.323   4.552   6.139  0.1676 -0.3351 -0.1464
  132OSM    O1114224   6.343   4.480   6.375 -0.2648 -0.4075 -0.3614
  132OSM    O1214225   6.222   4.686   6.329  0.0724 -0.3954  0.0623
  132OSM    C1S14226   6.357   4.537   6.497 -0.0304 -0.3390 -0.0316
  132OSM    H1S14227   6.264   4.587   6.531  0.5177  1.1271 -0.6391
  132OSM    H1T14228   6.426   4.624   6.498 -1.9821  1.2871  0.1571
  132OSM     NF14229   6.383   4.480   6.737 -0.0126 -0.5475 -0.2701
  132OSM    HNF14230   6.459   4.514   6.791  0.4563 -1.5687 -0.2624
  132OSM    C2S14231   6.401   4.426   6.603  0.0657 -1.1169 -0.4447
  132OSM    H2S14232   6.340   4.333   6.601 -1.1125 -0.5943  3.3501
  132OSM    C3S14233   6.546   4.391   6.564 -0.5451 -0.3530  0.2784
  132OSM    H3S14234   6.607   4.482   6.580 -0.7353 -0.3009  0.7306
  132OSM     O314235   6.574   4.353   6.427  0.5077  0.7827  0.1110
  132OSM    HO314236   6.502   4.390   6.375  0.5001 -1.8798 -2.0104
  132OSM    C4S14237   6.587   4.278   6.661 -0.0075  0.1264  0.6970
  132OSM    H4S14238   6.510   4.200   6.668  1.4200 -1.4286 -0.2578
  132OSM    C5S14239   6.694   4.274   6.747  0.0530  0.5194 -0.1449
  132OSM    H5S14240   6.770   4.352   6.733  0.9110 -0.6019 -2.1960
  132OSM    C6S14241   6.711   4.161   6.845  0.8455 -1.2342  0.1168
  132OSM    H6S14242   6.785   4.089   6.803 -1.8386 -2.7120 -2.4714
  132OSM    H6T14243   6.617   4.103   6.846  0.0263 -0.1533 -3.2389
  132OSM    C7S14244   6.739   4.227   6.987 -0.4726  0.2917  0.0715
  132OSM    H7S14245   6.662   4.305   7.009 -0.9623 -0.4259  0.9942
  132OSM    H7T14246   6.837   4.279   6.992 -0.3096 -0.0528  0.5969
  132OSM    C8S14247   6.723   4.122   7.091  0.3737  0.0036 -0.0701
  132OSM    H8S14248   6.754   4.028   7.041  1.2818 -0.3153  1.0546
  132OSM    H8T14249   6.618   4.099   7.118  0.2891  0.1021 -0.3092
  132OSM    C9S14250   6.807   4.131   7.222 -0.2319  0.0357 -0.2343
  132OSM    H9S14251   6.744   4.178   7.301  0.8527 -1.2308  1.4455
  132OSM    H9T14252   6.892   4.201   7.203  0.5437 -0.8532 -0.0785
  132OSM   C10S14253   6.847   3.998   7.287  0.0403  0.1798  0.3429
  132OSM   H10S14254   6.944   4.021   7.335 -0.3197  0.5576  0.9062
  132OSM   H10T14255   6.864   3.932   7.199 -1.2560  2.3602 -1.6469
  132OSM   C11S14256   6.751   3.958   7.393  0.2134 -0.3961  0.4265
  132OSM   H11S14257   6.760   3.850   7.417 -0.0049 -0.3512  0.7122
  132OSM   H11T14258   6.646   3.956   7.358  0.8111 -3.1486 -1.5670
  132OSM   C12S14259   6.766   4.043   7.522  0.1403 -0.5192 -0.7028
  132OSM   H12S14260   6.727   4.147   7.508 -0.6971 -0.3576  2.1728
  132OSM   H12T14261   6.873   4.049   7.552 -0.0372 -1.0393  0.0466
  132OSM   C13S14262   6.685   3.979   7.640 -0.1504  0.0832  0.9767
  132OSM   H13S14263   6.721   3.878   7.670  2.6600  0.4503 -0.8040
  132OSM   H13T14264   6.578   3.976   7.609  0.4316 -1.8322 -1.0307
  132OSM   C14S14265   6.691   4.075   7.764  0.1221 -0.5923 -0.3355
  132OSM   H14S14266   6.703   4.182   7.735 -0.2018  0.1087  1.9370
  132OSM   H14T14267   6.780   4.054   7.827  1.1209  1.4248 -1.0001
  132OSM   C15S14268   6.555   4.077   7.858 -0.5203 -0.5901 -0.2776
  132OSM   H15S14269   6.520   3.974   7.878 -2.5691 -0.1747 -1.4490
  132OSM   H15T14270   6.476   4.130   7.802  2.1549  1.6705 -2.2189
  132OSM   C16S14271   6.569   4.149   8.000  0.3580 -0.1083  0.3063
  132OSM   H16S14272   6.577   4.259   7.986 -2.8361  0.3675  1.5142
  132OSM   H16T14273   6.662   4.111   8.048  0.0852 -0.8833  0.2340
  132OSM   C17S14274   6.449   4.136   8.091 -0.1178  0.2958 -0.4683
  132OSM   H17S14275   6.411   4.038   8.056  1.4923  0.5426 -3.1408
  132OSM   H17T14276   6.375   4.216   8.065  2.2682  2.6961 -0.3496
  132OSM   C18S14277   6.473   4.126   8.244 -0.4789  0.4958  0.3561
  132OSM   H18S14278   6.493   4.224   8.292 -0.6976 -1.3025  4.5117
  132OSM   H18T14279   6.557   4.055   8.263 -1.6117 -0.8194  0.6150
  132OSM   H18U14280   6.386   4.079   8.295  1.6507 -2.4381  1.5932
  132OSM    C1F14281   6.265   4.470   6.795 -0.0320  0.8837 -0.3743
  132OSM     OF14282   6.173   4.428   6.730  0.8093 -0.3844 -0.5490
  132OSM    C2F14283   6.261   4.510   6.940 -0.2409  0.3353  0.2803
  132OSM    H2F14284   6.360   4.558   6.956 -0.4523  1.5738 -1.8729
  132OSM    H2G14285   6.246   4.422   7.007  0.2641 -1.5324 -1.9378
  132OSM    C3F14286   6.150   4.609   6.968  0.6558 -0.1454 -0.9316
  132OSM    H3F14287   6.130   4.633   7.074 -0.0254  1.1284 -1.3180
  132OSM    H3G14288   6.055   4.563   6.932  1.8360 -0.9302 -3.2886
  132OSM    C4F14289   6.171   4.741   6.892 -0.5887 -0.2602 -0.1069
  132OSM    H4F14290   6.190   4.722   6.784 -0.3126  1.4184 -0.3890
  132OSM    H4G14291   6.254   4.808   6.923 -0.4587  0.1383 -1.2450
  132OSM    C5F14292   6.049   4.836   6.896  0.3311  0.3858 -0.2086
  132OSM    H5F14293   5.960   4.778   6.863  0.3089 -1.7705  3.1717
  132OSM    H5G14294   6.074   4.912   6.819  1.5747 -0.9057 -1.1230
  132OSM    C6F14295   6.026   4.921   7.028 -0.3712  0.3465  0.8234
  132OSM    H6F14296   6.120   4.971   7.062 -0.9130  1.5945  0.5478
  132OSM    H6G14297   6.001   4.840   7.100 -0.6742  0.0869  0.4263
  132OSM    C7F14298   5.920   5.028   7.025 -0.0788  0.0233  0.6061
  132OSM    H7F14299   5.823   4.985   6.993 -0.1787  1.3164 -0.9611
  132OSM    H7G14300   5.957   5.092   6.942 -1.2961 -0.5919 -0.4410
  132OSM    C8F14301   5.903   5.122   7.141 -0.1279 -0.4665 -0.1412
  132OSM    H8F14302   5.839   5.200   7.094 -0.6151 -0.2305  0.8959
  132OSM    H8G14303   6.000   5.172   7.163 -0.3202  1.1026 -2.4751
  132OSM    C9F14304   5.842   5.047   7.261 -0.4249 -0.6401 -0.5017
  132OSM    H9F14305   5.748   5.000   7.229 -1.1250  1.0324 -1.0460
  132OSM   C10F14306   5.883   5.056   7.388 -0.4835 -0.4559 -0.3765
  132OSM   H10F14307   5.834   4.986   7.457 -0.8124 -0.2522 -0.3994
  132OSM   C11F14308   6.003   5.139   7.431 -0.3414  0.0665 -0.7199
  132OSM   H11F14309   5.963   5.235   7.471 -0.1408  0.1180 -0.6388
  132OSM   H11G14310   6.076   5.169   7.352  1.0691  0.8148  0.8122
  132OSM   C12F14311   6.081   5.071   7.541  0.2631 -0.1542 -0.9669
  132OSM   H12F14312   6.164   5.140   7.568 -1.0124  0.7420  0.8795
  132OSM   H12G14313   6.112   4.968   7.513  0.1938 -0.8679  1.3866
  132OSM   C13F14314   6.010   5.068   7.675  0.2036  0.5608  0.0717
  132OSM   H13F14315   5.911   5.018   7.665 -0.0611  1.0151  0.3995
  132OSM   H13G14316   5.980   5.170   7.707 -2.0577 -0.3864  1.1453
  132OSM   C14F14317   6.084   5.005   7.782 -0.1164 -0.6147  0.0947
  132OSM   H14F14318   6.189   5.042   7.791 -0.0735 -0.2340 -1.6292
  132OSM   H14G14319   6.077   4.895   7.768 -3.4605 -0.2051 -2.7384
  132OSM   C15F14320   6.006   5.014   7.912 -0.2727 -0.0743  0.2011
  132OSM   H15F14321   5.909   4.961   7.896  0.2244 -0.3008 -2.5696
  132OSM   H15G14322   5.976   5.113   7.951 -2.8953 -1.4275  1.9344
  132OSM   C16F14323   6.087   4.949   8.022 -0.7752  0.5899  0.5579
  132OSM   H16F14324   6.197   4.964   8.009 -0.8994  1.2493  0.2014
  132OSM   H16G14325   6.077   4.841   7.999 -3.2499  0.5604  1.5121
  132OSM   C17F14326   6.046   4.980   8.167  0.3547 -0.5979 -0.2028
  132OSM   H17F14327   6.089   4.910   8.242  0.3344  2.8871  3.3683
  132OSM   H17G14328   5.936   4.973   8.166  0.3162 -0.1221 -0.9675
  132OSM   C18F14329   6.089   5.127   8.192  0.4828  0.3411 -0.3265
  132OSM   H18F14330   6.194   5.149   8.161  0.6061 -1.6712 -1.5026
  132OSM   H18G14331   6.081   5.149   8.300 -1.1124  2.1692 -0.7651
  132OSM   H18H14332   6.018   5.197   8.143 -0.1856  0.9881  1.4899
  133OSM      N14333   0.229   5.684   6.576  0.2224 -0.0563 -0.3363
  133OSM    C1514334   0.268   5.566   6.498  0.3712  0.5958  0.0983
  133OSM   H15A14335   0.194   5.548   6.421  0.9035  0.6136 -0.4281
  133OSM   H15B14336   0.277   5.479   6.560 -2.8734 -0.2735 -0.4339
  133OSM   H15C14337   0.361   5.585   6.447  0.6207 -0.0918  0.2941
  133OSM    C1414338   0.325   5.697   6.692 -0.2456 -0.2068  0.4659
  133OSM   H14A14339   0.327   5.611   6.756  1.2349 -1.2168 -0.8542
  133OSM   H14B14340   0.305   5.789   6.744 -1.4015  0.4889 -1.1128
  133OSM   H14C14341   0.420   5.715   6.644 -1.1089 -0.1120 -1.3201
  133OSM    C1314342   0.232   5.809   6.486 -0.3698 -0.5954  0.1518
  133OSM   H13A14343   0.328   5.830   6.441 -1.1698  0.7094 -1.0113
  133OSM   H13B14344   0.182   5.893   6.531 -1.0318 -1.2624  0.7011
  133OSM   H13C14345   0.174   5.783   6.399 -1.3220 -2.7340  1.3322
  133OSM    C1214346   0.083   5.671   6.625 -0.4563  0.3762 -0.0470
  133OSM   H12A14347   0.061   5.742   6.704 -3.0633 -1.7894  1.3361
  133OSM   H12B14348   0.081   5.579   6.682 -0.1067  0.8972  0.8367
  133OSM    C1114349  -0.029   5.683   6.524 -0.3679 -0.5387  0.0974
  133OSM   H11A14350  -0.035   5.789   6.492  3.8506 -0.0726  0.2695
  133OSM   H11B14351  -0.131   5.666   6.564 -0.6990  1.1599  0.0750
  133OSM      P14352  -0.061   5.459   6.405 -0.6483 -0.3469 -0.5686
  133OSM    O1314353  -0.171   5.458   6.305  0.2044  0.7153  0.0945
  133OSM    O1414354   0.046   5.359   6.368  0.1908 -0.4673 -0.0244
  133OSM    O1114355  -0.111   5.417   6.548 -0.1049  0.6778  0.3766
  133OSM    O1214356  -0.009   5.602   6.409  0.0121 -0.4686  0.1892
  133OSM    C1S14357  -0.065   5.293   6.602  0.0843 -0.1251  0.2624
  133OSM    H1S14358   0.046   5.292   6.597  0.1303 -2.8286  0.4104
  133OSM    H1T14359  -0.106   5.205   6.548 -0.8524 -0.6459  1.7510
  133OSM     NF14360  -0.031   5.152   6.801 -0.2069  0.1529  0.2531
  133OSM    HNF14361  -0.076   5.069   6.770 -3.2393  1.8452 -0.2864
  133OSM    C2S14362  -0.110   5.267   6.754 -0.1672 -0.5395 -0.0566
  133OSM    H2S14363  -0.083   5.356   6.814  0.0327 -2.0516  2.2133
  133OSM    C3S14364  -0.267   5.254   6.752  0.2435 -0.3224 -0.0483
  133OSM    H3S14365  -0.316   5.177   6.688 -0.6983  0.7784 -0.6878
  133OSM     O314366  -0.317   5.372   6.689  0.5626 -0.1450  0.1445
  133OSM    HO314367  -0.242   5.418   6.651 -0.7193  0.8660 -1.3078
  133OSM    C4S14368  -0.313   5.237   6.891 -0.4015 -0.4269  0.1767
  133OSM    H4S14369  -0.299   5.133   6.924  1.5553 -0.5551 -0.9433
  133OSM    C5S14370  -0.352   5.323   6.985 -0.1933 -0.3962  0.1357
  133OSM    H5S14371  -0.356   5.430   6.962 -1.3100 -0.2629  0.9139
  133OSM    C6S14372  -0.386   5.282   7.127 -0.0979 -0.2768 -0.0332
  133OSM    H6S14373  -0.398   5.172   7.131 -2.1000 -0.1150 -0.7193
  133OSM    H6T14374  -0.481   5.324   7.166  0.3508  0.3452  0.4100
  133OSM    C7S14375  -0.277   5.314   7.241 -0.0027 -0.3413  0.2972
  133OSM    H7S14376  -0.255   5.422   7.255  1.6947 -0.7684  1.2006
  133OSM    H7T14377  -0.182   5.274   7.200  0.3663 -0.6182  1.3879
  133OSM    C8S14378  -0.315   5.261   7.383 -0.4970  0.5747 -0.8302
  133OSM    H8S14379  -0.356   5.158   7.378 -0.7740  0.7160 -1.6374
  133OSM    H8T14380  -0.395   5.320   7.432  1.4932  0.6156  2.6572
  133OSM    C9S14381  -0.197   5.251   7.477 -0.1247 -0.2512 -0.2275
  133OSM    H9S14382  -0.151   5.352   7.475 -1.9301  0.5881 -0.7949
  133OSM    H9T14383  -0.133   5.169   7.439  1.1179  1.4260 -1.9667
  133OSM   C10S14384  -0.240   5.217   7.619  0.2186  0.2162  0.2723
  133OSM   H10S14385  -0.280   5.115   7.637 -2.3585  1.2824  1.1471
  133OSM   H10T14386  -0.325   5.284   7.644 -1.0200 -0.3243 -2.2245
  133OSM   C11S14387  -0.127   5.254   7.721  0.2988  0.6751 -0.1280
  133OSM   H11S14388  -0.117   5.364   7.713 -0.2629  0.7791  0.4735
  133OSM   H11T14389  -0.029   5.206   7.700  1.1832  2.6356 -0.7352
  133OSM   C12S14390  -0.159   5.208   7.859  0.5180 -0.0530 -0.7488
  133OSM   H12S14391  -0.173   5.098   7.871  1.0782  0.0250  0.8344
  133OSM   H12T14392  -0.256   5.256   7.884  0.8701  0.2893 -0.0016
  133OSM   C13S14393  -0.051   5.263   7.954  0.4581 -0.0990 -0.2219
  133OSM   H13S14394  -0.028   5.371   7.951  1.6938 -0.2943  1.2451
  133OSM   H13T14395   0.047   5.213   7.937 -0.3036 -1.8013  0.1449
  133OSM   C14S14396  -0.096   5.224   8.095  0.3530  0.4192 -0.5686
  133OSM   H14S14397  -0.109   5.113   8.087  1.7941  0.3373 -3.0563
  133OSM   H14T14398  -0.191   5.271   8.124 -0.5921 -1.4942 -0.3778
  133OSM   C15S14399   0.012   5.250   8.209  0.1902 -0.4380 -0.5591
  133OSM   H15S14400  -0.031   5.240   8.311 -1.2399  1.2187 -0.9443
  133OSM   H15T14401   0.044   5.355   8.194 -1.9080  0.3080 -0.1843
  133OSM   C16S14402   0.142   5.165   8.202  0.4864  0.1299 -0.0630
  133OSM   H16S14403   0.216   5.193   8.279  2.6111 -0.9822 -1.5942
  133OSM   H16T14404   0.186   5.205   8.108  0.2212  0.6588  0.0348
  133OSM   C17S14405   0.123   5.014   8.208  0.4756  0.2195 -0.1442
  133OSM   H17S14406   0.064   4.984   8.118  0.7665  0.4049 -0.3999
  133OSM   H17T14407   0.060   4.994   8.298 -0.4070  1.0624 -0.5477
  133OSM   C18S14408   0.242   4.933   8.238 -0.1602 -0.1524  0.1888
  133OSM   H18S14409   0.281   4.967   8.336  0.4873 -1.7017  0.5133
  133OSM   H18T14410   0.316   4.957   8.159  1.0186 -1.9130  0.6874
  133OSM   H18U14411   0.226   4.823   8.239  1.4531 -0.4081  0.7651
  133OSM    C1F14412   0.092   5.156   6.847  0.1667 -0.5873  0.0112
  133OSM     OF14413   0.145   5.270   6.849  0.2717 -0.4385 -0.4594
  133OSM    C2F14414   0.156   5.028   6.894 -0.2920 -0.7602  0.3764
  133OSM    H2F14415   0.232   4.986   6.824 -1.0724 -1.4941 -0.0533
  133OSM    H2G14416   0.073   4.956   6.908  0.6505 -2.3045 -1.3849
  133OSM    C3F14417   0.200   5.046   7.044  0.7099 -0.2243 -0.1894
  133OSM    H3F14418   0.116   5.069   7.114  1.2396  0.6418  0.1681
  133OSM    H3G14419   0.269   5.131   7.055 -0.4660  0.9926 -1.7638
  133OSM    C4F14420   0.268   4.911   7.092  0.0562 -0.7335  1.2835
  133OSM    H4F14421   0.356   4.895   7.025 -2.7301 -1.3568 -2.5552
  133OSM    H4G14422   0.199   4.826   7.075 -0.0479 -0.4698  0.3215
  133OSM    C5F14423   0.322   4.922   7.236  0.3221  0.0508  0.3903
  133OSM    H5F14424   0.396   5.005   7.242 -0.9610  1.7766 -4.0108
  133OSM    H5G14425   0.364   4.824   7.266  0.8044 -0.0529 -0.5744
  133OSM    C6F14426   0.212   4.955   7.336 -0.2541 -0.6318  0.6643
  133OSM    H6F14427   0.142   4.869   7.329 -1.5931  0.5255 -0.8745
  133OSM    H6G14428   0.148   5.043   7.315 -0.2123 -0.4342  1.3279
  133OSM    C7F14429   0.259   4.989   7.481  0.7195  0.0120  0.1466
  133OSM    H7F14430   0.319   5.081   7.469  0.2500  0.2964 -0.0288
  133OSM    H7G14431   0.335   4.913   7.510  0.4760 -0.1452  0.3780
  133OSM    C8F14432   0.139   5.007   7.567  0.4769  0.0752  0.4889
  133OSM    H8F14433   0.084   4.910   7.559  1.3435 -0.7262  3.2420
  133OSM    H8G14434   0.081   5.089   7.519  1.1371  0.3563  0.1529
  133OSM    C9F14435   0.175   5.026   7.712 -0.6830 -0.2903 -0.1824
  133OSM    H9F14436   0.232   5.117   7.732  0.4664 -0.4686 -2.3660
  133OSM   C10F14437   0.130   4.956   7.814  0.5414  0.0850 -0.8114
  133OSM   H10F14438   0.174   4.978   7.913  1.1043 -0.9951 -0.8019
  133OSM   C11F14439   0.033   4.838   7.812  0.3003 -0.1816 -0.1990
  133OSM   H11F14440  -0.051   4.854   7.741 -1.7558  0.0257  2.1408
  133OSM   H11G14441  -0.013   4.830   7.913 -0.2972 -1.6550 -0.5580
  133OSM   C12F14442   0.087   4.702   7.783 -0.0678  0.2347  0.1684
  133OSM   H12F14443   0.167   4.674   7.855  0.2602 -2.6088 -1.1582
  133OSM   H12G14444   0.143   4.715   7.689  1.6008  1.8002  1.3147
  133OSM   C13F14445  -0.014   4.586   7.780  0.3480  0.9946 -0.3720
  133OSM   H13F14446  -0.098   4.610   7.711 -0.9755 -2.4719 -0.1430
  133OSM   H13G14447  -0.061   4.569   7.879 -0.2361  1.5395 -0.5471
  133OSM   C14F14448   0.047   4.456   7.732  0.0354 -0.3860  0.3604
  133OSM   H14F14449  -0.007   4.374   7.784 -0.9018  0.8278  1.3539
  133OSM   H14G14450   0.157   4.453   7.748 -0.0553 -0.4891  0.9903
  133OSM   C15F14451   0.026   4.424   7.579  0.7124 -0.1737  0.2758
  133OSM   H15F14452  -0.081   4.425   7.548  0.5100 -2.4117  0.7107
  133OSM   H15G14453   0.038   4.315   7.562  0.8740  0.3116 -3.3980
  133OSM   C16F14454   0.115   4.495   7.483 -0.3749  0.3120 -0.1533
  133OSM   H16F14455   0.215   4.448   7.494 -0.7249 -0.2976  0.4752
  133OSM   H16G14456   0.122   4.605   7.500 -0.1425  0.1578  0.7828
  133OSM   C17F14457   0.056   4.488   7.341 -0.5186 -0.2284  0.6260
  133OSM   H17F14458  -0.054   4.502   7.335 -0.9127 -3.2663 -1.3065
  133OSM   H17G14459   0.071   4.381   7.316  1.1696 -0.2292  1.4669
  133OSM   C18F14460   0.115   4.590   7.246 -0.2191 -0.2099 -0.1111
  133OSM   H18F14461   0.223   4.568   7.229  0.1832  1.1864  0.5344
  133OSM   H18G14462   0.108   4.692   7.289 -2.8159  1.0606 -3.1653
  133OSM   H18H14463   0.048   4.600   7.157 -0.3681  3.7090  0.2592
  134OSM      N14464   0.581   1.619   6.205 -0.2733  0.4103 -0.3461
  134OSM    C1514465   0.496   1.730   6.241  0.2573  0.0374  0.1529
  134OSM   H15A14466   0.406   1.743   6.183  0.0977  1.0177  0.5987
  134OSM   H15B14467   0.552   1.822   6.235 -1.6354  1.2646  0.5786
  134OSM   H15C14468   0.462   1.718   6.343 -0.5671  0.2418 -0.0954
  134OSM    C1414469   0.573   1.603   6.054  0.1345  0.4710 -0.7716
  134OSM   H14A14470   0.469   1.611   6.024 -0.1508  1.3170  0.3420
  134OSM   H14B14471   0.634   1.522   6.017 -1.0806 -1.2104  0.7340
  134OSM   H14C14472   0.620   1.691   6.013  1.4451  0.0845 -0.1498
  134OSM    C1314473   0.725   1.662   6.219  0.1754  0.3023 -0.4724
  134OSM   H13A14474   0.766   1.725   6.141  2.3692 -0.2307  0.1544
  134OSM   H13B14475   0.790   1.576   6.230  2.4797  2.0854  0.9165
  134OSM   H13C14476   0.732   1.720   6.309 -1.2590  0.5106 -0.4771
  134OSM    C1214477   0.552   1.492   6.280  0.3348  0.2627  0.4436
  134OSM   H12A14478   0.613   1.416   6.233 -0.6181  0.0422 -0.4669
  134OSM   H12B14479   0.450   1.468   6.256 -0.1900  1.0304  1.7891
  134OSM    C1114480   0.551   1.489   6.427  0.4641 -0.2566 -0.7132
  134OSM   H11A14481   0.638   1.550   6.459  0.1706  0.3563 -1.0682
  134OSM   H11B14482   0.566   1.385   6.462 -0.5849 -1.0123 -2.3944
  134OSM      P14483   0.294   1.480   6.468 -0.2900  0.1069  0.5004
  134OSM    O1314484   0.195   1.573   6.530  0.2521 -0.7825 -0.0460
  134OSM    O1414485   0.268   1.432   6.329  0.3945 -0.3378 -0.0047
  134OSM    O1114486   0.318   1.353   6.568 -0.3211 -0.0647  0.3224
  134OSM    O1214487   0.432   1.550   6.479 -0.3648 -0.1146 -0.1192
  134OSM    C1S14488   0.354   1.369   6.705  0.4597  0.0448  0.2526
  134OSM    H1S14489   0.276   1.429   6.755  1.1037  0.6056  0.6075
  134OSM    H1T14490   0.456   1.413   6.714  0.2876  0.6257 -0.5162
  134OSM     NF14491   0.394   1.269   6.924 -0.1213  0.1028 -0.5882
  134OSM    HNF14492   0.488   1.271   6.955 -0.3040 -1.8430  0.2068
  134OSM    C2S14493   0.370   1.238   6.784 -0.0576  0.0991 -0.9849
  134OSM    H2S14494   0.274   1.182   6.784 -0.2319  0.3067  1.1584
  134OSM    C3S14495   0.480   1.156   6.717  0.7057 -0.0765  0.7485
  134OSM    H3S14496   0.578   1.205   6.734  0.8109 -0.6936  2.0009
  134OSM     O314497   0.469   1.151   6.575 -0.0820  0.7292 -0.6487
  134OSM    HO314498   0.395   1.211   6.565 -1.2807 -0.2984  1.4197
  134OSM    C4S14499   0.477   1.019   6.777  0.1696 -0.3385  0.5773
  134OSM    H4S14500   0.380   0.980   6.810  1.8438 -3.5164  2.2582
  134OSM    C5S14501   0.580   0.937   6.795  0.1096 -0.6418 -0.3432
  134OSM    H5S14502   0.682   0.958   6.757  0.1080  1.9575  0.8946
  134OSM    C6S14503   0.577   0.804   6.865 -0.0677  0.0681 -0.2822
  134OSM    H6S14504   0.667   0.749   6.829 -0.7256 -0.7936 -0.6389
  134OSM    H6T14505   0.494   0.742   6.825  0.3489 -0.8931  0.2980
  134OSM    C7S14506   0.569   0.815   7.016 -0.3395 -0.0264 -0.2629
  134OSM    H7S14507   0.492   0.887   7.053  0.9013  0.3965  1.6358
  134OSM    H7T14508   0.671   0.846   7.047  1.0257 -1.2303 -3.1515
  134OSM    C8S14509   0.548   0.682   7.094 -0.8703 -0.0405 -0.1947
  134OSM    H8S14510   0.501   0.612   7.021 -1.3820 -1.3088  1.2813
  134OSM    H8T14511   0.472   0.700   7.174  1.1893  0.7950  1.6682
  134OSM    C9S14512   0.680   0.629   7.146  0.4093  0.7512 -0.5436
  134OSM    H9S14513   0.741   0.701   7.204  0.1445  1.4366 -1.0998
  134OSM    H9T14514   0.738   0.595   7.057 -1.1145  0.6805 -1.5560
  134OSM   C10S14515   0.665   0.509   7.243  0.1802  0.1674 -0.4133
  134OSM   H10S14516   0.766   0.469   7.270  0.0180 -0.2775 -0.4528
  134OSM   H10T14517   0.615   0.426   7.189 -2.4247  0.6460  1.1057
  134OSM   C11S14518   0.592   0.549   7.378 -0.2867 -0.3392  0.5168
  134OSM   H11S14519   0.497   0.597   7.345  1.4986  3.2787  0.1274
  134OSM   H11T14520   0.662   0.624   7.420 -2.2184  2.4416 -0.9166
  134OSM   C12S14521   0.574   0.434   7.463  0.1007  0.4938  0.6159
  134OSM   H12S14522   0.667   0.376   7.482  0.2818 -0.1138 -1.7634
  134OSM   H12T14523   0.510   0.357   7.415  1.2057  0.1878 -0.4076
  134OSM   C13S14524   0.510   0.478   7.589  0.2691  0.1766 -0.2304
  134OSM   H13S14525   0.463   0.387   7.631  1.7189 -0.0436  1.0184
  134OSM   H13T14526   0.429   0.552   7.575 -0.1183 -0.0571  0.7137
  134OSM   C14S14527   0.607   0.536   7.697 -0.2405 -0.0869  0.1281
  134OSM   H14S14528   0.671   0.611   7.646 -1.5219  0.4383 -0.7494
  134OSM   H14T14529   0.668   0.451   7.735  1.1326  1.3257  1.2665
  134OSM   C15S14530   0.542   0.592   7.817 -0.0134 -0.5032  0.2928
  134OSM   H15S14531   0.473   0.519   7.865 -1.4445  1.1054  0.7845
  134OSM   H15T14532   0.505   0.686   7.771  3.6275  0.4825 -0.9465
  134OSM   C16S14533   0.631   0.627   7.937 -0.2816  0.7302 -0.9385
  134OSM   H16S14534   0.700   0.702   7.892  2.2011 -0.0094  1.4040
  134OSM   H16T14535   0.691   0.540   7.970 -1.8563 -0.5533 -1.3534
  134OSM   C17S14536   0.556   0.680   8.061  0.0920 -0.6288  0.7724
  134OSM   H17S14537   0.476   0.607   8.086 -0.0798 -0.9952 -0.7057
  134OSM   H17T14538   0.503   0.775   8.041  0.1354 -0.4154  1.6662
  134OSM   C18S14539   0.648   0.706   8.175 -0.5203  0.1887  0.1068
  134OSM   H18S14540   0.735   0.759   8.129 -2.1981  1.4334 -1.7955
  134OSM   H18T14541   0.671   0.611   8.227  1.6258  0.7965  0.3702
  134OSM   H18U14542   0.607   0.775   8.252 -0.1840 -0.1416  0.5855
  134OSM    C1F14543   0.299   1.315   7.008 -0.6162  0.4159 -0.2450
  134OSM     OF14544   0.187   1.350   6.979 -0.3147 -0.6726  0.0473
  134OSM    C2F14545   0.343   1.320   7.153  0.2191  0.5488  0.2193
  134OSM    H2F14546   0.433   1.382   7.173 -1.5833  2.2347  4.1570
  134OSM    H2G14547   0.360   1.218   7.195  0.6821  1.2016  1.6847
  134OSM    C3F14548   0.230   1.392   7.232  0.0918  0.0423  0.2422
  134OSM    H3F14549   0.151   1.314   7.244  0.3007  0.0314  1.7932
  134OSM    H3G14550   0.201   1.486   7.181  0.7741  1.1867  1.8768
  134OSM    C4F14551   0.277   1.436   7.377  0.0328  0.2956 -0.6788
  134OSM    H4F14552   0.206   1.514   7.412  1.4407  1.6632 -0.7529
  134OSM    H4G14553   0.382   1.473   7.378 -0.4792  1.8362  0.5563
  134OSM    C5F14554   0.276   1.311   7.462  0.1874 -0.6380 -0.5913
  134OSM    H5F14555   0.369   1.250   7.461  0.8977  0.1875  2.5805
  134OSM    H5G14556   0.191   1.245   7.435 -1.4551  0.8946  0.5169
  134OSM    C6F14557   0.250   1.345   7.609 -0.0697 -0.3464  0.2825
  134OSM    H6F14558   0.169   1.276   7.642  1.1908 -2.1337 -0.2002
  134OSM    H6G14559   0.215   1.450   7.617  0.8542  0.0124 -0.2470
  134OSM    C7F14560   0.367   1.332   7.710 -0.8207  0.2025  0.2875
  134OSM    H7F14561   0.442   1.404   7.671  1.2825 -0.8870  2.0716
  134OSM    H7G14562   0.402   1.226   7.703 -0.8669 -0.0448  2.7713
  134OSM    C8F14563   0.326   1.363   7.855 -0.3934 -0.1079  0.0030
  134OSM    H8F14564   0.275   1.461   7.870 -0.2127 -0.3232  2.5410
  134OSM    H8G14565   0.419   1.374   7.915  0.6790 -0.3487 -1.5673
  134OSM    C9F14566   0.252   1.254   7.925  0.4785  0.0852 -0.0937
  134OSM    H9F14567   0.174   1.204   7.866 -0.8444  0.0774  1.5993
  134OSM   C10F14568   0.266   1.201   8.051  0.0645 -0.1301  0.4535
  134OSM   H10F14569   0.192   1.133   8.095 -0.9889  2.3957  2.8787
  134OSM   C11F14570   0.368   1.245   8.146  0.2573  0.3783  0.2079
  134OSM   H11F14571   0.430   1.325   8.100  0.5406  0.1483  0.1834
  134OSM   H11G14572   0.437   1.158   8.149  0.2927  0.4089  0.2788
  134OSM   C12F14573   0.331   1.272   8.288  0.5922 -0.5028 -0.4464
  134OSM   H12F14574   0.262   1.199   8.334  0.6699 -0.3685 -0.1104
  134OSM   H12G14575   0.282   1.372   8.293 -0.4467 -1.0483  0.5029
  134OSM   C13F14576   0.454   1.274   8.376 -0.3270 -0.2724 -0.5264
  134OSM   H13F14577   0.425   1.330   8.468  3.1577  0.3099  0.3630
  134OSM   H13G14578   0.534   1.328   8.321  0.4533 -0.9146 -0.0339
  134OSM   C14F14579   0.496   1.144   8.431  0.6405  0.3202  0.3858
  134OSM   H14F14580   0.598   1.158   8.473  1.1035 -1.2509 -0.1149
  134OSM   H14G14581   0.512   1.066   8.353  0.3616  2.5627 -2.0391
  134OSM   C15F14582   0.422   1.078   8.557 -0.9090  0.8102 -0.2366
  134OSM   H15F14583   0.325   1.031   8.531  0.6603 -2.8669 -0.0472
  134OSM   H15G14584   0.392   1.148   8.638 -0.8882 -1.2386  1.6550
  134OSM   C16F14585   0.497   0.965   8.621 -0.2571  1.1731  0.6215
  134OSM   H16F14586   0.460   0.938   8.723  1.5559  0.8414  1.2368
  134OSM   H16G14587   0.605   0.976   8.643  0.2861  1.3978 -1.8756
  134OSM   C17F14588   0.494   0.847   8.529 -0.2238  0.6451  0.0254
  134OSM   H17F14589   0.523   0.856   8.423  0.8655  0.7488  0.3218
  134OSM   H17G14590   0.392   0.803   8.537  0.3340 -0.5350  1.2842
  134OSM   C18F14591   0.577   0.735   8.589 -0.3817  0.0029  0.6208
  134OSM   H18F14592   0.544   0.713   8.693 -0.4175  0.6629  0.7558
  134OSM   H18G14593   0.684   0.766   8.594  0.7046 -3.0100 -1.0012
  134OSM   H18H14594   0.579   0.646   8.523  0.8964 -0.0087  0.6498
  135OSM      N14595   6.508   1.495   6.159 -0.1963 -0.1349  0.6476
  135OSM    C1514596   6.411   1.589   6.216 -0.3311 -0.4216 -0.4597
  135OSM   H15A14597   6.434   1.693   6.198  1.6191 -0.7411 -0.0881
  135OSM   H15B14598   6.397   1.576   6.323 -1.2356 -1.8402 -0.7123
  135OSM   H15C14599   6.317   1.583   6.165 -1.0064  2.3551  0.2961
  135OSM    C1414600   6.523   1.533   6.012 -0.0236 -0.0740  0.0894
  135OSM   H14A14601   6.585   1.464   5.956  0.4834 -0.9060  1.5998
  135OSM   H14B14602   6.564   1.632   5.996  2.4792 -0.6905  1.9847
  135OSM   H14C14603   6.423   1.520   5.974 -0.2965 -0.0690  0.8006
  135OSM    C1314604   6.635   1.509   6.237  0.0550  0.0103  0.2511
  135OSM   H13A14605   6.629   1.487   6.343  4.1645 -0.6180  0.5261
  135OSM   H13B14606   6.678   1.608   6.225 -0.1473  0.5992  3.5330
  135OSM   H13C14607   6.712   1.443   6.200 -4.1355 -3.4715 -3.2790
  135OSM    C1214608   6.463   1.349   6.167  0.4951  0.2040  0.6012
  135OSM   H12A14609   6.551   1.292   6.143  1.0524  1.7728 -1.4137
  135OSM   H12B14610   6.385   1.317   6.099  2.1235 -2.8103 -0.0049
  135OSM    C1114611   6.421   1.293   6.312 -0.1423  0.0296  0.1431
  135OSM   H11A14612   6.380   1.191   6.298  0.0795  0.0708 -0.8881
  135OSM   H11B14613   6.345   1.359   6.358 -0.1133 -1.0810  1.8559
  135OSM      P14614   6.639   1.187   6.398  0.1705  0.4475  0.1928
  135OSM    O1314615   6.588   1.057   6.359  0.4400 -0.4879 -0.3025
  135OSM    O1414616   6.754   1.239   6.316 -0.0129 -0.2790 -0.2365
  135OSM    O1114617   6.696   1.174   6.547  0.5214  0.1488 -0.1520
  135OSM    O1214618   6.532   1.301   6.403 -0.3033  0.0767 -0.8375
  135OSM    C1S14619   6.750   1.283   6.620 -0.0027 -0.5500 -0.4105
  135OSM    H1S14620   6.741   1.370   6.551  0.6952 -1.5397 -1.7933
  135OSM    H1T14621   6.861   1.280   6.631  0.0863  0.1156 -1.0235
  135OSM     NF14622   6.755   1.421   6.828 -0.5098  0.1598 -0.0051
  135OSM    HNF14623   6.828   1.399   6.893  0.0474 -0.8051 -0.9252
  135OSM    C2S14624   6.695   1.302   6.767 -0.3843  0.4447 -0.1058
  135OSM    H2S14625   6.591   1.329   6.742 -1.4278 -1.7773  1.4928
  135OSM    C3S14626   6.702   1.166   6.845 -0.1122 -0.2260 -0.2992
  135OSM    H3S14627   6.804   1.129   6.865  0.4458  0.9334 -0.8561
  135OSM     O314628   6.633   1.055   6.782 -0.1909  0.1973  0.0674
  135OSM    HO314629   6.636   1.082   6.690 -1.5447  0.9150  0.2020
  135OSM    C4S14630   6.621   1.184   6.968 -0.0447 -0.0468 -0.0346
  135OSM    H4S14631   6.517   1.217   6.956 -0.3990 -1.2969 -0.5738
  135OSM    C5S14632   6.668   1.157   7.089 -0.3371 -0.2829  0.2613
  135OSM    H5S14633   6.773   1.128   7.103 -0.7329 -1.2505  1.3148
  135OSM    C6S14634   6.581   1.176   7.215 -0.9542 -0.2205  0.2483
  135OSM    H6S14635   6.552   1.079   7.259  0.2741 -0.4612  0.5732
  135OSM    H6T14636   6.491   1.239   7.198 -0.8149  0.1063  0.7051
  135OSM    C7S14637   6.654   1.251   7.331  0.4356 -0.0029 -0.8460
  135OSM    H7S14638   6.674   1.358   7.309  3.0317  0.0604  1.3496
  135OSM    H7T14639   6.751   1.197   7.334  1.0825  1.0756 -1.6100
  135OSM    C8S14640   6.577   1.235   7.460 -0.3220  0.3087  0.3359
  135OSM    H8S14641   6.562   1.126   7.471  0.3515  0.1542 -0.1952
  135OSM    H8T14642   6.475   1.280   7.456 -0.9030 -0.9730  0.0976
  135OSM    C9S14643   6.658   1.284   7.580  0.5853  0.2599  0.2862
  135OSM    H9S14644   6.701   1.385   7.562  2.9607 -0.9732 -1.3135
  135OSM    H9T14645   6.749   1.222   7.596  1.2105  1.5481  2.1416
  135OSM   C10S14646   6.577   1.258   7.707  0.9081  0.9342  0.5595
  135OSM   H10S14647   6.555   1.150   7.719  0.0614  0.9571 -0.7028
  135OSM   H10T14648   6.484   1.317   7.713  0.8999  0.9352  0.4070
  135OSM   C11S14649   6.659   1.292   7.829  0.6287 -0.5064  0.3671
  135OSM   H11S14650   6.716   1.386   7.811  0.8894 -0.3883  1.6787
  135OSM   H11T14651   6.736   1.214   7.851  1.1923  0.2231  1.0399
  135OSM   C12S14652   6.573   1.318   7.954 -0.1238  0.2127 -0.0182
  135OSM   H12S14653   6.513   1.228   7.979 -0.5243  0.8179  1.2957
  135OSM   H12T14654   6.519   1.411   7.923  0.5884  1.0050  1.0315
  135OSM   C13S14655   6.651   1.352   8.082 -0.0967 -0.2328  0.1548
  135OSM   H13S14656   6.736   1.422   8.067 -0.0837 -0.3022 -0.0982
  135OSM   H13T14657   6.703   1.264   8.126  1.2779  1.0824  1.3140
  135OSM   C14S14658   6.566   1.406   8.193  0.8103  0.3230  0.9214
  135OSM   H14S14659   6.518   1.327   8.255 -0.1084 -0.1017 -0.2977
  135OSM   H14T14660   6.494   1.480   8.153 -0.0763 -0.5151  0.9391
  135OSM   C15S14661   6.649   1.474   8.301  0.0622  0.4754 -0.1856
  135OSM   H15S14662   6.726   1.541   8.257  1.0279  1.2734  2.5367
  135OSM   H15T14663   6.712   1.396   8.349  0.0359 -0.8659 -2.2001
  135OSM   C16S14664   6.557   1.542   8.399 -0.0621  0.4168 -0.7365
  135OSM   H16S14665   6.530   1.463   8.472  0.0512  0.1204 -1.0156
  135OSM   H16T14666   6.461   1.574   8.353 -1.7206 -0.9458  1.5695
  135OSM   C17S14667   6.629   1.668   8.463 -0.2306 -0.0269 -0.3806
  135OSM   H17S14668   6.653   1.744   8.386 -0.4233  0.7318  0.2877
  135OSM   H17T14669   6.728   1.634   8.501 -0.9555 -1.5496  0.2239
  135OSM   C18S14670   6.556   1.728   8.585 -0.0527 -0.1766 -0.0685
  135OSM   H18S14671   6.615   1.813   8.625  2.5070 -0.5311 -2.7285
  135OSM   H18T14672   6.532   1.656   8.667  1.5907 -0.0986  0.5269
  135OSM   H18U14673   6.459   1.773   8.556  0.0558  0.3573  0.3756
  135OSM    C1F14674   6.724   1.550   6.799  0.0239  0.6055 -0.8632
  135OSM     OF14675   6.649   1.582   6.709 -0.8501 -0.2281  0.1634
  135OSM    C2F14676   6.796   1.644   6.889  0.1280 -0.0377  0.2878
  135OSM    H2F14677   6.834   1.723   6.821 -0.4530  2.0194  2.2099
  135OSM    H2G14678   6.882   1.596   6.939  2.1293  2.5315 -0.4933
  135OSM    C3F14679   6.717   1.712   7.004  0.1295  0.1052 -0.2547
  135OSM    H3F14680   6.645   1.780   6.955  2.1070  0.7102 -2.4672
  135OSM    H3G14681   6.787   1.785   7.049  1.7348  0.4916 -3.1211
  135OSM    C4F14682   6.655   1.619   7.111  0.0100 -0.0261 -0.2235
  135OSM    H4F14683   6.711   1.528   7.143 -0.0810  0.0692  0.2073
  135OSM    H4G14684   6.561   1.586   7.061  0.3806 -0.7923 -0.4362
  135OSM    C5F14685   6.612   1.694   7.233  0.4031 -0.2908 -0.3156
  135OSM    H5F14686   6.534   1.632   7.281 -0.3732  0.5819 -0.4193
  135OSM    H5G14687   6.559   1.785   7.195 -2.7067 -1.7032  0.3329
  135OSM    C6F14688   6.720   1.714   7.335 -0.6038 -0.6739  0.1004
  135OSM    H6F14689   6.797   1.773   7.281 -0.0475 -1.1087  0.4090
  135OSM    H6G14690   6.767   1.616   7.361 -0.9098 -1.0417 -0.6969
  135OSM    C7F14691   6.656   1.782   7.465 -0.7383 -0.5293 -0.6989
  135OSM    H7F14692   6.574   1.714   7.494 -0.9050  0.0373  0.2038
  135OSM    H7G14693   6.600   1.875   7.439 -1.7142 -0.8626  0.1431
  135OSM    C8F14694   6.754   1.795   7.580 -0.4570 -0.1428 -0.1542
  135OSM    H8F14695   6.701   1.854   7.658  1.5176  1.8713 -0.2483
  135OSM    H8G14696   6.838   1.859   7.548  0.0837 -1.6693 -1.9850
  135OSM    C9F14697   6.801   1.668   7.652 -0.6160 -0.5733 -0.7704
  135OSM    H9F14698   6.835   1.591   7.581  0.1310  0.1002 -1.1599
  135OSM   C10F14699   6.807   1.645   7.787 -0.1320  0.4420  0.2657
  135OSM   H10F14700   6.851   1.547   7.810 -2.1670 -1.3230 -2.6355
  135OSM   C11F14701   6.774   1.734   7.904 -0.1077  0.5118 -0.2956
  135OSM   H11F14702   6.695   1.684   7.965  0.8964 -0.5211  0.1954
  135OSM   H11G14703   6.747   1.831   7.857 -0.4488  0.5195 -0.0902
  135OSM   C12F14704   6.902   1.747   7.990  0.0627 -0.5861 -0.2375
  135OSM   H12F14705   6.974   1.814   7.937 -2.1087 -0.1130 -2.8106
  135OSM   H12G14706   6.945   1.646   8.008  0.2224 -0.2572  1.3830
  135OSM   C13F14707   6.877   1.809   8.124  0.5202 -0.7672  0.0438
  135OSM   H13F14708   6.809   1.737   8.174  1.8536 -1.6524  0.6494
  135OSM   H13G14709   6.822   1.904   8.110  0.6658 -0.5483  0.8715
  135OSM   C14F14710   7.003   1.825   8.211 -0.8886  0.6605 -0.4170
  135OSM   H14F14711   7.055   1.910   8.162  1.3718  0.3232  1.2215
  135OSM   H14G14712   7.057   1.729   8.193  0.2868  1.0332  0.9594
  135OSM   C15F14713   6.979   1.856   8.360  0.5312  0.2533 -0.3455
  135OSM   H15F14714   6.895   1.791   8.393  0.1068  0.3878 -1.1114
  135OSM   H15G14715   6.930   1.956   8.355  1.2983  0.8073  2.0733
  135OSM   C16F14716   7.105   1.844   8.440  0.9288 -0.3609 -0.3327
  135OSM   H16F14717   7.096   1.915   8.525 -0.9456  0.9405 -1.5359
  135OSM   H16G14718   7.193   1.876   8.381  1.0915  1.4682  0.8231
  135OSM   C17F14719   7.126   1.705   8.499  0.4399  0.1692  0.0673
  135OSM   H17F14720   7.148   1.640   8.412  2.3272  2.9200 -1.6908
  135OSM   H17G14721   7.028   1.672   8.539 -0.0173  1.6934  0.2748
  135OSM   C18F14722   7.241   1.701   8.600 -0.0417  0.4332 -0.3878
  135OSM   H18F14723   7.218   1.756   8.694  1.2952  2.8362 -1.3805
  135OSM   H18G14724   7.325   1.761   8.560 -1.6478  2.1382 -1.3752
  135OSM   H18H14725   7.266   1.595   8.622 -2.2776 -0.1828 -0.5652
  136OSM      N14726   5.544   2.482   6.112  0.1437 -0.6121 -0.1000
  136OSM    C1514727   5.582   2.627   6.121 -0.5806  0.4788  0.0799
  136OSM   H15A14728   5.688   2.631   6.141 -0.6478 -1.3405  1.0257
  136OSM   H15B14729   5.535   2.681   6.201  0.1725  0.0954  0.7903
  136OSM   H15C14730   5.547   2.677   6.031 -1.8822 -2.6870 -1.3370
  136OSM    C1414731   5.407   2.478   6.059 -0.6420 -0.1102  0.1920
  136OSM   H14A14732   5.348   2.550   6.112  0.7566  1.3139 -0.0950
  136OSM   H14B14733   5.357   2.383   6.066  1.1835 -1.1236  0.1872
  136OSM   H14C14734   5.409   2.504   5.954  3.1814 -0.0580  0.1381
  136OSM    C1314735   5.639   2.395   6.027  0.2600  0.2007 -0.1267
  136OSM   H13A14736   5.622   2.291   6.052  1.4424 -0.1647 -0.7738
  136OSM   H13B14737   5.743   2.411   6.053  0.3170  0.8296 -0.7118
  136OSM   H13C14738   5.623   2.415   5.922  1.1126 -1.7592 -0.6754
  136OSM    C1214739   5.535   2.427   6.260 -0.8860  0.1892  0.7895
  136OSM   H12A14740   5.486   2.502   6.320 -1.2721  0.4417  0.1573
  136OSM   H12B14741   5.639   2.419   6.291 -0.6815 -1.6467 -0.2079
  136OSM    C1114742   5.476   2.290   6.289 -0.3972  0.3380  0.3567
  136OSM   H11A14743   5.368   2.290   6.262 -0.8785  1.3109  2.1184
  136OSM   H11B14744   5.477   2.261   6.396  1.0248 -0.3025  0.1840
  136OSM      P14745   5.688   2.130   6.281  1.0165 -0.3505 -0.0608
  136OSM    O1314746   5.727   2.002   6.218  0.1148 -0.3735 -0.0878
  136OSM    O1414747   5.784   2.241   6.277  0.1894  0.3577  0.3300
  136OSM    O1114748   5.659   2.099   6.428 -0.0417  0.1663  0.2681
  136OSM    O1214749   5.552   2.187   6.219 -0.2286 -0.1554  0.3114
  136OSM    C1S14750   5.558   2.006   6.467 -0.4935  0.0608  0.5246
  136OSM    H1S14751   5.577   1.907   6.420  1.6453  0.2752  0.7984
  136OSM    H1T14752   5.454   2.035   6.442  0.1674  0.8256 -1.5188
  136OSM     NF14753   5.461   1.884   6.652 -0.5094 -0.5157 -0.4900
  136OSM    HNF14754   5.367   1.916   6.657  0.0417  1.2737 -0.9340
  136OSM    C2S14755   5.553   1.996   6.623 -0.5647  0.4747 -0.1133
  136OSM    H2S14756   5.656   1.970   6.658 -0.2452  1.8661  0.0391
  136OSM    C3S14757   5.518   2.135   6.689  0.5517 -0.3718  0.3013
  136OSM    H3S14758   5.420   2.160   6.642 -0.1190 -1.6811  0.9392
  136OSM     O314759   5.612   2.235   6.656  0.1730  0.3399 -0.4919
  136OSM    HO314760   5.667   2.182   6.598  1.3713 -2.0431  2.5340
  136OSM    C4S14761   5.506   2.118   6.838  0.2260  0.0018 -0.7737
  136OSM    H4S14762   5.600   2.111   6.895  0.2282  2.2402 -0.4095
  136OSM    C5S14763   5.392   2.136   6.911  0.1552 -0.2291  0.9664
  136OSM    H5S14764   5.300   2.177   6.866  0.3459 -2.0148 -1.2556
  136OSM    C6S14765   5.390   2.137   7.064 -0.1326  0.3056  0.5760
  136OSM    H6S14766   5.427   2.041   7.107  0.4593  0.9891  1.6380
  136OSM    H6T14767   5.288   2.157   7.104  0.4877  4.8096  0.3632
  136OSM    C7S14768   5.491   2.243   7.118 -0.9389  0.3085  0.0800
  136OSM    H7S14769   5.444   2.340   7.091 -1.6837  0.6207  2.2571
  136OSM    H7T14770   5.589   2.237   7.066 -1.0854  2.4213 -0.5236
  136OSM    C8S14771   5.509   2.221   7.272 -0.7047  0.1322 -0.5255
  136OSM    H8S14772   5.558   2.124   7.295 -0.0683  1.0924  2.7567
  136OSM    H8T14773   5.407   2.220   7.315 -0.1594 -0.5148  0.8178
  136OSM    C9S14774   5.593   2.332   7.334  0.4517 -0.1109 -0.7124
  136OSM    H9S14775   5.533   2.423   7.311  0.2834  0.4035  1.5132
  136OSM    H9T14776   5.693   2.334   7.286  0.4275  0.0545 -0.7577
  136OSM   C10S14777   5.604   2.316   7.489 -0.2325 -0.1817 -0.1325
  136OSM   H10S14778   5.684   2.240   7.502 -1.4525 -1.3667  0.5871
  136OSM   H10T14779   5.505   2.279   7.523 -0.4841 -0.0088 -0.6558
  136OSM   C11S14780   5.642   2.440   7.566 -0.4246  0.6347 -0.8374
  136OSM   H11S14781   5.601   2.528   7.512 -1.8532  0.7599  0.3724
  136OSM   H11T14782   5.752   2.452   7.576 -0.0980 -0.7188 -2.4049
  136OSM   C12S14783   5.575   2.442   7.704 -1.3330 -0.1221 -0.2444
  136OSM   H12S14784   5.481   2.383   7.702 -1.2697 -0.2332  0.0855
  136OSM   H12T14785   5.551   2.550   7.703  0.1285  0.2538  0.8961
  136OSM   C13S14786   5.672   2.416   7.822  0.4369 -0.2869  1.2404
  136OSM   H13S14787   5.770   2.467   7.806 -0.4458  1.2002  0.3472
  136OSM   H13T14788   5.708   2.311   7.823  0.9982 -0.1194  0.2716
  136OSM   C14S14789   5.624   2.450   7.960 -0.1745  0.2488 -0.8626
  136OSM   H14S14790   5.538   2.384   7.986  1.1960 -1.0735  0.6020
  136OSM   H14T14791   5.597   2.557   7.968  2.2858  0.9373 -0.6921
  136OSM   C15S14792   5.736   2.420   8.062 -0.1099 -0.0432 -0.8243
  136OSM   H15S14793   5.817   2.495   8.052  0.6715 -0.5939  1.0091
  136OSM   H15T14794   5.784   2.321   8.045  0.4817 -0.0901  0.9123
  136OSM   C16S14795   5.687   2.425   8.213  0.0340  0.2954 -0.7107
  136OSM   H16S14796   5.590   2.375   8.234  0.0983 -0.0551 -1.2129
  136OSM   H16T14797   5.662   2.533   8.225  0.1541  1.0943 -5.5462
  136OSM   C17S14798   5.799   2.372   8.313  0.2078 -0.7134 -0.7963
  136OSM   H17S14799   5.897   2.414   8.280 -0.5015  1.5092 -0.2861
  136OSM   H17T14800   5.805   2.261   8.311 -2.1048 -0.9148  0.1374
  136OSM   C18S14801   5.757   2.411   8.457  0.3196  0.5243  0.3437
  136OSM   H18S14802   5.845   2.411   8.525 -1.3078  0.5238  2.5828
  136OSM   H18T14803   5.670   2.353   8.494 -0.3353  0.2750 -1.5012
  136OSM   H18U14804   5.722   2.516   8.464  0.4712  0.6337 -0.4705
  136OSM    C1F14805   5.493   1.757   6.650 -0.1564 -0.2747  0.8684
  136OSM     OF14806   5.606   1.718   6.651 -0.0606  0.3108  0.7244
  136OSM    C2F14807   5.378   1.667   6.633  0.1320 -0.2258  0.2464
  136OSM    H2F14808   5.382   1.607   6.540  0.4286  1.2310 -0.7115
  136OSM    H2G14809   5.287   1.730   6.622  1.4205  1.9448  1.1017
  136OSM    C3F14810   5.368   1.571   6.743 -0.2520 -0.0243 -0.3763
  136OSM    H3F14811   5.463   1.525   6.778 -0.9429  0.2670  2.0598
  136OSM    H3G14812   5.296   1.496   6.704 -2.3990  0.6668  1.9900
  136OSM    C4F14813   5.295   1.620   6.869 -0.4311 -0.3808  0.5879
  136OSM    H4F14814   5.184   1.629   6.862 -0.3261  0.3636 -0.3393
  136OSM    H4G14815   5.334   1.721   6.892 -0.1783 -0.8975  2.6559
  136OSM    C5F14816   5.323   1.522   6.977 -0.3828  0.1345  0.2759
  136OSM    H5F14817   5.433   1.512   6.991 -0.1948  0.8365 -0.5894
  136OSM    H5G14818   5.306   1.423   6.930 -0.9710 -1.2175  3.1160
  136OSM    C6F14819   5.252   1.558   7.104 -0.1096 -0.4748 -0.5267
  136OSM    H6F14820   5.259   1.465   7.164 -1.0203 -0.2980 -0.1256
  136OSM    H6G14821   5.147   1.571   7.070 -0.5786 -0.3058  0.9387
  136OSM    C7F14822   5.314   1.673   7.188 -0.3097 -0.2806  0.1891
  136OSM    H7F14823   5.316   1.755   7.114 -0.6308  1.0706  1.6303
  136OSM    H7G14824   5.416   1.640   7.220 -0.5048 -1.3139 -0.1964
  136OSM    C8F14825   5.227   1.714   7.311 -0.1550  0.1259  0.1779
  136OSM    H8F14826   5.138   1.758   7.261 -1.7236 -1.3713  1.5163
  136OSM    H8G14827   5.272   1.793   7.375 -0.2264 -0.6481  1.2000
  136OSM    C9F14828   5.181   1.608   7.409  0.0323  0.3596 -0.0008
  136OSM    H9F14829   5.097   1.550   7.368 -1.2500  2.0103  0.2070
  136OSM   C10F14830   5.230   1.571   7.528  0.6097  0.2683 -0.1322
  136OSM   H10F14831   5.167   1.502   7.586 -1.5743  1.6064 -0.7979
  136OSM   C11F14832   5.339   1.643   7.602  0.5316 -0.2108  0.5008
  136OSM   H11F14833   5.368   1.729   7.537 -0.3307 -1.9014 -2.2927
  136OSM   H11G14834   5.431   1.581   7.597 -0.8689 -2.3027 -0.8066
  136OSM   C12F14835   5.305   1.698   7.743 -0.1306 -0.4601 -1.0152
  136OSM   H12F14836   5.254   1.796   7.742  0.9072  0.2892  3.0027
  136OSM   H12G14837   5.403   1.724   7.789 -1.4090  1.1654  0.9478
  136OSM   C13F14838   5.236   1.592   7.834  0.3289 -0.5338 -0.7324
  136OSM   H13F14839   5.284   1.492   7.830 -2.2669 -2.0723  1.8237
  136OSM   H13G14840   5.133   1.582   7.794 -0.3919 -2.4471  1.3491
  136OSM   C14F14841   5.216   1.642   7.980  0.4126  0.2628 -0.4581
  136OSM   H14F14842   5.153   1.733   7.975 -0.6460 -0.5090 -2.9209
  136OSM   H14G14843   5.314   1.675   8.021 -0.1607  2.0837 -0.5017
  136OSM   C15F14844   5.158   1.541   8.078 -0.6249  0.1939 -0.0590
  136OSM   H15F14845   5.231   1.457   8.074  1.8723  2.2603 -1.6275
  136OSM   H15G14846   5.064   1.501   8.036 -0.7072 -0.1138  0.4253
  136OSM   C16F14847   5.132   1.599   8.216  0.1010 -0.6278  0.1942
  136OSM   H16F14848   5.053   1.541   8.270 -0.7319  1.3465  1.1909
  136OSM   H16G14849   5.077   1.696   8.213  1.4525  0.1315 -0.6388
  136OSM   C17F14850   5.255   1.628   8.295 -0.3583 -0.0996 -0.6417
  136OSM   H17F14851   5.312   1.719   8.267 -0.7764  0.5330  0.4669
  136OSM   H17G14852   5.325   1.542   8.288  0.8715  1.0127 -3.5671
  136OSM   C18F14853   5.225   1.652   8.444  0.0918  0.2211  0.2240
  136OSM   H18F14854   5.166   1.568   8.486 -0.5009  0.1156 -0.7775
  136OSM   H18G14855   5.161   1.742   8.448  1.6340  1.3822 -0.4609
  136OSM   H18H14856   5.316   1.680   8.502 -0.9441  0.1871  1.9208
  137OSM      N14857   0.768   0.301   6.445  0.0287 -0.8393  0.1129
  137OSM    C1514858   0.743   0.441   6.378 -0.2396  0.8621  0.0405
  137OSM   H15A14859   0.833   0.477   6.331  1.4994 -0.5335  2.1207
  137OSM   H15B14860   0.705   0.517   6.445  0.8127  1.8389 -0.4379
  137OSM   H15C14861   0.673   0.433   6.296  0.7865 -0.0167 -0.7820
  137OSM    C1414862   0.630   0.252   6.475  0.1410 -0.0163 -0.1534
  137OSM   H14A14863   0.589   0.297   6.564 -3.6474 -0.5917 -1.4241
  137OSM   H14B14864   0.636   0.146   6.496 -0.9830  0.1671  1.2667
  137OSM   H14C14865   0.561   0.273   6.395 -0.5452 -1.1417  0.1164
  137OSM    C1314866   0.828   0.209   6.348  0.2229  0.0306 -0.3775
  137OSM   H13A14867   0.752   0.169   6.283 -0.5966  1.2494 -0.2048
  137OSM   H13B14868   0.873   0.123   6.394  0.3798 -0.4956 -1.4832
  137OSM   H13C14869   0.909   0.258   6.296 -0.6272  1.8794 -0.0387
  137OSM    C1214870   0.860   0.323   6.562  0.4568  0.5907  0.2909
  137OSM   H12A14871   0.801   0.391   6.622 -0.3867 -2.1680  2.8465
  137OSM   H12B14872   0.950   0.363   6.519  0.7229 -1.2867 -1.0177
  137OSM    C1114873   0.909   0.200   6.651  0.5230 -0.1240  0.2065
  137OSM   H11A14874   0.812   0.156   6.683  0.8237 -0.0375  1.2830
  137OSM   H11B14875   0.970   0.221   6.742 -0.9214 -0.6089  1.3294
  137OSM      P14876   1.124   0.102   6.561  0.0047 -0.1952  0.4249
  137OSM    O1314877   1.174   0.020   6.450  0.4066 -0.2331  0.1497
  137OSM    O1414878   1.179   0.238   6.580 -0.2861  0.6291 -0.1774
  137OSM    O1114879   1.155   0.017   6.690  0.3803 -0.1586 -0.0486
  137OSM    O1214880   0.972   0.098   6.571  0.0549 -0.6034  0.1975
  137OSM    C1S14881   1.180   0.070   6.825 -0.5293 -0.5382  0.2068
  137OSM    H1S14882   1.174   0.180   6.828 -0.0846 -0.5209  0.5712
  137OSM    H1T14883   1.284   0.035   6.843  0.5049  1.6375 -1.0789
  137OSM     NF14884   1.118   0.052   7.066  0.4836 -0.3115  0.4748
  137OSM    HNF14885   1.167  -0.018   7.118 -1.8457 -3.2915 -1.0640
  137OSM    C2S14886   1.090   0.011   6.933  0.4793  0.1267  0.5568
  137OSM    H2S14887   0.990   0.047   6.900  1.4466  2.6411  0.2227
  137OSM    C3S14888   1.084  -0.150   6.915  0.2188 -0.2278  0.0123
  137OSM    H3S14889   1.185  -0.197   6.916 -0.3797 -1.5620 -0.5383
  137OSM     O314890   1.031  -0.184   6.785  0.3004  0.1256 -0.1810
  137OSM    HO314891   1.026  -0.099   6.740 -0.2734  0.1286 -0.1184
  137OSM    C4S14892   1.012  -0.227   7.030 -0.4137 -0.6834 -0.1872
  137OSM    H4S14893   1.078  -0.259   7.112  1.0544  1.0404 -0.6375
  137OSM    C5S14894   0.881  -0.246   7.032  0.7256  0.5940 -1.3113
  137OSM    H5S14895   0.829  -0.196   6.949  1.0933  0.4951 -1.6041
  137OSM    C6S14896   0.799  -0.329   7.131 -0.4094  0.5062  0.5729
  137OSM    H6S14897   0.748  -0.408   7.071  1.8603 -0.7993  0.2308
  137OSM    H6T14898   0.727  -0.266   7.187 -1.1689 -0.5858  0.8497
  137OSM    C7S14899   0.880  -0.402   7.242  0.7532  0.2821 -0.0293
  137OSM    H7S14900   0.929  -0.319   7.297 -0.5123  1.0227  0.0066
  137OSM    H7T14901   0.955  -0.473   7.200  0.8485 -0.2131  0.9574
  137OSM    C8S14902   0.790  -0.472   7.346 -0.0245  0.2488  0.7977
  137OSM    H8S14903   0.720  -0.393   7.380  1.6936  2.7765 -1.1691
  137OSM    H8T14904   0.860  -0.498   7.428  1.5836  1.5849 -0.0918
  137OSM    C9S14905   0.706  -0.589   7.301 -0.2951  0.2523  0.4944
  137OSM    H9S14906   0.766  -0.682   7.302  2.0078  1.6516 -0.4326
  137OSM    H9T14907   0.669  -0.584   7.197  0.8221 -1.1547 -0.0074
  137OSM   C10S14908   0.589  -0.619   7.398 -0.0697  0.3622 -0.4516
  137OSM   H10S14909   0.524  -0.693   7.348  0.9668 -0.0491 -1.2165
  137OSM   H10T14910   0.527  -0.529   7.419  1.1079  1.0883  0.0557
  137OSM   C11S14911   0.630  -0.688   7.529 -0.6657  0.2490  0.2091
  137OSM   H11S14912   0.723  -0.657   7.581 -1.2937 -0.1162  1.5980
  137OSM   H11T14913   0.640  -0.796   7.508 -0.4239  0.4646 -0.8294
  137OSM   C12S14914   0.523  -0.679   7.635 -0.8617 -0.0905  0.3481
  137OSM   H12S14915   0.436  -0.729   7.589 -0.0590 -1.3349  0.1141
  137OSM   H12T14916   0.503  -0.573   7.663 -1.1555 -0.6904  2.6402
  137OSM   C13S14917   0.572  -0.766   7.752 -0.2203 -0.5590  0.3401
  137OSM   H13S14918   0.617  -0.866   7.732 -2.1506 -1.4146  0.0774
  137OSM   H13T14919   0.481  -0.793   7.809 -1.7290  0.7673 -1.3345
  137OSM   C14S14920   0.657  -0.682   7.847 -0.4942  0.1450  0.1849
  137OSM   H14S14921   0.633  -0.576   7.871  0.9435  0.5635 -0.1423
  137OSM   H14T14922   0.761  -0.666   7.811 -0.6294  1.9371  0.5062
  137OSM   C15S14923   0.667  -0.752   7.988  0.1577 -0.2785 -0.2175
  137OSM   H15S14924   0.748  -0.705   8.048  2.6720 -1.5187 -2.4413
  137OSM   H15T14925   0.699  -0.857   7.974  0.5435 -0.0763 -0.8945
  137OSM   C16S14926   0.537  -0.745   8.069  0.1429  0.3244  0.1251
  137OSM   H16S14927   0.474  -0.828   8.033  0.5946  0.8437 -1.9850
  137OSM   H16T14928   0.492  -0.646   8.048 -3.4120 -1.2697 -0.4369
  137OSM   C17S14929   0.561  -0.749   8.220  0.8928  0.5442  0.2303
  137OSM   H17S14930   0.627  -0.661   8.238  1.7218  0.8305 -3.5138
  137OSM   H17T14931   0.615  -0.839   8.255  0.6275  0.2144 -0.2094
  137OSM   C18S14932   0.436  -0.725   8.298 -0.7136  1.1886  0.0635
  137OSM   H18S14933   0.380  -0.634   8.269 -1.9368  0.6435  0.6343
  137OSM   H18T14934   0.459  -0.717   8.407  3.1134 -2.0128 -0.2429
  137OSM   H18U14935   0.366  -0.809   8.276  0.7976  0.5560 -2.8075
  137OSM    C1F14936   1.103   0.184   7.097  0.1956 -0.0870 -0.2334
  137OSM     OF14937   1.035   0.252   7.022 -0.3175 -0.1703  0.0392
  137OSM    C2F14938   1.157   0.230   7.233 -0.0305 -0.1097  0.3818
  137OSM    H2F14939   1.267   0.248   7.231  0.2102 -1.4635 -0.9496
  137OSM    H2G14940   1.137   0.149   7.307  0.1577  1.0350  1.7338
  137OSM    C3F14941   1.088   0.362   7.269 -0.0326  0.4821  0.5827
  137OSM    H3F14942   0.981   0.334   7.270  0.6136 -2.3360  0.0704
  137OSM    H3G14943   1.099   0.433   7.185 -1.0904  0.2291  0.2199
  137OSM    C4F14944   1.131   0.410   7.405  0.9048  0.4611  0.2259
  137OSM    H4F14945   1.234   0.450   7.414  0.6304  0.9076  1.6740
  137OSM    H4G14946   1.127   0.322   7.472  1.4251 -0.0692 -0.4334
  137OSM    C5F14947   1.036   0.518   7.461 -0.2227 -0.0127  0.1349
  137OSM    H5F14948   0.936   0.474   7.483 -2.1233  3.3756 -0.9468
  137OSM    H5G14949   1.020   0.589   7.378 -0.9399 -0.2049  0.0973
  137OSM    C6F14950   1.090   0.578   7.592 -0.5753 -0.7476  0.5609
  137OSM    H6F14951   1.013   0.647   7.632 -0.5114  0.8752 -1.9105
  137OSM    H6G14952   1.183   0.637   7.578  0.1814 -1.6778  1.4748
  137OSM    C7F14953   1.129   0.478   7.701 -0.2185  0.2368 -0.1791
  137OSM    H7F14954   1.222   0.427   7.666 -0.4556 -0.7068  0.5054
  137OSM    H7G14955   1.059   0.391   7.712  0.2032  0.0229  0.9466
  137OSM    C8F14956   1.162   0.541   7.837 -0.2005  1.0977  0.0612
  137OSM    H8F14957   1.227   0.631   7.824  1.7273 -0.5797 -3.3849
  137OSM    H8G14958   1.212   0.464   7.899  0.1676  2.1200  1.0859
  137OSM    C9F14959   1.034   0.578   7.907 -0.2257  0.4174 -0.0459
  137OSM    H9F14960   0.939   0.584   7.852 -0.0101 -0.2438 -0.4890
  137OSM   C10F14961   1.025   0.592   8.042 -0.0856 -0.5374  0.2594
  137OSM   H10F14962   0.927   0.625   8.078  0.8679  2.0477  0.6964
  137OSM   C11F14963   1.135   0.574   8.144 -0.7044  0.5852  0.0958
  137OSM   H11F14964   1.113   0.657   8.215 -3.8506 -2.6243  3.2738
  137OSM   H11G14965   1.235   0.576   8.096 -0.9565 -0.2752 -0.4798
  137OSM   C12F14966   1.108   0.438   8.214 -0.2699  0.8169  0.3457
  137OSM   H12F14967   1.194   0.419   8.280  0.9333  0.3244 -1.3063
  137OSM   H12G14968   1.098   0.358   8.138  0.3038  2.7391 -1.8609
  137OSM   C13F14969   0.995   0.436   8.310  0.0026  0.1529 -0.0251
  137OSM   H13F14970   0.900   0.446   8.252 -0.6556 -0.1095  0.9738
  137OSM   H13G14971   1.005   0.521   8.380  0.8390  1.1167 -1.2731
  137OSM   C14F14972   0.993   0.299   8.385 -0.1632  0.4462  0.2929
  137OSM   H14F14973   1.077   0.288   8.457 -0.3007  0.8596  0.5221
  137OSM   H14G14974   0.997   0.211   8.318 -1.5049  0.5927 -0.0093
  137OSM   C15F14975   0.866   0.282   8.467 -1.0064 -0.2872  0.5255
  137OSM   H15F14976   0.783   0.281   8.393  0.1332 -1.1458 -0.7669
  137OSM   H15G14977   0.860   0.373   8.531 -1.2407 -0.3821  0.6422
  137OSM   C16F14978   0.878   0.152   8.554  0.5459  0.5965  0.8121
  137OSM   H16F14979   0.965   0.159   8.623  1.2139  2.0470 -0.1126
  137OSM   H16G14980   0.895   0.062   8.491 -1.9266 -0.3820  1.4468
  137OSM   C17F14981   0.756   0.131   8.641  1.1074 -0.3652 -0.5996
  137OSM   H17F14982   0.670   0.096   8.579 -0.6839  1.7238  0.5471
  137OSM   H17G14983   0.714   0.226   8.680 -0.5262 -0.9942 -0.7495
  137OSM   C18F14984   0.777   0.041   8.764 -0.6288 -0.0394  0.0769
  137OSM   H18F14985   0.797  -0.060   8.721  1.4925  1.2481 -2.2655
  137OSM   H18G14986   0.693   0.044   8.836 -1.7542 -1.0435 -1.1334
  137OSM   H18H14987   0.864   0.069   8.827  0.4088 -3.2063  0.2236
  138OSM      N14988   2.267   3.270   6.159  0.3428  0.2921 -0.1368
  138OSM    C1514989   2.407   3.232   6.119 -0.0689 -0.0647 -0.2689
  138OSM   H15A14990   2.455   3.316   6.071 -0.6810  0.5614  0.1900
  138OSM   H15B14991   2.398   3.147   6.053 -3.1637 -0.7092  0.8040
  138OSM   H15C14992   2.475   3.213   6.201  2.7170  0.5806 -2.2853
  138OSM    C1414993   2.275   3.403   6.224  0.4598  0.2336  0.3601
  138OSM   H14A14994   2.333   3.465   6.157  3.9674  0.1198  3.0165
  138OSM   H14B14995   2.336   3.404   6.313  1.2360 -0.7825 -0.1472
  138OSM   H14C14996   2.175   3.439   6.245 -0.0718  0.2532 -1.9141
  138OSM    C1314997   2.187   3.278   6.035 -0.6299  0.9811  0.3760
  138OSM   H13A14998   2.210   3.363   5.973 -0.1223  0.1883 -0.5502
  138OSM   H13B14999   2.081   3.282   6.055 -0.5035  0.0470  1.3244
  138OSM   H13C15000   2.215   3.190   5.979 -1.4937  1.0480 -0.1677
  138OSM    C1215001   2.213   3.161   6.255  0.3389  0.5850 -0.0417
  138OSM   H12A15002   2.277   3.137   6.338  0.1138 -2.0507 -0.5247
  138OSM   H12B15003   2.212   3.068   6.200  0.3162 -0.7354  2.0735
  138OSM    C1115004   2.070   3.168   6.316  0.4828 -0.2118  0.5948
  138OSM   H11A15005   2.044   3.272   6.342 -0.8441 -0.6337  1.0290
  138OSM   H11B15006   2.064   3.104   6.407  0.9692  1.2867  1.7243
  138OSM      P15007   1.964   2.966   6.193  0.3203 -0.1417 -0.2251
  138OSM    O1315008   1.830   2.942   6.135  0.1078 -0.3467  0.2033
  138OSM    O1415009   2.077   2.918   6.118 -0.1623  0.6894 -0.4006
  138OSM    O1115010   1.967   2.910   6.339  0.1080 -0.2098 -0.2339
  138OSM    O1215011   1.974   3.124   6.212 -0.0856 -0.4075  0.0890
  138OSM    C1S15012   1.946   2.768   6.350  0.3676  0.0486  0.6998
  138OSM    H1S15013   2.014   2.703   6.291 -0.6999 -1.6873  1.3114
  138OSM    H1T15014   1.841   2.736   6.333  1.3009 -1.6209 -2.7561
  138OSM     NF15015   1.931   2.573   6.480  0.3735 -0.2014 -0.2977
  138OSM    HNF15016   1.836   2.552   6.502  1.2962 -1.9738  2.5933
  138OSM    C2S15017   1.970   2.710   6.488 -0.1063  0.1181 -0.4815
  138OSM    H2S15018   2.075   2.714   6.524  0.4292 -1.5523 -1.7213
  138OSM    C3S15019   1.887   2.790   6.592  0.2615  0.7199  0.0707
  138OSM    H3S15020   1.783   2.798   6.554 -0.5105 -0.4337  1.8180
  138OSM     O315021   1.936   2.928   6.604  0.0761 -0.3020  0.3653
  138OSM    HO315022   1.985   2.928   6.521 -0.3058 -3.4796  0.0088
  138OSM    C4S15023   1.901   2.726   6.726  0.3786  0.4344 -1.0286
  138OSM    H4S15024   2.001   2.707   6.768 -0.2388 -0.9707 -0.1062
  138OSM    C5S15025   1.792   2.700   6.797 -0.0682  0.6168  0.0333
  138OSM    H5S15026   1.694   2.715   6.749  0.4134  1.5216 -0.6885
  138OSM    C6S15027   1.799   2.649   6.941  0.3080  0.1526 -0.2216
  138OSM    H6S15028   1.736   2.557   6.943  2.0258 -1.0983 -0.8966
  138OSM    H6T15029   1.749   2.726   7.003 -1.9152 -0.7411 -0.7968
  138OSM    C7S15030   1.933   2.617   7.006 -0.7262 -0.4268  0.2750
  138OSM    H7S15031   1.997   2.707   7.002 -0.1920 -0.6987  1.9248
  138OSM    H7T15032   1.985   2.538   6.948 -1.5135 -0.0870 -0.9314
  138OSM    C8S15033   1.919   2.583   7.155 -0.3069 -0.0330  0.7261
  138OSM    H8S15034   1.862   2.488   7.161  1.2681 -1.2415 -1.9328
  138OSM    H8T15035   1.861   2.655   7.216 -2.3984  0.8345 -2.0930
  138OSM    C9S15036   2.061   2.564   7.217 -0.1482  0.1543  0.4608
  138OSM    H9S15037   2.120   2.657   7.203  2.9876 -1.9218 -0.9945
  138OSM    H9T15038   2.109   2.483   7.158  0.5749  0.1076  1.0984
  138OSM   C10S15039   2.072   2.509   7.361  0.6231  0.0224  0.7284
  138OSM   H10S15040   2.181   2.508   7.379  1.2119  0.2128 -2.3791
  138OSM   H10T15041   2.026   2.407   7.363  0.0325  0.2726  0.3819
  138OSM   C11S15042   2.004   2.603   7.465  0.2750  0.0494  0.6415
  138OSM   H11S15043   1.894   2.604   7.458  0.3501  1.0604 -0.8607
  138OSM   H11T15044   2.043   2.707   7.458 -0.3301  0.1750 -1.4983
  138OSM   C12S15045   2.040   2.545   7.606 -0.1037 -0.1092  0.3795
  138OSM   H12S15046   2.150   2.533   7.610  0.1843  2.0764  0.5628
  138OSM   H12T15047   1.986   2.449   7.599 -3.1226  1.3906  1.2585
  138OSM   C13S15048   1.986   2.617   7.727  0.7227  0.3824 -0.0003
  138OSM   H13S15049   1.876   2.630   7.717  0.4261 -1.3924  0.6119
  138OSM   H13T15050   2.021   2.723   7.723  0.4620  0.4523 -0.5740
  138OSM   C14S15051   2.015   2.552   7.855 -0.3901  0.2704 -0.0937
  138OSM   H14S15052   2.125   2.559   7.872  0.2688  0.2705 -3.4852
  138OSM   H14T15053   1.990   2.445   7.839 -1.6257  0.5488 -0.1155
  138OSM   C15S15054   1.921   2.605   7.959 -0.1062  0.0907  0.0769
  138OSM   H15S15055   1.816   2.579   7.938 -1.0937  4.6778 -1.8435
  138OSM   H15T15056   1.926   2.714   7.979 -0.6787  0.3438 -1.0944
  138OSM   C16S15057   1.965   2.536   8.094  0.2375 -0.1707  0.9507
  138OSM   H16S15058   2.071   2.567   8.110  0.5543 -0.7534  0.1082
  138OSM   H16T15059   1.959   2.428   8.069  0.2819  0.0435 -0.0282
  138OSM   C17S15060   1.862   2.571   8.198  0.9550 -0.0365  0.0544
  138OSM   H17S15061   1.758   2.554   8.164  0.3890 -0.0316  1.6931
  138OSM   H17T15062   1.859   2.681   8.209 -0.0891 -0.1594  1.3294
  138OSM   C18S15063   1.883   2.506   8.334 -0.3614  0.3240 -0.2785
  138OSM   H18S15064   1.814   2.546   8.411 -1.9141 -0.1061 -1.3806
  138OSM   H18T15065   1.989   2.529   8.356 -0.1731  0.3677 -1.1926
  138OSM   H18U15066   1.880   2.395   8.342  2.2899  0.2624  0.7502
  138OSM    C1F15067   2.001   2.475   6.422 -0.2514  0.9298  0.1517
  138OSM     OF15068   2.122   2.484   6.402 -0.1644  0.3719 -0.4681
  138OSM    C2F15069   1.940   2.339   6.397  0.6307  0.4342  0.4001
  138OSM    H2F15070   2.016   2.258   6.389 -1.5218 -1.5170 -2.5360
  138OSM    H2G15071   1.901   2.342   6.293  0.8758 -0.0812  0.2876
  138OSM    C3F15072   1.830   2.298   6.497 -0.5500 -0.4374 -0.0074
  138OSM    H3F15073   1.785   2.202   6.464 -3.0691  1.4974 -2.7053
  138OSM    H3G15074   1.746   2.370   6.482 -0.0995  0.8816  3.0202
  138OSM    C4F15075   1.872   2.289   6.644  0.0829  0.0245 -0.7180
  138OSM    H4F15076   1.782   2.266   6.705  0.5192  0.9597  0.3099
  138OSM    H4G15077   1.932   2.377   6.675  2.5650 -1.6362 -0.4318
  138OSM    C5F15078   1.981   2.185   6.684 -0.3054  0.3334  0.5346
  138OSM    H5F15079   2.083   2.208   6.647 -0.1546  0.7404  1.1780
  138OSM    H5G15080   1.963   2.078   6.662  3.7861  0.0465 -2.4767
  138OSM    C6F15081   1.999   2.195   6.837 -0.5709  0.1425 -0.0516
  138OSM    H6F15082   1.907   2.169   6.894  0.4527 -1.5849  0.8925
  138OSM    H6G15083   2.016   2.302   6.865  1.7775 -0.0543 -0.5049
  138OSM    C7F15084   2.117   2.099   6.888 -0.7108 -0.6476  0.1150
  138OSM    H7F15085   2.217   2.135   6.855 -1.4069  2.5182  1.1064
  138OSM    H7G15086   2.108   2.007   6.827 -0.1993 -1.1884  0.8290
  138OSM    C8F15087   2.103   2.070   7.037  0.1212 -0.0476  0.5204
  138OSM    H8F15088   2.155   1.974   7.060  2.4126  1.0451  0.1555
  138OSM    H8G15089   1.997   2.041   7.052 -0.1982  0.5932 -0.4112
  138OSM    C9F15090   2.153   2.177   7.126  0.3400  0.1063  0.1480
  138OSM    H9F15091   2.223   2.251   7.085  0.7826  0.1880  1.0374
  138OSM   C10F15092   2.128   2.188   7.256 -0.5340 -0.2235 -0.7832
  138OSM   H10F15093   2.173   2.274   7.307 -2.0920  1.2434 -1.8000
  138OSM   C11F15094   2.052   2.085   7.338  0.0887  0.5519 -0.9940
  138OSM   H11F15095   2.037   1.990   7.282  1.9677 -1.6146  1.8943
  138OSM   H11G15096   1.951   2.119   7.370  0.2290 -1.0942  1.4638
  138OSM   C12F15097   2.122   2.051   7.469 -0.7217 -0.4754 -1.1817
  138OSM   H12F15098   2.225   2.015   7.447 -1.0188 -1.6002 -0.7592
  138OSM   H12G15099   2.068   1.966   7.515 -0.6605 -0.3519 -0.8793
  138OSM   C13F15100   2.127   2.177   7.560  0.5314  0.2781  0.3070
  138OSM   H13F15101   2.020   2.203   7.578  0.4516 -0.1630  0.4771
  138OSM   H13G15102   2.171   2.268   7.514 -0.0333  0.7168  0.6152
  138OSM   C14F15103   2.207   2.154   7.699 -0.4976 -1.1074  0.1039
  138OSM   H14F15104   2.218   2.256   7.742 -0.4634 -0.7205 -0.7926
  138OSM   H14G15105   2.307   2.114   7.673  0.3653 -0.0446  1.6349
  138OSM   C15F15106   2.128   2.074   7.806 -0.1018 -0.9261  0.1360
  138OSM   H15F15107   2.112   1.969   7.775  0.9782 -1.3587  0.9841
  138OSM   H15G15108   2.030   2.125   7.797  1.4290  1.9983 -2.0205
  138OSM   C16F15109   2.185   2.073   7.948 -0.1751 -0.3882  0.2585
  138OSM   H16F15110   2.285   2.026   7.940 -0.0382 -0.0664  0.0414
  138OSM   H16G15111   2.113   2.013   8.007 -2.7400  1.5740 -0.6893
  138OSM   C17F15112   2.212   2.217   8.001  0.5526 -0.0564 -0.5604
  138OSM   H17F15113   2.120   2.273   7.974  0.6662  1.4578  1.9586
  138OSM   H17G15114   2.279   2.270   7.930 -0.4051 -1.2346 -2.4647
  138OSM   C18F15115   2.246   2.223   8.149  0.3405  0.3844 -0.2655
  138OSM   H18F15116   2.159   2.180   8.204 -0.7563  2.4049 -0.2916
  138OSM   H18G15117   2.266   2.326   8.187  1.9321 -0.1624  0.4391
  138OSM   H18H15118   2.333   2.159   8.172  0.5970  0.4242 -1.0968
  139OSM      N15119   0.875   3.783   6.209 -0.6986  0.0780  0.5354
  139OSM    C1515120   0.893   3.821   6.357 -0.0405 -0.2792  0.1364
  139OSM   H15A15121   0.921   3.741   6.423 -0.3026  1.2144  2.1559
  139OSM   H15B15122   0.800   3.859   6.395 -1.4781 -1.4418 -2.0033
  139OSM   H15C15123   0.969   3.898   6.351  0.4897 -0.8682 -1.2021
  139OSM    C1415124   0.806   3.652   6.195  0.2880  0.4864  0.0170
  139OSM   H14A15125   0.817   3.610   6.096  1.8921  1.4392 -0.2406
  139OSM   H14B15126   0.700   3.650   6.212  0.2573  0.1834 -0.1917
  139OSM   H14C15127   0.864   3.582   6.254  1.9252  2.3123  0.6907
  139OSM    C1315128   0.794   3.883   6.133 -0.1338  0.3410 -0.2963
  139OSM   H13A15129   0.784   3.838   6.035  0.9789 -0.9694  0.1557
  139OSM   H13B15130   0.852   3.972   6.114 -0.7051  0.5361 -1.1925
  139OSM   H13C15131   0.694   3.897   6.172  0.8259  1.3021  1.9867
  139OSM    C1215132   1.014   3.754   6.151  1.0669 -0.2463 -0.7766
  139OSM   H12A15133   0.997   3.703   6.057  0.9851  0.4825 -1.1631
  139OSM   H12B15134   1.067   3.686   6.216  0.8453  1.4825  1.3262
  139OSM    C1115135   1.107   3.869   6.114 -0.2637 -0.2894 -0.1927
  139OSM   H11A15136   1.071   3.905   6.015 -0.3672 -0.2443 -0.1397
  139OSM   H11B15137   1.210   3.830   6.110 -0.4468 -1.2717  2.4206
  139OSM      P15138   1.190   4.103   6.199 -0.0088  0.0060  0.2807
  139OSM    O1315139   1.339   4.076   6.192  0.0808 -0.3063  0.4057
  139OSM    O1415140   1.130   4.191   6.097  0.4341 -0.0147 -0.0391
  139OSM    O1115141   1.152   4.173   6.339 -0.1246 -0.3224  0.2950
  139OSM    O1215142   1.102   3.978   6.205  0.5115  0.0283 -0.0519
  139OSM    C1S15143   1.217   4.289   6.382 -0.6574  0.6825  0.3678
  139OSM    H1S15144   1.186   4.371   6.314 -2.7413 -0.3290  0.0382
  139OSM    H1T15145   1.324   4.257   6.386 -0.8466  0.1395  1.4653
  139OSM     NF15146   1.256   4.467   6.548  0.2948  0.1459 -0.0611
  139OSM    HNF15147   1.338   4.466   6.605 -0.9646 -1.4687  1.8342
  139OSM    C2S15148   1.184   4.338   6.521  0.2197  0.3242 -0.0218
  139OSM    H2S15149   1.076   4.363   6.530  0.1717 -0.6844  3.4756
  139OSM    C3S15150   1.216   4.228   6.619  0.5305  0.2289  0.5563
  139OSM    H3S15151   1.327   4.220   6.614  0.3900 -1.0521 -2.0622
  139OSM     O315152   1.155   4.103   6.589 -0.1458 -0.5188  0.1895
  139OSM    HO315153   1.098   4.119   6.514  0.7327 -1.4768 -0.7194
  139OSM    C4S15154   1.157   4.275   6.751  0.0212 -0.0384 -0.0652
  139OSM    H4S15155   1.049   4.258   6.756 -0.1453  1.2824  1.4770
  139OSM    C5S15156   1.216   4.324   6.860 -0.3303 -0.1286  0.5347
  139OSM    H5S15157   1.325   4.338   6.863 -0.1561 -1.5286  2.5054
  139OSM    C6S15158   1.141   4.361   6.989 -0.2374 -0.1277  0.6331
  139OSM    H6S15159   1.133   4.471   6.996  1.9997 -0.0184  2.8144
  139OSM    H6T15160   1.189   4.324   7.082 -3.0373 -4.4419  0.6790
  139OSM    C7S15161   1.004   4.310   7.004  0.8925  0.0838 -0.3403
  139OSM    H7S15162   1.010   4.199   6.995  1.7988 -0.1147  1.8673
  139OSM    H7T15163   0.942   4.354   6.924  0.8351 -0.2586 -0.4875
  139OSM    C8S15164   0.927   4.360   7.132  0.1364  1.0651  0.5694
  139OSM    H8S15165   0.832   4.308   7.106  0.7220  0.3164 -0.1074
  139OSM    H8T15166   0.904   4.468   7.126 -2.5374  0.5433 -0.0808
  139OSM    C9S15167   0.984   4.330   7.268 -1.0835 -0.3258  0.5113
  139OSM    H9S15168   1.044   4.419   7.297 -0.5564  0.4996 -2.7632
  139OSM    H9T15169   1.052   4.243   7.259 -0.1130  0.5377 -0.7951
  139OSM   C10S15170   0.872   4.307   7.370  0.6026  0.2016  0.1440
  139OSM   H10S15171   0.812   4.215   7.354 -1.1601  1.3093  0.2051
  139OSM   H10T15172   0.806   4.395   7.356 -1.7101 -1.7899 -2.6058
  139OSM   C11S15173   0.924   4.291   7.516 -0.4984 -0.2423 -0.1869
  139OSM   H11S15174   0.952   4.389   7.560  1.1273  0.1890 -2.0540
  139OSM   H11T15175   1.004   4.215   7.526  0.0749  0.4766  0.7662
  139OSM   C12S15176   0.815   4.246   7.610 -0.4047  0.3835 -0.7102
  139OSM   H12S15177   0.782   4.141   7.593 -0.2548  0.2223 -0.0395
  139OSM   H12T15178   0.730   4.317   7.620  1.1576  1.9732  2.4909
  139OSM   C13S15179   0.866   4.255   7.757 -0.0875 -0.3278  0.3020
  139OSM   H13S15180   0.905   4.356   7.781 -2.1803 -0.0236  2.8475
  139OSM   H13T15181   0.959   4.194   7.759  0.3673  0.3468  2.1482
  139OSM   C14S15182   0.770   4.211   7.864 -0.4096  0.4613  0.2414
  139OSM   H14S15183   0.725   4.116   7.827 -1.4572  0.9089  0.3247
  139OSM   H14T15184   0.698   4.292   7.886  1.4574  2.0733  0.6942
  139OSM   C15S15185   0.836   4.184   8.003 -0.7960  0.5913 -0.3115
  139OSM   H15S15186   0.858   4.287   8.039 -0.1500  0.3450  0.0230
  139OSM   H15T15187   0.933   4.130   7.994 -0.7912  0.5110  0.1809
  139OSM   C16S15188   0.744   4.123   8.107 -0.0098 -0.4833 -0.7203
  139OSM   H16S15189   0.703   4.026   8.071  2.0352 -2.0477  0.9209
  139OSM   H16T15190   0.669   4.205   8.104 -0.6659 -1.0688 -0.7336
  139OSM   C17S15191   0.816   4.082   8.231 -0.3265  0.0529 -0.2601
  139OSM   H17S15192   0.879   4.160   8.277 -1.1903  2.6164 -3.1149
  139OSM   H17T15193   0.890   3.999   8.225  0.2745  0.5019  0.7831
  139OSM   C18S15194   0.720   4.034   8.346  0.1186  0.7893  0.2245
  139OSM   H18S15195   0.666   3.942   8.318  0.3166  1.2214 -1.7189
  139OSM   H18T15196   0.646   4.112   8.373 -1.4989  0.1363 -2.0620
  139OSM   H18U15197   0.768   4.008   8.443 -3.3097 -3.0908  1.1158
  139OSM    C1F15198   1.226   4.576   6.490 -0.3852 -0.2697 -1.1454
  139OSM     OF15199   1.120   4.592   6.435  0.5249  0.7957 -0.1734
  139OSM    C2F15200   1.311   4.695   6.510  0.2618 -0.7742  0.2264
  139OSM    H2F15201   1.347   4.717   6.407 -0.0200 -0.1111  0.2667
  139OSM    H2G15202   1.399   4.672   6.575  0.0938  3.2656  2.1706
  139OSM    C3F15203   1.231   4.817   6.560 -0.6033 -0.0162  0.8323
  139OSM    H3F15204   1.152   4.829   6.483  1.0626  1.4221 -0.7125
  139OSM    H3G15205   1.281   4.914   6.583 -0.1331  0.1925 -0.9584
  139OSM    C4F15206   1.157   4.779   6.686  0.3644 -0.2275  0.1775
  139OSM    H4F15207   1.084   4.696   6.678  0.2689 -0.0083 -1.7225
  139OSM    H4G15208   1.090   4.866   6.702 -3.4237 -2.4582 -2.0665
  139OSM    C5F15209   1.238   4.762   6.817  0.2618  0.2968 -0.0255
  139OSM    H5F15210   1.305   4.850   6.811  0.5253  0.0682 -0.5269
  139OSM    H5G15211   1.291   4.665   6.808  0.1867  0.3430 -1.1118
  139OSM    C6F15212   1.152   4.759   6.947 -0.7018  0.0635 -0.0496
  139OSM    H6F15213   1.088   4.668   6.944  2.2098 -2.0876 -1.5360
  139OSM    H6G15214   1.084   4.848   6.949  0.2130  0.7694  0.9348
  139OSM    C7F15215   1.247   4.757   7.071 -0.1009  0.1214 -0.3227
  139OSM    H7F15216   1.317   4.843   7.075  1.0673 -0.7355 -1.5785
  139OSM    H7G15217   1.322   4.677   7.052 -0.4119  0.1211 -1.6382
  139OSM    C8F15218   1.175   4.712   7.199  0.0941 -0.0611 -0.4789
  139OSM    H8F15219   1.260   4.707   7.270 -0.4315 -1.2240  0.0793
  139OSM    H8G15220   1.128   4.612   7.193  0.6620 -0.4410  0.9233
  139OSM    C9F15221   1.084   4.819   7.247  0.3553 -0.0462  0.2393
  139OSM    H9F15222   1.087   4.909   7.183 -3.7029  2.4746  3.0787
  139OSM   C10F15223   1.018   4.826   7.358  0.0833 -0.3122  0.9791
  139OSM   H10F15224   0.953   4.913   7.377 -0.8722 -0.7042 -0.2994
  139OSM   C11F15225   1.013   4.716   7.458 -0.0940 -0.4199 -0.3883
  139OSM   H11F15226   1.014   4.615   7.412  0.1221  0.4136 -2.3131
  139OSM   H11G15227   0.920   4.716   7.519 -0.2171 -1.3906 -0.5539
  139OSM   C12F15228   1.126   4.725   7.569  0.4039 -0.0707 -0.9543
  139OSM   H12F15229   1.149   4.826   7.608  0.2659 -0.6209  0.6495
  139OSM   H12G15230   1.219   4.691   7.517 -0.9733 -4.6345 -0.9236
  139OSM   C13F15231   1.124   4.630   7.690  0.8133 -0.5878 -0.6151
  139OSM   H13F15232   1.218   4.617   7.748  0.2720 -0.3324  0.3358
  139OSM   H13G15233   1.107   4.531   7.643  1.3787 -0.3025 -1.4423
  139OSM   C14F15234   1.013   4.642   7.795  0.9231  0.5528  0.2610
  139OSM   H14F15235   1.002   4.549   7.853 -0.3766 -0.1162 -1.0103
  139OSM   H14G15236   0.916   4.654   7.743  1.0525 -1.7099 -0.6055
  139OSM   C15F15237   1.026   4.758   7.895  0.2660 -0.1887 -0.6071
  139OSM   H15F15238   0.989   4.846   7.838 -2.9834  0.0282  1.5537
  139OSM   H15G15239   1.130   4.784   7.924 -0.2811  0.9392  0.4363
  139OSM   C16F15240   0.941   4.730   8.017 -0.0360 -0.3430 -0.3238
  139OSM   H16F15241   0.840   4.688   7.995 -0.0857 -0.2874 -0.2040
  139OSM   H16G15242   0.916   4.825   8.068  2.6870  0.5503 -0.4882
  139OSM   C17F15243   1.003   4.642   8.123  0.1018  0.4085  0.3104
  139OSM   H17F15244   1.111   4.667   8.128  0.4940 -1.1957  0.3351
  139OSM   H17G15245   1.013   4.537   8.090 -0.7836 -0.1097  1.6236
  139OSM   C18F15246   0.930   4.646   8.258 -0.2008  0.6566  0.9876
  139OSM   H18F15247   0.965   4.734   8.316  3.3685  0.1331 -0.0943
  139OSM   H18G15248   0.946   4.555   8.320 -1.7935 -0.9272 -0.7708
  139OSM   H18H15249   0.822   4.648   8.235 -0.5237 -0.6183  2.2546
  140OSM      N15250   1.603   5.490   6.353  0.0589 -0.0975  0.0815
  140OSM    C1515251   1.579   5.342   6.323  0.2824  0.4528  0.0724
  140OSM   H15A15252   1.591   5.319   6.218 -1.0798  0.2283 -0.0536
  140OSM   H15B15253   1.475   5.333   6.349  0.5414 -0.2230  0.8802
  140OSM   H15C15254   1.629   5.273   6.389  1.7981  2.6209  1.3275
  140OSM    C1415255   1.519   5.570   6.255 -0.2807  0.3007 -1.0639
  140OSM   H14A15256   1.542   5.561   6.150 -0.0225  0.8097 -1.0539
  140OSM   H14B15257   1.515   5.674   6.285  2.2863  0.5217 -1.2833
  140OSM   H14C15258   1.417   5.537   6.244 -0.1614  0.0060 -1.2779
  140OSM    C1315259   1.552   5.510   6.496  0.0122 -0.3347 -0.6401
  140OSM   H13A15260   1.448   5.490   6.516  0.2222 -0.9169 -0.0991
  140OSM   H13B15261   1.574   5.610   6.532 -0.7781 -0.2186 -0.4588
  140OSM   H13C15262   1.607   5.440   6.558 -0.7499  0.4587  0.9980
  140OSM    C1215263   1.748   5.530   6.349  0.3530  0.0107  0.0889
  140OSM   H12A15264   1.756   5.637   6.352 -0.6100  0.0687  1.3047
  140OSM   H12B15265   1.791   5.507   6.252 -1.5303  1.4297 -1.1426
  140OSM    C1115266   1.852   5.465   6.451 -0.2068  0.1092  1.1085
  140OSM   H11A15267   1.830   5.503   6.553 -0.0433 -0.4454  1.3544
  140OSM   H11B15268   1.951   5.507   6.424 -0.8852  2.0398  1.4821
  140OSM      P15269   1.943   5.248   6.346  0.0053  0.0995  0.0142
  140OSM    O1315270   1.889   5.107   6.327  0.0078 -0.2217  0.0086
  140OSM    O1415271   1.962   5.335   6.221 -0.2879  0.5127 -0.3127
  140OSM    O1115272   2.084   5.242   6.422 -0.4618  0.7535  0.4273
  140OSM    O1215273   1.853   5.324   6.450 -0.6703  0.2557  0.1270
  140OSM    C1S15274   2.104   5.176   6.553  0.4766 -0.5466  0.3936
  140OSM    H1S15275   2.127   5.068   6.536  0.6663 -0.3008 -1.0833
  140OSM    H1T15276   2.012   5.191   6.613  0.3365 -2.1278  0.6317
  140OSM     NF15277   2.220   5.167   6.757  0.2385  0.0146  0.3635
  140OSM    HNF15278   2.193   5.228   6.832  0.7500 -3.2430  3.4927
  140OSM    C2S15279   2.221   5.228   6.628 -0.0776 -0.2535  0.4256
  140OSM    H2S15280   2.311   5.192   6.573  0.1953 -0.1153  0.7830
  140OSM    C3S15281   2.219   5.378   6.638  0.5857 -0.7012 -0.3667
  140OSM    H3S15282   2.124   5.413   6.683  0.8720 -1.6792  1.0527
  140OSM     O315283   2.227   5.444   6.507 -0.5372 -0.2143 -0.3290
  140OSM    HO315284   2.188   5.385   6.443  0.9728  1.1546 -2.6674
  140OSM    C4S15285   2.324   5.434   6.725 -0.1058 -0.9112 -0.1870
  140OSM    H4S15286   2.423   5.398   6.694  0.6502  0.7994  0.1435
  140OSM    C5S15287   2.315   5.534   6.819 -0.5430 -0.6805 -0.6301
  140OSM    H5S15288   2.215   5.570   6.845 -0.8543 -1.4229 -0.7803
  140OSM    C6S15289   2.431   5.590   6.904 -0.2605  0.0350 -0.2776
  140OSM    H6S15290   2.445   5.700   6.896  1.1371  0.1826  2.6169
  140OSM    H6T15291   2.527   5.536   6.885  0.7927  0.1760  3.6669
  140OSM    C7S15292   2.411   5.553   7.052  0.8966  0.0687  0.5296
  140OSM    H7S15293   2.416   5.442   7.064 -0.0009 -0.1098 -0.4892
  140OSM    H7T15294   2.310   5.582   7.089  1.2063 -1.9328  3.3260
  140OSM    C8S15295   2.518   5.619   7.148 -0.8086  0.8658  0.0885
  140OSM    H8S15296   2.520   5.728   7.125 -0.8481  0.8837  0.1715
  140OSM    H8T15297   2.619   5.579   7.123 -0.9064  1.4325 -1.3325
  140OSM    C9S15298   2.493   5.571   7.290  0.5010  0.5038  0.1762
  140OSM    H9S15299   2.442   5.473   7.297 -1.9537  1.4203 -2.5061
  140OSM    H9T15300   2.414   5.633   7.336 -2.0431 -1.7841 -0.8846
  140OSM   C10S15301   2.617   5.577   7.380 -0.2622  0.4230 -0.2936
  140OSM   H10S15302   2.652   5.681   7.365 -1.3902  0.6715 -1.3981
  140OSM   H10T15303   2.694   5.506   7.344 -1.5895 -2.0588  1.4727
  140OSM   C11S15304   2.607   5.521   7.528  0.2765 -0.3185  0.5468
  140OSM   H11S15305   2.692   5.567   7.583  1.7791 -1.1588 -0.9724
  140OSM   H11T15306   2.603   5.410   7.528 -1.7048 -0.2886  0.0288
  140OSM   C12S15307   2.475   5.567   7.594 -0.5309 -0.7618  0.6454
  140OSM   H12S15308   2.391   5.544   7.525 -0.6239  1.2156  0.0234
  140OSM   H12T15309   2.473   5.678   7.605  0.0386 -0.3702 -2.3415
  140OSM   C13S15310   2.440   5.503   7.723  0.4887 -0.2539 -0.5238
  140OSM   H13S15311   2.430   5.393   7.706  1.4348 -0.1369 -2.0342
  140OSM   H13T15312   2.349   5.552   7.763  1.8897  1.9457  0.1447
  140OSM   C14S15313   2.544   5.525   7.841 -0.5093  0.2529  0.3020
  140OSM   H14S15314   2.574   5.632   7.832 -0.7933  0.5256  2.3126
  140OSM   H14T15315   2.638   5.467   7.830 -0.5171  0.4120 -0.7764
  140OSM   C15S15316   2.492   5.486   7.978 -0.0560  0.1066  0.2274
  140OSM   H15S15317   2.394   5.534   7.998 -0.1737 -0.2727  0.5627
  140OSM   H15T15318   2.567   5.511   8.055  2.0854  0.1904 -1.7721
  140OSM   C16S15319   2.479   5.330   7.992  0.3092  0.3580  0.2232
  140OSM   H16S15320   2.577   5.279   8.006  0.0235 -0.4305 -0.5659
  140OSM   H16T15321   2.442   5.286   7.897  2.5302  0.9714 -0.9967
  140OSM   C17S15322   2.394   5.306   8.112 -0.2272 -0.0470 -0.4238
  140OSM   H17S15323   2.290   5.343   8.104  0.6929  3.4245  1.5355
  140OSM   H17T15324   2.434   5.366   8.197  0.7653  0.0488 -0.9443
  140OSM   C18S15325   2.397   5.159   8.156  0.0674  0.0235 -0.4808
  140OSM   H18S15326   2.343   5.158   8.253  0.1327  1.3653 -0.4122
  140OSM   H18T15327   2.501   5.123   8.169 -0.5622 -1.7374  0.0626
  140OSM   H18U15328   2.349   5.086   8.087  1.4691 -2.0873  0.6364
  140OSM    C1F15329   2.258   5.042   6.775 -0.2689 -0.4646  0.2040
  140OSM     OF15330   2.298   4.973   6.680 -0.4577  0.1058 -0.1489
  140OSM    C2F15331   2.246   4.984   6.915 -0.3970  0.5012  0.4102
  140OSM    H2F15332   2.158   5.034   6.962 -1.4609 -0.3634 -0.5870
  140OSM    H2G15333   2.341   5.009   6.967  0.0730  1.3069 -0.7910
  140OSM    C3F15334   2.220   4.838   6.899  0.0280  0.0614  0.4793
  140OSM    H3F15335   2.309   4.786   6.857 -0.9722 -0.9222 -0.4952
  140OSM    H3G15336   2.144   4.814   6.821  2.9791 -1.4200 -2.1315
  140OSM    C4F15337   2.204   4.743   7.018 -0.1387 -0.1548 -0.1564
  140OSM    H4F15338   2.290   4.768   7.083 -1.2636 -0.1795  1.3830
  140OSM    H4G15339   2.220   4.636   6.992 -1.2704 -0.2535 -0.4884
  140OSM    C5F15340   2.073   4.762   7.089  0.8554 -0.6666 -0.3485
  140OSM    H5F15341   1.982   4.736   7.031 -2.8444  0.7882  4.1295
  140OSM    H5G15342   2.056   4.871   7.104  0.3313 -0.9030  0.9496
  140OSM    C6F15343   2.056   4.696   7.222 -0.0798  1.0871 -0.2559
  140OSM    H6F15344   2.091   4.590   7.220 -2.1640  0.2352  2.3479
  140OSM    H6G15345   1.948   4.697   7.249 -0.0259  0.7531 -0.0170
  140OSM    C7F15346   2.154   4.767   7.329 -0.4111 -0.2045 -0.0568
  140OSM    H7F15347   2.126   4.872   7.350  0.4674 -0.2420  1.4644
  140OSM    H7G15348   2.255   4.765   7.282  0.0058 -0.8293  0.8351
  140OSM    C8F15349   2.175   4.694   7.469  0.7065  0.1247  0.7671
  140OSM    H8F15350   2.260   4.748   7.514  1.2640  1.0909 -1.3008
  140OSM    H8G15351   2.201   4.589   7.443  1.0781  0.0186  1.5650
  140OSM    C9F15352   2.043   4.705   7.542 -0.8464 -0.3329  0.0599
  140OSM    H9F15353   1.953   4.710   7.478 -0.9473  1.2439  0.2950
  140OSM   C10F15354   2.026   4.681   7.672 -0.0139  0.1219 -0.3804
  140OSM   H10F15355   1.930   4.698   7.722  0.4371 -0.9831  0.9275
  140OSM   C11F15356   2.132   4.634   7.770 -0.1375 -0.2459 -0.1742
  140OSM   H11F15357   2.220   4.595   7.715 -1.0920 -0.1884 -1.8114
  140OSM   H11G15358   2.089   4.554   7.833  1.1685 -1.3184 -0.6147
  140OSM   C12F15359   2.165   4.752   7.859 -0.2693 -0.2332 -0.6236
  140OSM   H12F15360   2.069   4.792   7.897 -0.8907 -1.4245 -0.8981
  140OSM   H12G15361   2.198   4.839   7.798 -0.5241  0.0654 -0.3414
  140OSM   C13F15362   2.281   4.734   7.964 -0.1260 -0.2323  0.1490
  140OSM   H13F15363   2.244   4.657   8.035  0.3965  0.1054  0.7879
  140OSM   H13G15364   2.294   4.834   8.011 -0.9197  0.7305 -1.5632
  140OSM   C14F15365   2.420   4.687   7.919 -0.0558  0.0334 -0.4231
  140OSM   H14F15366   2.474   4.762   7.858  2.7059 -0.0860  1.6518
  140OSM   H14G15367   2.405   4.586   7.874  2.1235 -1.1163  1.2394
  140OSM   C15F15368   2.503   4.675   8.043 -0.5559  0.0769  0.6203
  140OSM   H15F15369   2.513   4.774   8.092 -2.5357  0.1613  0.9209
  140OSM   H15G15370   2.602   4.632   8.018 -1.3786 -1.5419 -0.0213
  140OSM   C16F15371   2.456   4.569   8.154 -0.1361  0.1723  0.6141
  140OSM   H16F15372   2.383   4.496   8.113  0.4810  0.1543 -0.5140
  140OSM   H16G15373   2.400   4.628   8.230 -3.2093 -1.8668  0.1046
  140OSM   C17F15374   2.569   4.496   8.227  0.0908  0.0691 -0.3588
  140OSM   H17F15375   2.634   4.573   8.274 -0.1087  0.1682 -0.2421
  140OSM   H17G15376   2.633   4.441   8.155 -1.5217 -0.2886 -1.5856
  140OSM   C18F15377   2.513   4.403   8.324  0.2271  0.1239  0.5573
  140OSM   H18F15378   2.594   4.353   8.382  0.8026  1.5121  0.9886
  140OSM   H18G15379   2.452   4.323   8.277  1.4668 -1.0792  0.9223
  140OSM   H18H15380   2.450   4.456   8.398  0.8573  2.2981 -0.3868
  141OSM      N15381   6.693   0.305   6.173  0.0457 -0.7418  0.6094
  141OSM    C1515382   6.617   0.235   6.277 -0.4861  0.5423 -0.3291
  141OSM   H15A15383   6.681   0.229   6.363 -0.9566 -2.3090 -0.1008
  141OSM   H15B15384   6.594   0.136   6.241  0.1502  1.1313 -2.5754
  141OSM   H15C15385   6.532   0.295   6.307 -0.9487 -0.9269  1.4689
  141OSM    C1415386   6.816   0.227   6.135 -0.2796  0.2125 -0.3575
  141OSM   H14A15387   6.887   0.230   6.217  0.5723 -1.8885 -0.9588
  141OSM   H14B15388   6.868   0.257   6.045  2.0677 -0.3533  0.7345
  141OSM   H14C15389   6.793   0.122   6.125 -1.4044  0.5743 -1.7470
  141OSM    C1315390   6.606   0.313   6.054  0.1683  0.1179  0.1257
  141OSM   H13A15391   6.649   0.378   5.980  3.2996 -1.8226  0.0768
  141OSM   H13B15392   6.508   0.354   6.075  0.5511 -0.0517  2.5706
  141OSM   H13C15393   6.591   0.215   6.013 -1.5842  0.2903  0.2715
  141OSM    C1215394   6.718   0.443   6.218 -0.0745 -0.4371  0.6489
  141OSM   H12A15395   6.624   0.494   6.233 -1.1271 -1.5251 -1.7318
  141OSM   H12B15396   6.770   0.502   6.144  0.7651  1.8477  2.9382
  141OSM    C1115397   6.808   0.462   6.339 -0.3088 -0.7728  0.0861
  141OSM   H11A15398   6.759   0.434   6.434  1.7126  0.4674  1.5770
  141OSM   H11B15399   6.817   0.572   6.356  0.5307 -0.4895 -1.8305
  141OSM      P15400   7.069   0.485   6.309  0.1545 -0.1238  0.0897
  141OSM    O1315401   7.182   0.392   6.297  0.5180 -0.3573  0.2845
  141OSM    O1415402   7.040   0.593   6.207 -0.2292  0.2645  0.0540
  141OSM    O1115403   7.078   0.558   6.456 -0.2514 -0.1040  0.8117
  141OSM    O1215404   6.940   0.406   6.332  0.2005  0.2052  0.5123
  141OSM    C1S15405   7.103   0.473   6.566 -0.2107  0.4381  0.2650
  141OSM    H1S15406   7.213   0.460   6.567 -0.3899 -1.7479 -1.6294
  141OSM    H1T15407   7.052   0.374   6.561 -0.8921  0.7747  0.4255
  141OSM     NF15408   7.102   0.441   6.808 -0.8322 -0.2621  0.5694
  141OSM    HNF15409   7.031   0.394   6.861 -1.1894 -1.5431 -0.9620
  141OSM    C2S15410   7.063   0.535   6.701 -0.6449 -0.1017 -0.4062
  141OSM    H2S15411   7.127   0.626   6.710 -2.3193  1.0571  0.3690
  141OSM    C3S15412   6.915   0.570   6.707 -0.1137 -0.7174 -0.2865
  141OSM    H3S15413   6.855   0.477   6.704  0.3112 -1.1025  1.7813
  141OSM     O315414   6.873   0.644   6.592 -0.4969  0.3433  0.7568
  141OSM    HO315415   6.936   0.623   6.523 -1.1162  0.6166  0.1026
  141OSM    C4S15416   6.881   0.645   6.838  0.6361  0.2561  0.2240
  141OSM    H4S15417   6.833   0.579   6.912  1.0134 -1.0550 -0.6636
  141OSM    C5S15418   6.894   0.772   6.863  0.2497 -0.2463  0.3478
  141OSM    H5S15419   6.912   0.842   6.781  4.1598  1.3068  2.2676
  141OSM    C6S15420   6.867   0.834   6.997 -0.1050  0.1033 -0.0075
  141OSM    H6S15421   6.806   0.768   7.063 -2.3092  2.0963  0.0799
  141OSM    H6T15422   6.796   0.918   6.983 -1.4580 -0.4844  2.6834
  141OSM    C7S15423   7.001   0.875   7.056  0.5881 -0.3677 -0.1263
  141OSM    H7S15424   7.054   0.951   6.996  1.5216  0.2381  1.4133
  141OSM    H7T15425   7.073   0.791   7.058  1.8738  0.6867 -0.8766
  141OSM    C8S15426   6.995   0.934   7.201  0.3269  0.3293  0.1483
  141OSM    H8S15427   6.938   1.029   7.202 -0.9337 -0.3740  2.8653
  141OSM    H8T15428   7.101   0.958   7.223  0.0348  0.5436  1.3573
  141OSM    C9S15429   6.947   0.846   7.316 -0.3670  0.1316  0.7829
  141OSM    H9S15430   6.985   0.742   7.310  1.3392  0.7386  0.5481
  141OSM    H9T15431   6.838   0.833   7.299 -0.2330  1.2016 -1.1295
  141OSM   C10S15432   6.959   0.917   7.448  0.9431 -0.1262 -0.4951
  141OSM   H10S15433   6.912   1.015   7.424  0.6268  0.4926  2.3053
  141OSM   H10T15434   7.065   0.938   7.472  1.0596 -0.8199 -0.3967
  141OSM   C11S15435   6.891   0.853   7.559  0.4296 -0.5214 -0.3852
  141OSM   H11S15436   6.923   0.747   7.563  0.5670 -0.4625  0.1288
  141OSM   H11T15437   6.780   0.847   7.550  0.4052  0.6122 -1.0894
  141OSM   C12S15438   6.925   0.907   7.708 -0.1594  0.5172 -0.0384
  141OSM   H12S15439   6.847   0.980   7.738  1.2960  1.8979  0.5275
  141OSM   H12T15440   7.024   0.956   7.714  0.1955 -0.3205  1.7504
  141OSM   C13S15441   6.927   0.782   7.807  0.5692  0.1454 -0.0291
  141OSM   H13S15442   6.991   0.699   7.771  2.8450  0.9885  1.7909
  141OSM   H13T15443   6.826   0.737   7.814  0.5975  0.1096  0.1636
  141OSM   C14S15444   6.969   0.813   7.953  0.6850  0.5026 -0.2474
  141OSM   H14S15445   6.898   0.887   7.996  1.2456  0.7032  0.3558
  141OSM   H14T15446   7.062   0.874   7.948 -0.2088  2.0842  1.1755
  141OSM   C15S15447   6.986   0.682   8.043 -0.2949  0.2740 -0.1455
  141OSM   H15S15448   7.060   0.619   7.990 -0.8396 -0.9517  0.5246
  141OSM   H15T15449   6.889   0.628   8.046  0.1475 -0.4837  1.9417
  141OSM   C16S15450   7.016   0.707   8.195 -0.6614  0.7683 -0.2502
  141OSM   H16S15451   6.947   0.790   8.223 -1.4657 -0.6364  2.3165
  141OSM   H16T15452   7.123   0.737   8.191 -0.3123 -0.5210 -1.1336
  141OSM   C17S15453   6.981   0.596   8.296 -0.1997 -0.0777 -0.1858
  141OSM   H17S15454   7.031   0.633   8.388 -0.0961  0.6988 -0.5447
  141OSM   H17T15455   7.031   0.506   8.253 -1.4372  0.1468 -2.2489
  141OSM   C18S15456   6.839   0.568   8.308 -0.3794 -0.0767  0.3722
  141OSM   H18S15457   6.813   0.520   8.210 -2.0403  0.3595  0.5602
  141OSM   H18T15458   6.790   0.667   8.307 -0.0851  0.0957 -1.7673
  141OSM   H18U15459   6.817   0.502   8.395 -1.4498  0.0055  0.1832
  141OSM    C1F15460   7.229   0.410   6.827  0.5279 -0.8133 -0.1659
  141OSM     OF15461   7.320   0.473   6.776 -0.2449 -0.1950  0.0005
  141OSM    C2F15462   7.255   0.288   6.911 -0.0324  0.2664 -0.5698
  141OSM    H2F15463   7.182   0.204   6.903 -1.8191  1.3810  2.3318
  141OSM    H2G15464   7.249   0.318   7.018 -1.0191 -1.3414 -0.1416
  141OSM    C3F15465   7.391   0.224   6.886  0.8063 -0.4400 -0.1460
  141OSM    H3F15466   7.472   0.299   6.900  2.3602 -1.9535 -0.6030
  141OSM    H3G15467   7.384   0.181   6.784 -2.7886 -1.8156  0.5403
  141OSM    C4F15468   7.426   0.103   6.978 -0.9334  0.0054 -0.7925
  141OSM    H4F15469   7.528   0.074   6.944  0.2465 -0.9145  2.9878
  141OSM    H4G15470   7.357   0.016   6.975  0.5481 -1.1946 -2.2036
  141OSM    C5F15471   7.438   0.143   7.127  0.4795 -0.4539 -0.1516
  141OSM    H5F15472   7.332   0.158   7.159  0.1872 -0.0611 -1.2765
  141OSM    H5G15473   7.494   0.238   7.139  2.2446 -1.4002 -0.6294
  141OSM    C6F15474   7.518   0.050   7.208  0.1664  0.8736 -0.3576
  141OSM    H6F15475   7.608   0.021   7.150  0.4839  1.4320 -0.1456
  141OSM    H6G15476   7.453  -0.040   7.220 -0.9891  1.7308  0.0054
  141OSM    C7F15477   7.576   0.084   7.341 -0.1708 -0.6658  0.5603
  141OSM    H7F15478   7.496   0.106   7.414 -2.6596  0.0220 -2.2057
  141OSM    H7G15479   7.625   0.182   7.323 -0.2015 -0.3107  2.2813
  141OSM    C8F15480   7.679  -0.014   7.400 -0.7474 -0.4635  0.2711
  141OSM    H8F15481   7.752   0.050   7.455  0.2438 -1.4813  0.1873
  141OSM    H8G15482   7.743  -0.047   7.316 -1.9916 -1.4588 -0.3115
  141OSM    C9F15483   7.620  -0.127   7.470  0.8495  0.0644 -0.7162
  141OSM    H9F15484   7.548  -0.184   7.410 -0.2419  2.0835 -1.4148
  141OSM   C10F15485   7.635  -0.148   7.602  0.5079 -0.5916  0.4648
  141OSM   H10F15486   7.580  -0.230   7.649 -1.5923  0.2349 -0.4286
  141OSM   C11F15487   7.716  -0.065   7.699  0.6659  0.0135  0.3937
  141OSM   H11F15488   7.801  -0.009   7.654 -0.1627  2.9115  2.2085
  141OSM   H11G15489   7.760  -0.133   7.775 -0.3446 -0.8513  0.2365
  141OSM   C12F15490   7.616   0.026   7.783 -0.6098 -0.9520 -0.8457
  141OSM   H12F15491   7.535  -0.026   7.837 -0.6574  0.0276  0.0622
  141OSM   H12G15492   7.570   0.089   7.703 -2.0317 -1.4176 -0.4242
  141OSM   C13F15493   7.699   0.134   7.865  0.0233  0.0738 -0.1276
  141OSM   H13F15494   7.637   0.226   7.850 -0.4403 -0.2180 -0.0135
  141OSM   H13G15495   7.792   0.157   7.809  0.4601 -0.1783  0.4917
  141OSM   C14F15496   7.715   0.103   8.015  0.0385 -0.1937 -0.3802
  141OSM   H14F15497   7.801   0.165   8.051  0.0552  0.2341 -1.1266
  141OSM   H14G15498   7.738  -0.004   8.032 -0.3845 -0.2726 -0.3068
  141OSM   C15F15499   7.586   0.153   8.093 -0.1490 -0.5208  0.3628
  141OSM   H15F15500   7.583   0.264   8.094  1.3013 -0.4609  0.7181
  141OSM   H15G15501   7.599   0.108   8.195  0.0463 -0.8296  0.2052
  141OSM   C16F15502   7.451   0.107   8.040  0.4046  0.2846  0.0130
  141OSM   H16F15503   7.441  -0.004   8.035  1.5807  0.1434  0.4096
  141OSM   H16G15504   7.442   0.161   7.944 -1.7385  0.3975  0.2314
  141OSM   C17F15505   7.336   0.156   8.127 -0.0632  0.7784 -0.1754
  141OSM   H17F15506   7.246   0.144   8.064  0.9916 -1.7966 -1.3184
  141OSM   H17G15507   7.352   0.263   8.151  0.0976  0.6703  0.2083
  141OSM   C18F15508   7.312   0.072   8.256  0.3898  0.1509 -0.4327
  141OSM   H18F15509   7.395   0.089   8.327 -1.8024  0.4975  2.2099
  141OSM   H18G15510   7.303  -0.037   8.236 -1.6429 -0.0553  1.2006
  141OSM   H18H15511   7.223   0.116   8.306  0.8028  0.1739  0.2883
  142OSM      N15512   1.135   1.055   6.250  0.2642  0.8696  0.0495
  142OSM    C1515513   1.001   0.996   6.219  0.1028  0.5112 -0.5076
  142OSM   H15A15514   0.988   0.902   6.271  0.0872  1.0829  0.5481
  142OSM   H15B15515   0.978   0.992   6.114 -0.1241  0.7415 -0.4693
  142OSM   H15C15516   0.921   1.061   6.252 -0.6765  0.8620 -2.8682
  142OSM    C1415517   1.236   0.956   6.206 -0.0564  0.2778 -0.4538
  142OSM   H14A15518   1.223   0.856   6.245 -0.1394  0.4972  0.0825
  142OSM   H14B15519   1.335   0.988   6.236 -0.3172  0.2702  0.4571
  142OSM   H14C15520   1.243   0.952   6.098  0.8633 -0.4584 -0.3816
  142OSM    C1315521   1.155   1.178   6.163  0.5145 -0.2859  0.0980
  142OSM   H13A15522   1.261   1.196   6.151  0.0799  1.6131 -1.5525
  142OSM   H13B15523   1.113   1.262   6.215 -0.8357 -0.3296 -0.8728
  142OSM   H13C15524   1.108   1.168   6.066 -3.5887 -1.1063  1.9892
  142OSM    C1215525   1.159   1.105   6.398  0.1040 -0.1389 -0.2331
  142OSM   H12A15526   1.259   1.143   6.410 -0.4534  0.7947  2.0343
  142OSM   H12B15527   1.148   1.017   6.460 -1.8584  0.2420  0.0249
  142OSM    C1115528   1.070   1.222   6.458 -0.3447 -0.0937 -0.0289
  142OSM   H11A15529   1.103   1.232   6.564  1.3529  2.8144 -0.7109
  142OSM   H11B15530   0.964   1.189   6.454 -0.2897 -0.1847 -0.7269
  142OSM      P15531   0.969   1.449   6.385  0.2650 -0.3553  0.5533
  142OSM    O1315532   1.010   1.568   6.309 -0.3987 -0.8299 -0.5372
  142OSM    O1415533   0.850   1.376   6.333 -0.6307  0.0538  0.1848
  142OSM    O1115534   0.960   1.496   6.537  0.2298  0.5211 -0.4204
  142OSM    O1215535   1.095   1.347   6.392  0.4351  0.2062  0.0971
  142OSM    C1S15536   1.085   1.545   6.599 -0.0314  0.3422 -0.1216
  142OSM    H1S15537   1.129   1.624   6.534 -0.8304  1.5052  0.7140
  142OSM    H1T15538   1.159   1.463   6.611  1.4615  1.5279 -0.8876
  142OSM     NF15539   1.181   1.647   6.795  0.4159 -0.0009  0.4178
  142OSM    HNF15540   1.234   1.593   6.859 -0.7338 -1.3480  0.2863
  142OSM    C2S15541   1.056   1.591   6.742  0.3207 -0.0137 -0.1473
  142OSM    H2S15542   0.970   1.661   6.734 -0.1244 -0.5844 -0.4709
  142OSM    C3S15543   0.998   1.473   6.823 -0.3573 -0.1098  0.1854
  142OSM    H3S15544   1.074   1.393   6.819  0.6337  0.6692  2.1225
  142OSM     O315545   0.883   1.399   6.776  0.1666  0.3596  0.5120
  142OSM    HO315546   0.871   1.424   6.684  2.9558 -2.6342 -0.8902
  142OSM    C4S15547   0.982   1.520   6.969 -0.5562  0.4622  0.6428
  142OSM    H4S15548   1.072   1.504   7.031  0.0631 -1.9976 -0.7704
  142OSM    C5S15549   0.879   1.578   7.033 -0.1303  0.8208 -0.2386
  142OSM    H5S15550   0.782   1.597   6.984 -0.3189  0.3577 -0.0536
  142OSM    C6S15551   0.894   1.614   7.174 -0.1606 -0.3919  0.2623
  142OSM    H6S15552   0.932   1.718   7.178  1.3536 -0.9614  2.3987
  142OSM    H6T15553   0.959   1.546   7.234 -0.3223  1.1892  2.3339
  142OSM    C7S15554   0.763   1.612   7.257 -0.4832  0.9485 -0.2906
  142OSM    H7S15555   0.756   1.513   7.307  0.9148  1.0631  0.1765
  142OSM    H7T15556   0.671   1.640   7.201  0.0327  2.3213 -0.5004
  142OSM    C8S15557   0.772   1.699   7.385  0.7208  0.2712  1.2807
  142OSM    H8S15558   0.672   1.697   7.433  0.3424  1.6202  0.6045
  142OSM    H8T15559   0.775   1.807   7.358 -3.5364  0.3572  0.5280
  142OSM    C9S15560   0.876   1.659   7.486 -0.1238  0.3255 -0.1388
  142OSM    H9S15561   0.983   1.664   7.456 -0.0978  0.6451  0.0006
  142OSM    H9T15562   0.875   1.553   7.517  4.3395  0.0418 -0.2802
  142OSM   C10S15563   0.870   1.742   7.618 -0.2456  0.7138  0.0602
  142OSM   H10S15564   0.768   1.735   7.663  0.1940 -1.7845  0.7949
  142OSM   H10T15565   0.906   1.844   7.593  0.5230  0.2299 -0.8623
  142OSM   C11S15566   0.960   1.668   7.718 -0.8717  0.3754  0.0553
  142OSM   H11S15567   1.052   1.634   7.666 -0.4252 -0.4700  1.3622
  142OSM   H11T15568   0.890   1.585   7.738 -1.9258  1.8772  3.3113
  142OSM   C12S15569   1.001   1.739   7.852 -0.1967  0.9586 -0.6388
  142OSM   H12S15570   0.907   1.766   7.905  2.2270  2.9378  3.1248
  142OSM   H12T15571   1.066   1.822   7.816  3.3524 -1.4893 -0.3707
  142OSM   C13S15572   1.090   1.647   7.947 -0.3602 -0.7704 -1.0088
  142OSM   H13S15573   1.183   1.613   7.897 -0.2351 -1.0181 -0.6138
  142OSM   H13T15574   1.033   1.560   7.985 -1.0837  0.0468 -0.1879
  142OSM   C14S15575   1.140   1.725   8.081  0.3002 -0.7159  0.3219
  142OSM   H14S15576   1.068   1.690   8.158 -0.2525  1.0447  0.6539
  142OSM   H14T15577   1.133   1.833   8.057 -0.1556 -1.2214 -2.0822
  142OSM   C15S15578   1.283   1.692   8.123  0.0009 -0.2890 -0.2792
  142OSM   H15S15579   1.341   1.753   8.050 -0.0225  1.8580  1.4120
  142OSM   H15T15580   1.288   1.581   8.110 -1.1921 -0.0716 -3.9181
  142OSM   C16S15581   1.296   1.724   8.270 -0.0933  0.1337 -0.3736
  142OSM   H16S15582   1.226   1.667   8.335  0.5037  0.1090  0.2590
  142OSM   H16T15583   1.274   1.830   8.293 -0.7696  0.1165 -0.8946
  142OSM   C17S15584   1.439   1.709   8.326 -0.2836  0.1363  0.4372
  142OSM   H17S15585   1.501   1.792   8.287  1.7347  0.1253  3.3267
  142OSM   H17T15586   1.480   1.616   8.282  1.5444  1.4724 -0.7797
  142OSM   C18S15587   1.444   1.718   8.475  0.5016 -0.1145 -0.8475
  142OSM   H18S15588   1.395   1.816   8.493 -1.9128 -1.2827 -0.8041
  142OSM   H18T15589   1.548   1.728   8.514 -0.1702 -0.7908  1.2605
  142OSM   H18U15590   1.393   1.639   8.533  0.1885 -0.4588 -1.5834
  142OSM    C1F15591   1.232   1.765   6.740  0.8550  1.0092 -1.2207
  142OSM     OF15592   1.173   1.832   6.653  0.4209  0.2603 -0.1782
  142OSM    C2F15593   1.359   1.801   6.791 -0.1627  0.3844 -0.6362
  142OSM    H2F15594   1.418   1.853   6.712  1.4372 -1.1142 -0.4875
  142OSM    H2G15595   1.420   1.713   6.819  0.0927  1.1916  1.5546
  142OSM    C3F15596   1.358   1.890   6.916  0.6046  0.1519  0.2105
  142OSM    H3F15597   1.321   1.993   6.899 -3.7105 -1.4897 -1.6765
  142OSM    H3G15598   1.465   1.905   6.943  0.1067  0.9408  1.8867
  142OSM    C4F15599   1.290   1.826   7.042 -0.3946  0.1798 -0.8973
  142OSM    H4F15600   1.335   1.727   7.065 -1.1756 -0.0496 -0.3047
  142OSM    H4G15601   1.180   1.814   7.029 -0.4230 -1.5545  0.5538
  142OSM    C5F15602   1.314   1.919   7.164  0.0512  0.0607  0.3729
  142OSM    H5F15603   1.287   2.023   7.134  0.5519  0.1161  0.1072
  142OSM    H5G15604   1.424   1.912   7.180  0.0269 -1.5603 -0.0323
  142OSM    C6F15605   1.245   1.891   7.296 -0.6861  0.4109  0.0203
  142OSM    H6F15606   1.260   1.786   7.327  0.1098  0.3162 -0.6552
  142OSM    H6G15607   1.135   1.902   7.282 -0.8292 -0.4242  0.4304
  142OSM    C7F15608   1.299   1.990   7.398  0.2732 -0.3689  0.4164
  142OSM    H7F15609   1.299   2.093   7.354  1.6384 -0.8106 -0.6766
  142OSM    H7G15610   1.404   1.956   7.405  0.7867  0.2926 -2.6915
  142OSM    C8F15611   1.226   2.002   7.530  0.2687 -0.1782 -0.6366
  142OSM    H8F15612   1.118   2.005   7.503 -0.4587 -2.2136  1.7138
  142OSM    H8G15613   1.246   2.099   7.582 -0.2978 -0.4038  0.0257
  142OSM    C9F15614   1.252   1.883   7.621  0.2878 -0.4900 -0.2942
  142OSM    H9F15615   1.211   1.788   7.584 -1.1153  0.1959 -0.5873
  142OSM   C10F15616   1.335   1.886   7.731  0.2386  0.1665  0.5674
  142OSM   H10F15617   1.336   1.791   7.787 -1.2807  0.8628  1.8705
  142OSM   C11F15618   1.405   2.007   7.791 -0.0723 -0.2684  0.1503
  142OSM   H11F15619   1.351   2.103   7.797  1.6599  0.6616  3.4133
  142OSM   H11G15620   1.498   2.014   7.729 -0.5844 -3.3629 -1.1659
  142OSM   C12F15621   1.451   1.985   7.936 -0.0323  0.0014 -0.1008
  142OSM   H12F15622   1.475   1.877   7.946  0.3373  0.0706 -0.2266
  142OSM   H12G15623   1.367   2.004   8.006 -0.8642  0.3783 -1.1753
  142OSM   C13F15624   1.570   2.068   7.986 -0.1675  0.5576  0.5099
  142OSM   H13F15625   1.531   2.171   7.995  1.9396  1.3126  1.6276
  142OSM   H13G15626   1.659   2.068   7.920  1.3404 -0.9087  2.4095
  142OSM   C14F15627   1.619   2.043   8.130 -0.8128 -0.9254  0.0097
  142OSM   H14F15628   1.701   2.112   8.158 -1.8181 -0.0471  0.9319
  142OSM   H14G15629   1.661   1.942   8.148  1.6553  0.1183  0.5940
  142OSM   C15F15630   1.506   2.075   8.235 -0.1490 -0.1047  0.2676
  142OSM   H15F15631   1.429   1.996   8.221 -0.0752  0.0212 -0.9341
  142OSM   H15G15632   1.468   2.174   8.202  0.7936 -0.1991 -1.1895
  142OSM   C16F15633   1.562   2.099   8.374 -0.3296  0.6184  0.9417
  142OSM   H16F15634   1.622   2.014   8.412 -0.9431  0.7474  2.2693
  142OSM   H16G15635   1.468   2.095   8.434 -0.5462  0.5196  0.6003
  142OSM   C17F15636   1.643   2.224   8.393 -0.3426 -0.6726 -0.3280
  142OSM   H17F15637   1.578   2.309   8.363  0.5492  0.5043  0.9338
  142OSM   H17G15638   1.723   2.218   8.316 -1.9375 -0.7520 -2.0512
  142OSM   C18F15639   1.701   2.239   8.533  0.8317  0.4099 -1.6727
  142OSM   H18F15640   1.616   2.238   8.604  1.1633  0.3399 -1.2700
  142OSM   H18G15641   1.765   2.327   8.556 -1.0629  1.4160  0.0566
  142OSM   H18H15642   1.773   2.156   8.553 -1.8760 -1.2886  2.5159
  143OSM      N15643   3.167   3.254   6.235  0.3533  0.2881 -0.4413
  143OSM    C1515644   3.103   3.360   6.151 -0.5875  0.7793  0.0144
  143OSM   H15A15645   3.096   3.452   6.207  1.2099  0.0500  1.5654
  143OSM   H15B15646   3.004   3.333   6.118  0.0180  0.4072 -1.5799
  143OSM   H15C15647   3.161   3.378   6.061  0.9354  0.3555  0.8792
  143OSM    C1415648   3.165   3.132   6.143  0.2043 -0.1366  0.6578
  143OSM   H14A15649   3.218   3.049   6.187 -0.4943 -0.4806  0.8549
  143OSM   H14B15650   3.212   3.147   6.046  0.9474 -1.2811  0.8214
  143OSM   H14C15651   3.063   3.101   6.129 -0.5780  1.1809  2.8757
  143OSM    C1315652   3.305   3.290   6.264 -0.8474  0.2940 -0.6576
  143OSM   H13A15653   3.351   3.208   6.316  0.8524 -0.3393 -2.9970
  143OSM   H13B15654   3.313   3.386   6.312 -0.8278  0.4006 -0.8717
  143OSM   H13C15655   3.355   3.297   6.168  2.1598  1.2150  0.8556
  143OSM    C1215656   3.091   3.229   6.364  0.5903 -0.4332 -0.0410
  143OSM   H12A15657   3.120   3.136   6.411 -1.2728 -0.8770  0.2700
  143OSM   H12B15658   2.991   3.202   6.334  0.0278  1.2694  0.2467
  143OSM    C1115659   3.085   3.340   6.472  0.3117  0.4412 -0.2631
  143OSM   H11A15660   3.177   3.346   6.534  1.5521 -0.4104 -1.9556
  143OSM   H11B15661   3.021   3.313   6.559  3.2254 -0.9539  1.6006
  143OSM      P15662   2.916   3.544   6.432 -0.2406 -0.1151 -0.0619
  143OSM    O1315663   2.910   3.673   6.351 -0.2077  0.3002 -0.3459
  143OSM    O1415664   2.812   3.444   6.401 -0.0579 -0.5545 -0.0745
  143OSM    O1115665   2.911   3.578   6.581 -0.2143  0.5898 -0.4840
  143OSM    O1215666   3.055   3.471   6.418  0.8546 -0.2743  0.1197
  143OSM    C1S15667   3.028   3.632   6.655 -0.1108  0.5637 -0.2838
  143OSM    H1S15668   3.070   3.726   6.613  3.4285 -0.4064  0.7848
  143OSM    H1T15669   3.112   3.560   6.646 -1.1647 -0.7651  0.0825
  143OSM     NF15670   3.124   3.711   6.877 -0.3461  0.0420 -0.1561
  143OSM    HNF15671   3.192   3.658   6.927  0.7165 -0.3995 -1.9794
  143OSM    C2S15672   3.008   3.642   6.811 -0.3274 -0.6772 -0.4800
  143OSM    H2S15673   2.918   3.704   6.835  0.8185  1.4808 -1.4258
  143OSM    C3S15674   2.994   3.494   6.871 -0.4489 -0.1832  0.5029
  143OSM    H3S15675   3.092   3.444   6.853 -0.4998  0.3662 -1.5543
  143OSM     O315676   2.902   3.417   6.797  0.2297 -0.4762 -0.2775
  143OSM    HO315677   2.875   3.481   6.731 -2.7593 -0.4012  0.8564
  143OSM    C4S15678   2.960   3.481   7.018 -0.0226  0.0566  0.3150
  143OSM    H4S15679   3.047   3.468   7.084 -1.3303 -0.8350  1.9274
  143OSM    C5S15680   2.841   3.481   7.077  0.1765  0.6503 -0.4244
  143OSM    H5S15681   2.746   3.484   7.022 -0.3588  2.2303  0.5343
  143OSM    C6S15682   2.816   3.457   7.227 -0.1878 -0.3297 -0.2789
  143OSM    H6S15683   2.881   3.381   7.276 -0.4977  0.9617  2.3619
  143OSM    H6T15684   2.716   3.409   7.233 -0.1792 -0.2744  0.4874
  143OSM    C7S15685   2.803   3.593   7.293 -0.4410 -0.0874 -0.2111
  143OSM    H7S15686   2.727   3.657   7.242 -1.2985  0.5001  1.6879
  143OSM    H7T15687   2.902   3.636   7.269 -1.9707  3.0711 -1.3425
  143OSM    C8S15688   2.768   3.592   7.439 -0.5266  0.6774 -0.0144
  143OSM    H8S15689   2.667   3.552   7.461  0.6299 -2.7926 -0.3686
  143OSM    H8T15690   2.788   3.690   7.488  0.3393  0.9764 -0.9337
  143OSM    C9S15691   2.851   3.494   7.526 -0.2306  0.3141 -0.5920
  143OSM    H9S15692   2.839   3.385   7.509  1.2696 -0.3276  2.0374
  143OSM    H9T15693   2.812   3.508   7.629 -0.4230 -1.2871 -0.4251
  143OSM   C10S15694   2.998   3.527   7.525 -0.5099 -0.1978  1.0948
  143OSM   H10S15695   3.007   3.637   7.538  1.4679  0.3258 -3.0678
  143OSM   H10T15696   3.040   3.520   7.423  0.8010  0.2759  1.5828
  143OSM   C11S15697   3.079   3.458   7.631 -0.0881 -0.6326  0.1943
  143OSM   H11S15698   3.182   3.496   7.618 -0.2374 -0.3147 -0.0587
  143OSM   H11T15699   3.079   3.348   7.614 -1.3280 -0.5487 -0.4935
  143OSM   C12S15700   3.045   3.490   7.775  0.2202 -0.4265  0.8929
  143OSM   H12S15701   2.946   3.450   7.805  0.5191 -2.5000 -0.6166
  143OSM   H12T15702   3.047   3.601   7.780 -0.6535 -0.4406  1.6256
  143OSM   C13S15703   3.151   3.441   7.874  0.0908 -0.2573 -0.0016
  143OSM   H13S15704   3.129   3.467   7.979  0.6869  3.5951 -0.6696
  143OSM   H13T15705   3.240   3.498   7.839 -0.7373 -0.3170 -2.3868
  143OSM   C14S15706   3.187   3.283   7.874  0.4700  0.1417  0.1092
  143OSM   H14S15707   3.244   3.261   7.781 -1.3930  0.7042 -1.2155
  143OSM   H14T15708   3.094   3.225   7.858  1.5799 -2.1974  1.6512
  143OSM   C15S15709   3.263   3.246   7.994  0.0441  0.1250  0.1093
  143OSM   H15S15710   3.177   3.227   8.063 -1.9385  2.5244 -1.5076
  143OSM   H15T15711   3.331   3.321   8.039  1.5993 -0.8286 -0.6056
  143OSM   C16S15712   3.342   3.117   7.981  0.5386  0.1231 -0.1384
  143OSM   H16S15713   3.414   3.121   7.896 -0.3597 -1.3253 -1.0201
  143OSM   H16T15714   3.274   3.032   7.961 -0.5613  0.2817  2.5301
  143OSM   C17S15715   3.419   3.066   8.114  0.0763 -0.1358  0.3551
  143OSM   H17S15716   3.450   2.960   8.098  1.4464  0.6331 -3.0684
  143OSM   H17T15717   3.343   3.066   8.195 -1.3961  0.5757 -0.9773
  143OSM   C18S15718   3.541   3.156   8.144  0.4223 -0.4313 -0.2969
  143OSM   H18S15719   3.498   3.255   8.169  0.2046 -0.2293 -1.3956
  143OSM   H18T15720   3.594   3.181   8.049 -1.1300 -0.4237 -1.1934
  143OSM   H18U15721   3.600   3.115   8.229 -0.0338 -0.7775 -0.1394
  143OSM    C1F15722   3.142   3.843   6.860 -0.0045 -1.0879  0.5111
  143OSM     OF15723   3.071   3.907   6.780  0.9970  0.3194  0.2681
  143OSM    C2F15724   3.248   3.908   6.933 -0.4690  0.4976 -0.0599
  143OSM    H2F15725   3.340   3.936   6.876 -0.7692  1.9974  0.1408
  143OSM    H2G15726   3.274   3.846   7.021 -0.3947  1.3405  0.5256
  143OSM    C3F15727   3.210   4.051   6.986  0.9117 -0.0849 -0.3735
  143OSM    H3F15728   3.101   4.061   7.006  1.0365  0.6012 -0.0114
  143OSM    H3G15729   3.225   4.123   6.903 -1.3206  0.2707 -0.5373
  143OSM    C4F15730   3.296   4.096   7.109 -0.1488  0.6084  0.1855
  143OSM    H4F15731   3.295   4.205   7.133  0.0474  0.8750 -0.9777
  143OSM    H4G15732   3.401   4.067   7.088 -0.6552 -1.6335  0.5710
  143OSM    C5F15733   3.247   4.024   7.242  0.3157 -0.1729 -0.0342
  143OSM    H5F15734   3.267   3.916   7.226  1.7014 -0.0106  0.4384
  143OSM    H5G15735   3.137   4.031   7.248  0.2345 -0.2183 -1.2939
  143OSM    C6F15736   3.318   4.076   7.365 -0.3132 -0.3790  0.5789
  143OSM    H6F15737   3.427   4.074   7.344 -0.4598  2.6304 -1.0474
  143OSM    H6G15738   3.300   4.013   7.455  0.6579  0.2256  1.2203
  143OSM    C7F15739   3.287   4.228   7.396  0.3561 -0.3200 -0.1304
  143OSM    H7F15740   3.179   4.239   7.416  0.3887  2.0772 -1.0220
  143OSM    H7G15741   3.319   4.301   7.319 -0.3371  2.6550  2.2020
  143OSM    C8F15742   3.360   4.285   7.528 -0.1622 -0.0335 -0.5946
  143OSM    H8F15743   3.332   4.228   7.619 -2.2932  1.1164 -0.4473
  143OSM    H8G15744   3.305   4.381   7.538 -2.1225 -1.2783  1.3501
  143OSM    C9F15745   3.510   4.302   7.510  0.0919  0.5370 -0.9346
  143OSM    H9F15746   3.542   4.382   7.442  1.9592  0.7708  0.1450
  143OSM   C10F15747   3.608   4.229   7.570 -0.0273  0.4840 -0.2327
  143OSM   H10F15748   3.711   4.251   7.540  0.0669  1.2660  0.6243
  143OSM   C11F15749   3.594   4.111   7.659 -0.2342 -0.1145 -0.5234
  143OSM   H11F15750   3.651   4.019   7.635 -0.5619 -0.0729 -1.4982
  143OSM   H11G15751   3.485   4.091   7.664 -0.2321  0.0049  4.0065
  143OSM   C12F15752   3.649   4.154   7.800 -0.5407  0.0337  0.7705
  143OSM   H12F15753   3.569   4.213   7.850  0.6812  0.9233  1.7378
  143OSM   H12G15754   3.737   4.215   7.771 -0.6049 -0.8401 -1.4597
  143OSM   C13F15755   3.703   4.042   7.887 -0.6803 -0.1837  0.1075
  143OSM   H13F15756   3.771   3.972   7.834 -1.6489 -1.0985  0.0392
  143OSM   H13G15757   3.611   3.982   7.907 -0.1124 -0.9690  0.3752
  143OSM   C14F15758   3.768   4.079   8.024 -0.0883  0.4425 -0.7730
  143OSM   H14F15759   3.715   4.171   8.058  2.2740  1.5670  0.0979
  143OSM   H14G15760   3.870   4.122   8.016  0.8783 -1.5724 -0.0222
  143OSM   C15F15761   3.769   3.971   8.128  0.1207 -0.6336  0.3419
  143OSM   H15F15762   3.825   3.882   8.092  1.5202  1.0223 -1.8446
  143OSM   H15G15763   3.668   3.925   8.139 -0.6518  0.2769 -2.1640
  143OSM   C16F15764   3.832   4.025   8.258 -0.3372 -0.1215  0.0008
  143OSM   H16F15765   3.745   4.063   8.316 -0.0262 -2.2130  2.0172
  143OSM   H16G15766   3.905   4.105   8.237  1.9361 -1.1861  3.0568
  143OSM   C17F15767   3.898   3.926   8.345 -0.9254  0.6145  0.1203
  143OSM   H17F15768   3.986   3.890   8.286  1.3170  3.0651  1.7597
  143OSM   H17G15769   3.830   3.846   8.381  1.1505 -1.5625 -0.4318
  143OSM   C18F15770   3.961   4.002   8.473  0.0139 -1.0703 -0.3863
  143OSM   H18F15771   4.027   3.920   8.510 -0.7473 -2.6155 -2.2534
  143OSM   H18G15772   3.884   4.032   8.548  0.0357 -1.7495 -0.0847
  143OSM   H18H15773   4.006   4.096   8.435 -0.8291 -0.9854 -1.1985
  144OSM      N15774   2.067   4.063   6.246 -0.0272  0.3053 -0.0865
  144OSM    C1515775   2.058   4.048   6.096 -0.4208 -0.5035 -0.9778
  144OSM   H15A15776   2.154   4.050   6.047 -0.3843 -0.1182 -0.8954
  144OSM   H15B15777   1.985   4.114   6.052 -2.2874 -1.0870  1.0429
  144OSM   H15C15778   2.019   3.951   6.071 -1.5356 -0.5102  0.5876
  144OSM    C1415779   2.114   4.196   6.281 -0.2932 -0.5796  0.7744
  144OSM   H14A15780   2.046   4.278   6.269  1.3663  0.5291 -2.2535
  144OSM   H14B15781   2.211   4.196   6.232 -0.3704 -2.9722  0.5185
  144OSM   H14C15782   2.142   4.199   6.386  0.2210 -2.0199  0.7117
  144OSM    C1315783   1.921   4.056   6.288  0.0135 -0.5247  0.8886
  144OSM   H13A15784   1.880   3.956   6.277  0.1853 -0.3693 -2.0387
  144OSM   H13B15785   1.868   4.128   6.227  0.9031 -1.0916 -0.6138
  144OSM   H13C15786   1.906   4.082   6.391  2.9243  1.5567  0.9034
  144OSM    C1215787   2.147   3.957   6.318  1.3725  0.0338  0.7095
  144OSM   H12A15788   2.134   3.980   6.423 -2.2487 -0.4301  0.4964
  144OSM   H12B15789   2.251   3.974   6.299  1.2852 -0.2196  0.0007
  144OSM    C1115790   2.106   3.811   6.300  0.0326 -0.2597  0.1943
  144OSM   H11A15791   2.184   3.747   6.346  0.1957 -1.1448 -1.2346
  144OSM   H11B15792   2.104   3.785   6.192  0.1203 -0.1305  0.1614
  144OSM      P15793   1.928   3.637   6.343  0.4818 -0.0172 -0.1848
  144OSM    O1315794   1.782   3.628   6.360 -0.0999 -0.1490 -0.0014
  144OSM    O1415795   1.984   3.576   6.219  0.3828  0.4674 -0.5568
  144OSM    O1115796   1.988   3.567   6.467 -0.0450  0.1811  0.1912
  144OSM    O1215797   1.978   3.781   6.354  0.0448  0.1325 -0.3249
  144OSM    C1S15798   2.070   3.629   6.569 -0.0378 -0.6054 -0.7883
  144OSM    H1S15799   2.048   3.737   6.578  2.3737  0.0637 -2.1987
  144OSM    H1T15800   2.175   3.597   6.556 -0.0135 -0.5598 -0.7051
  144OSM     NF15801   2.127   3.638   6.809 -0.1770  0.0739 -0.0782
  144OSM    HNF15802   2.194   3.581   6.855  0.8290  1.6839  0.5404
  144OSM    C2S15803   2.035   3.573   6.718 -0.5067 -0.1947  0.3301
  144OSM    H2S15804   1.936   3.620   6.737  0.4821  0.9054  3.5513
  144OSM    C3S15805   2.024   3.422   6.718 -0.3822 -0.0298  0.1736
  144OSM    H3S15806   2.119   3.367   6.699 -1.3514 -1.7292 -0.0384
  144OSM     O315807   1.944   3.360   6.616 -0.7663 -0.0784 -0.2191
  144OSM    HO315808   1.949   3.428   6.549  0.0928  1.5168  1.3725
  144OSM    C4S15809   1.987   3.383   6.857  0.2075  0.5766 -0.3832
  144OSM    H4S15810   2.070   3.362   6.925  0.7735  0.0817 -1.2124
  144OSM    C5S15811   1.859   3.371   6.910 -0.1667 -0.2708 -0.0051
  144OSM    H5S15812   1.773   3.392   6.845  0.0216  1.6850  0.3266
  144OSM    C6S15813   1.841   3.324   7.051 -0.0550  0.5477 -0.2444
  144OSM    H6S15814   1.936   3.279   7.087  1.0856  0.8738 -2.6425
  144OSM    H6T15815   1.763   3.246   7.065  0.6145  0.0102  0.6481
  144OSM    C7S15816   1.786   3.431   7.154 -0.0089 -0.0832 -0.8610
  144OSM    H7S15817   1.770   3.380   7.251  2.4544  0.3837 -0.1434
  144OSM    H7T15818   1.691   3.473   7.113 -0.1184  0.1860 -0.3422
  144OSM    C8S15819   1.889   3.536   7.202 -0.0928 -0.4232 -0.2829
  144OSM    H8S15820   1.917   3.600   7.115  0.3971 -1.1443 -0.6649
  144OSM    H8T15821   1.982   3.492   7.243  0.2764 -0.2572 -0.9268
  144OSM    C9S15822   1.839   3.626   7.318 -0.5007  0.1500 -0.7867
  144OSM    H9S15823   1.816   3.563   7.407 -0.5174 -0.8134 -1.4555
  144OSM    H9T15824   1.747   3.676   7.280 -0.3261  0.8512 -0.2902
  144OSM   C10S15825   1.947   3.735   7.345 -0.0245 -0.6490 -0.4685
  144OSM   H10S15826   1.974   3.775   7.244 -0.5832  0.0835 -0.3348
  144OSM   H10T15827   2.032   3.680   7.390 -0.1152 -0.4354 -0.0372
  144OSM   C11S15828   1.880   3.849   7.420  0.3968  0.0111  0.7005
  144OSM   H11S15829   1.797   3.877   7.352  1.4841 -3.5816 -2.4229
  144OSM   H11T15830   1.943   3.940   7.426 -1.3854  1.3353  0.0224
  144OSM   C12S15831   1.820   3.809   7.564  0.3010  0.0978  0.6438
  144OSM   H12S15832   1.740   3.733   7.565  0.2318  0.1070  3.3377
  144OSM   H12T15833   1.775   3.898   7.613 -1.0389  0.3912 -1.0274
  144OSM   C13S15834   1.938   3.765   7.650 -0.0998  0.2746  0.3719
  144OSM   H13S15835   2.024   3.835   7.647  1.7786 -1.8995  0.7389
  144OSM   H13T15836   1.986   3.671   7.615  1.3337  1.4595 -1.0051
  144OSM   C14S15837   1.901   3.748   7.795  0.0961  0.2500  0.3195
  144OSM   H14S15838   1.813   3.684   7.818 -0.4615  1.2903  1.1243
  144OSM   H14T15839   1.870   3.850   7.825 -1.3595 -0.5468  1.6741
  144OSM   C15S15840   2.015   3.689   7.883 -0.6179 -0.8242  0.8390
  144OSM   H15S15841   2.040   3.590   7.840  1.2292  0.0195 -0.1434
  144OSM   H15T15842   1.984   3.668   7.988 -1.2493 -2.8151  0.2976
  144OSM   C16S15843   2.138   3.775   7.882 -0.5882  0.0429 -0.3314
  144OSM   H16S15844   2.115   3.882   7.900  2.2049  0.2208  3.6507
  144OSM   H16T15845   2.194   3.772   7.786  1.1204  0.0300  0.6220
  144OSM   C17S15846   2.246   3.736   7.991  0.6574  0.6080 -0.1502
  144OSM   H17S15847   2.267   3.628   7.976  2.7736  1.0398 -0.5563
  144OSM   H17T15848   2.195   3.741   8.090 -1.3858  0.1795 -1.1318
  144OSM   C18S15849   2.384   3.818   7.988  0.5040  1.2232 -0.2387
  144OSM   H18S15850   2.432   3.815   7.888 -2.0591  1.1119 -1.5487
  144OSM   H18T15851   2.448   3.799   8.077 -0.5762  3.2069  1.0310
  144OSM   H18U15852   2.360   3.923   8.014 -1.5216  1.1256 -1.4335
  144OSM    C1F15853   2.129   3.761   6.852 -0.0232 -0.3426  0.2467
  144OSM     OF15854   2.054   3.841   6.802 -0.1819 -0.4107 -0.3132
  144OSM    C2F15855   2.221   3.800   6.956 -0.1690  0.4229 -1.1873
  144OSM    H2F15856   2.317   3.832   6.911 -0.7015  4.0256 -0.0700
  144OSM    H2G15857   2.222   3.714   7.025 -2.4677  1.4035  0.1873
  144OSM    C3F15858   2.179   3.923   7.042 -0.5715 -0.0106  0.9761
  144OSM    H3F15859   2.079   3.906   7.087 -0.8679  2.6720  1.4847
  144OSM    H3G15860   2.172   4.016   6.982  0.9523 -0.3254  0.2584
  144OSM    C4F15861   2.279   3.952   7.162 -0.4190  0.2192  0.2473
  144OSM    H4F15862   2.270   4.056   7.199 -1.0716 -0.4032  1.9355
  144OSM    H4G15863   2.380   3.948   7.114 -1.0488  2.6978 -1.5048
  144OSM    C5F15864   2.275   3.845   7.266  0.1749 -0.1577  0.3348
  144OSM    H5F15865   2.280   3.744   7.218  0.2621 -0.3168  0.6785
  144OSM    H5G15866   2.173   3.836   7.310 -0.4871  0.6975 -0.9339
  144OSM    C6F15867   2.380   3.856   7.374  0.2707 -0.8534 -0.1019
  144OSM    H6F15868   2.478   3.824   7.335  0.9718  1.1009 -0.0261
  144OSM    H6G15869   2.348   3.790   7.458  1.1934 -1.9856 -0.6012
  144OSM    C7F15870   2.391   3.999   7.433  0.0691  0.7556 -0.2920
  144OSM    H7F15871   2.417   4.069   7.350  2.2955  0.5899  0.1951
  144OSM    H7G15872   2.477   4.005   7.504 -0.1735  0.0815  0.0606
  144OSM    C8F15873   2.263   4.029   7.506 -0.0606 -0.5366  0.0942
  144OSM    H8F15874   2.249   3.957   7.590  2.0705 -0.2093  0.7909
  144OSM    H8G15875   2.181   4.017   7.432  0.0638  3.0428 -0.8072
  144OSM    C9F15876   2.241   4.176   7.540 -0.3283  0.5882  0.0656
  144OSM    H9F15877   2.232   4.240   7.451 -0.0233  1.4943  0.6722
  144OSM   C10F15878   2.245   4.232   7.658 -0.2278 -0.1018 -0.2336
  144OSM   H10F15879   2.228   4.341   7.656  2.6814  0.4281 -1.4997
  144OSM   C11F15880   2.267   4.154   7.786  0.2505 -0.1665 -0.3827
  144OSM   H11F15881   2.315   4.054   7.777  1.0601  0.2027 -0.2933
  144OSM   H11G15882   2.173   4.150   7.845  0.5039  2.1176  0.2942
  144OSM   C12F15883   2.372   4.235   7.874 -0.3279 -0.0533 -0.4704
  144OSM   H12F15884   2.385   4.192   7.976  0.1101  1.4633  0.1444
  144OSM   H12G15885   2.334   4.338   7.887  0.3923  0.1156  0.3821
  144OSM   C13F15886   2.507   4.248   7.798 -0.7755 -0.2255 -0.3740
  144OSM   H13F15887   2.498   4.307   7.705 -2.2327  0.6975  0.3152
  144OSM   H13G15888   2.550   4.149   7.771 -0.6021 -0.0761 -0.6549
  144OSM   C14F15889   2.619   4.322   7.883  0.2299  0.9242  1.6109
  144OSM   H14F15890   2.636   4.251   7.967 -1.5724 -1.2036  0.2959
  144OSM   H14G15891   2.591   4.420   7.927 -0.9130  1.3146  0.1020
  144OSM   C15F15892   2.740   4.348   7.790 -0.4748  0.0596  0.4601
  144OSM   H15F15893   2.725   4.364   7.681  2.6298 -2.7205 -0.5809
  144OSM   H15G15894   2.793   4.250   7.793  0.4048  0.5245  0.6027
  144OSM   C16F15895   2.834   4.452   7.848  0.0368  0.3987 -0.2522
  144OSM   H16F15896   2.827   4.439   7.958  0.8620  0.2084 -0.2152
  144OSM   H16G15897   2.806   4.556   7.822  2.0730  1.3261  0.9691
  144OSM   C17F15898   2.977   4.433   7.807 -0.7678  1.0929 -0.3539
  144OSM   H17F15899   3.007   4.335   7.850  0.5434  0.7772 -1.8951
  144OSM   H17G15900   3.045   4.499   7.865  2.5913 -3.5898  1.6673
  144OSM   C18F15901   3.013   4.433   7.659  0.1940 -0.4275  0.9816
  144OSM   H18F15902   2.973   4.523   7.607  0.5225 -1.1908 -0.6563
  144OSM   H18G15903   2.964   4.344   7.613 -0.0001  0.2013 -0.0755
  144OSM   H18H15904   3.124   4.423   7.650  0.3418  0.1005  2.0787
  145SAPE     N15905   1.100   4.782  10.868  0.0728 -0.4232  0.1826
  145SAPE   HN115906   1.016   4.835  10.899  1.2129  1.9572 -0.6027
  145SAPE   HN215907   1.116   4.695  10.922 -1.2703 -1.5199 -1.0926
  145SAPE   HN315908   1.183   4.844  10.873 -0.4052  0.3363 -0.8167
  145SAPE   C1215909   1.092   4.750  10.723  0.4744 -0.2028 -0.8993
  145SAPE  H12A15910   1.013   4.673  10.713 -1.1764  1.4694 -1.3562
  145SAPE  H12B15911   1.194   4.718  10.693  0.7703 -1.1591  0.9580
  145SAPE   C1115912   1.046   4.869  10.632 -0.3005  0.8185 -0.1126
  145SAPE  H11A15913   0.943   4.899  10.660 -0.6881 -1.7631  1.5670
  145SAPE  H11B15914   1.045   4.835  10.526  0.2854  0.7552 -0.1008
  145SAPE     P15915   1.109   5.127  10.623  0.0096 -0.4380  0.0488
  145SAPE   O1315916   0.993   5.151  10.711 -0.7382 -0.0580 -0.2954
  145SAPE   O1415917   1.235   5.202  10.645 -0.1554 -0.9115 -0.1453
  145SAPE   O1215918   1.138   4.977  10.637 -0.6186 -0.4461 -0.0348
  145SAPE   O1115919   1.069   5.148  10.468  0.5760 -0.6349 -0.3979
  145SAPE    C115920   1.060   5.277  10.412 -0.0538  0.5753 -0.6065
  145SAPE    HA15921   1.143   5.339  10.451  1.3020 -1.0291 -0.8176
  145SAPE    HB15922   1.070   5.260  10.302 -0.1476  2.7721 -1.0199
  145SAPE    C215923   0.918   5.343  10.421 -0.5807 -0.3234 -0.1595
  145SAPE    HS15924   0.889   5.337  10.528 -0.3659  0.2439 -0.0641
  145SAPE   O2115925   0.830   5.272  10.340 -0.1932 -0.6479  0.3225
  145SAPE   C2115926   0.708   5.277  10.385 -0.2535 -0.7122  0.0965
  145SAPE   O2215927   0.665   5.340  10.482  0.1968 -0.0813 -0.2276
  145SAPE   C2215928   0.617   5.185  10.280 -0.2728 -0.1800 -0.3730
  145SAPE   H2R15929   0.645   5.084  10.315  0.4425 -0.7126 -2.3843
  145SAPE   H2S15930   0.514   5.223  10.299 -1.0390 -2.2612 -0.1657
  145SAPE    C315931   0.920   5.493  10.376  0.1000  0.2958  0.3996
  145SAPE    HX15932   0.990   5.545  10.445  0.2856  0.5906 -0.0042
  145SAPE    HY15933   0.819   5.537  10.391 -0.5245 -0.9289 -0.0534
  145SAPE   O3115934   0.969   5.510  10.239 -0.6220 -0.4840 -0.2270
  145SAPE   C3115935   0.873   5.535  10.145 -0.5554 -0.4136  1.1784
  145SAPE   O3215936   0.753   5.546  10.168 -0.4281  0.1911 -0.5039
  145SAPE   C3215937   0.932   5.559  10.008 -0.0344  0.4120  0.7598
  145SAPE   H2X15938   1.043   5.557  10.008  0.0035 -2.0833 -0.6002
  145SAPE   H2Y15939   0.892   5.653   9.964  0.1338 -0.0573 -0.4537
  145SAPE   C2315940   0.653   5.197  10.136 -0.2089  0.4105 -0.1529
  145SAPE   H3R15941   0.761   5.222  10.123  0.3423 -1.0687  1.2942
  145SAPE   H3S15942   0.603   5.288  10.094  1.1661  1.8443  1.1678
  145SAPE   C2415943   0.611   5.071  10.053 -0.0213 -0.0925 -0.1257
  145SAPE   H4R15944   0.598   5.113   9.951  2.6645  0.1477 -0.4318
  145SAPE   H4S15945   0.522   5.032  10.106 -0.6105  0.1687 -0.8942
  145SAPE   C2515946   0.719   4.967  10.045  0.0221 -0.6918 -0.3765
  145SAPE   H5R15947   0.774   4.942  10.137 -2.5534  2.0847  2.1458
  145SAPE   C2615948   0.762   4.914   9.924  0.0828  0.4342  0.4375
  145SAPE   H6R15949   0.840   4.837   9.916  0.4765  0.9139 -0.6426
  145SAPE   C2715950   0.713   4.949   9.787 -0.3329 -0.2759 -0.1672
  145SAPE   H7R15951   0.806   4.972   9.731  0.3570 -2.1148  0.1394
  145SAPE   H7S15952   0.666   5.049   9.789 -0.0533 -0.1466  0.0776
  145SAPE   C2815953   0.603   4.853   9.734 -0.6934 -0.2022  0.5815
  145SAPE   H8R15954   0.536   4.817   9.814  1.8153  0.8155  3.3111
  145SAPE   C2915955   0.581   4.821   9.612 -0.0031  0.0585 -1.2122
  145SAPE   H9R15956   0.508   4.740   9.596 -2.8574  2.3013 -0.5199
  145SAPE  C21015957   0.668   4.864   9.498 -0.0954 -0.0243  0.1645
  145SAPE  H10R15958   0.774   4.842   9.523 -0.2712 -0.1797  0.7961
  145SAPE  H10S15959   0.644   4.972   9.488 -1.1396 -0.2645 -0.0522
  145SAPE  C21115960   0.640   4.792   9.370  0.0203  0.1585  0.2562
  145SAPE  H11R15961   0.700   4.701   9.358  1.8707  1.3603 -0.0553
  145SAPE  C21215962   0.553   4.841   9.278 -0.1802  0.0860 -0.0117
  145SAPE  H12R15963   0.537   4.794   9.180 -1.5205  1.5169 -0.5198
  145SAPE  C21315964   0.460   4.965   9.287  0.6083  0.0088  0.3471
  145SAPE  H13R15965   0.481   5.037   9.205 -1.7538  1.8184  1.2140
  145SAPE  H13S15966   0.483   5.007   9.387 -0.6096 -2.9298  2.0005
  145SAPE  C21415967   0.316   4.921   9.283 -0.0494  0.4088 -0.1816
  145SAPE  H14R15968   0.270   4.928   9.383  0.6163  0.7100  0.1070
  145SAPE  C21515969   0.243   4.898   9.178  0.6536  0.4950  0.8338
  145SAPE  H15R15970   0.137   4.870   9.193  0.5655  0.3025 -0.0843
  145SAPE  C21615971   0.276   4.906   9.031 -0.1829 -0.0394  0.7072
  145SAPE  H16R15972   0.289   4.806   8.985  2.9077  1.0837 -1.1564
  145SAPE  H16S15973   0.372   4.958   9.010  0.3106 -0.4134  1.9291
  145SAPE  C21715974   0.151   4.971   8.962 -0.2332 -0.4423  0.1183
  145SAPE  H17R15975   0.142   5.077   8.993  0.8409 -0.3865  0.2722
  145SAPE  H17S15976   0.055   4.921   8.986  0.3256 -0.9174  1.4552
  145SAPE  C21815977   0.172   4.983   8.812 -0.2963 -0.5685  0.2552
  145SAPE  H18R15978   0.185   4.880   8.773  0.3457 -0.2665 -0.3549
  145SAPE  H18S15979   0.262   5.042   8.783 -1.1757  0.3049 -0.8014
  145SAPE  C21915980   0.060   5.050   8.738  0.0288 -0.0792 -0.0914
  145SAPE  H19R15981   0.079   5.160   8.742 -1.1833  0.1017  1.8842
  145SAPE  H19S15982  -0.036   5.030   8.790 -0.2914 -1.4876 -1.1647
  145SAPE  C22015983   0.055   4.997   8.594 -0.0435  0.8321  0.7926
  145SAPE  H20R15984   0.059   4.888   8.574 -4.3422  0.5446  0.5929
  145SAPE  H20S15985   0.143   5.041   8.543 -0.2899  2.0233  1.3582
  145SAPE  H20T15986  -0.040   5.032   8.548  0.1028  0.2568  0.0307
  145SAPE   C3315987   0.892   5.449   9.906 -0.6759 -0.6132 -0.7161
  145SAPE   H3X15988   0.909   5.491   9.804 -0.3045 -1.5378 -1.0494
  145SAPE   H3Y15989   0.786   5.416   9.916 -1.2102  0.6341 -1.9071
  145SAPE   C3415990   0.988   5.335   9.924  0.3683  0.1897  0.8714
  145SAPE   H4X15991   0.998   5.300  10.029  2.8539 -2.1348 -0.0270
  145SAPE   H4Y15992   1.087   5.381   9.905  0.9656 -0.7615  1.5959
  145SAPE   C3515993   0.951   5.209   9.845 -0.1712 -0.1969  0.3892
  145SAPE   H5X15994   0.846   5.202   9.810 -0.0829  1.3177 -0.2385
  145SAPE   H5Y15995   0.966   5.133   9.925  3.6764 -1.5624 -1.3984
  145SAPE   C3615996   1.049   5.169   9.725  1.1843  0.5828  0.4616
  145SAPE   H6X15997   1.041   5.060   9.705  3.3106  0.4146  0.3149
  145SAPE   H6Y15998   1.154   5.188   9.754  1.8763 -1.6358 -0.3477
  145SAPE   C3715999   1.007   5.244   9.600 -0.6419 -0.1637  1.1651
  145SAPE   H7X16000   1.012   5.351   9.628 -0.2179  0.2377 -0.3606
  145SAPE   H7Y16001   0.900   5.225   9.575 -0.4704  0.6074 -0.1810
  145SAPE   C3816002   1.093   5.214   9.473  0.2294 -0.1871 -0.5696
  145SAPE   H8X16003   1.119   5.106   9.472  0.3906 -0.1918  0.8310
  145SAPE   H8Y16004   1.190   5.258   9.506 -0.2613 -0.6772  1.6925
  145SAPE   C3916005   1.043   5.251   9.338  0.3694 -0.0731  0.9878
  145SAPE   H9X16006   1.111   5.218   9.256  0.3262  2.0315  0.0393
  145SAPE   H9Y16007   1.038   5.362   9.327 -1.3075 -0.3465 -2.5357
  145SAPE  C31016008   0.901   5.203   9.296  0.2790 -0.2212  0.0733
  145SAPE  H10X16009   0.812   5.249   9.345 -2.3428 -1.8675 -2.7509
  145SAPE  H10Y16010   0.891   5.099   9.332  2.4962 -0.3887  0.3560
  145SAPE  C31116011   0.888   5.225   9.142 -0.4472 -0.2957  0.4746
  145SAPE  H11X16012   0.979   5.185   9.092  0.2116  0.1130  1.3107
  145SAPE  H11Y16013   0.873   5.330   9.110  1.1320 -0.1078  0.2712
  145SAPE  C31216014   0.769   5.143   9.078  0.0555 -0.2317  0.1729
  145SAPE  H12X16015   0.671   5.194   9.092  0.5038  2.1212 -3.8326
  145SAPE  H12Y16016   0.771   5.038   9.114  1.1494 -0.9327 -1.7619
  145SAPE  C31316017   0.790   5.147   8.922  0.1170 -0.1255  0.1743
  145SAPE  H13X16018   0.881   5.092   8.889 -1.0004 -1.3681 -0.9523
  145SAPE  H13Y16019   0.807   5.253   8.892  0.1067  0.1292  1.0456
  145SAPE  C31416020   0.681   5.091   8.837  0.0663 -0.2473  0.2080
  145SAPE  H14X16021   0.697   5.126   8.733 -1.0514  1.3812  0.5427
  145SAPE  H14Y16022   0.584   5.141   8.857 -1.3008 -2.6080 -0.0728
  145SAPE  C31516023   0.674   4.944   8.849 -0.7854 -0.2536  0.4602
  145SAPE  H15X16024   0.639   4.917   8.951  1.5883 -1.6272  0.9903
  145SAPE  H15Y16025   0.778   4.912   8.827  0.0305  3.1811 -1.4199
  145SAPE  C31616026   0.576   4.878   8.744 -0.0760  0.2180  0.0041
  145SAPE  H16X16027   0.608   4.914   8.644  0.1040 -0.0060 -0.0198
  145SAPE  H16Y16028   0.472   4.917   8.750  0.8065  2.8661 -0.7812
  145SAPE  C31716029   0.565   4.727   8.769 -0.2274 -0.2286 -0.6120
  145SAPE  H17X16030   0.518   4.708   8.869  1.5482  1.5103  0.6262
  145SAPE  H17Y16031   0.670   4.698   8.790  0.0922  0.4877 -1.1999
  145SAPE  C31816032   0.497   4.655   8.658  1.0292  0.2881  0.1671
  145SAPE  H18X16033   0.387   4.670   8.650  1.0916  0.6487 -0.0332
  145SAPE  H18Y16034   0.524   4.547   8.655 -2.5517 -0.7378  0.4759
  145SAPE  H18Z16035   0.547   4.696   8.567  2.4026  1.1690  1.2794
  146SAPE     N16036   4.374   0.113  10.915 -0.4249 -0.1410  0.7611
  146SAPE   HN116037   4.456   0.170  10.946 -1.8999  1.8461  1.2120
  146SAPE   HN216038   4.283   0.159  10.938 -2.3536 -2.4122 -1.7733
  146SAPE   HN316039   4.379   0.019  10.960 -2.4815  0.0946  1.5700
  146SAPE   C1216040   4.386   0.099  10.761 -0.5610 -0.3167 -0.5868
  146SAPE  H12A16041   4.392   0.198  10.711 -2.0833  1.1106  1.8588
  146SAPE  H12B16042   4.302   0.037  10.725  0.5233 -1.4002 -1.3470
  146SAPE   C1116043   4.521   0.025  10.742  0.4366  0.4738  1.5712
  146SAPE  H11A16044   4.513  -0.008  10.636 -1.2589  2.7143  0.9204
  146SAPE  H11B16045   4.501  -0.074  10.789 -1.4082 -1.8993 -3.4988
  146SAPE     P16046   4.769   0.025  10.829  0.2704  0.1127 -0.0553
  146SAPE   O1316047   4.860   0.124  10.887 -0.0306 -0.0086 -0.1775
  146SAPE   O1416048   4.735  -0.096  10.911 -0.0000 -0.1017  0.0291
  146SAPE   O1216049   4.631   0.101  10.774 -0.0893  0.6500 -0.6477
  146SAPE   O1116050   4.845  -0.021  10.697 -0.0760 -0.0610  0.2714
  146SAPE    C116051   4.846   0.079  10.594 -0.2555 -0.7362 -0.1294
  146SAPE    HA16052   4.812   0.030  10.500 -2.5578 -2.2157  1.3702
  146SAPE    HB16053   4.773   0.163  10.597  2.7857  2.1262 -0.2260
  146SAPE    C216054   4.987   0.145  10.589 -0.0606  0.1541 -0.0720
  146SAPE    HS16055   4.998   0.196  10.687  0.0832 -1.6386  0.8872
  146SAPE   O2116056   5.000   0.232  10.471  0.3376  0.4079 -0.4930
  146SAPE   C2116057   4.915   0.338  10.469 -0.1931  0.5549  0.7610
  146SAPE   O2216058   4.848   0.379  10.563  0.3867  1.1308  0.1521
  146SAPE   C2216059   4.922   0.401  10.330  0.0067 -0.3932  0.1533
  146SAPE   H2R16060   4.972   0.336  10.255  1.9458  0.2347  0.8404
  146SAPE   H2S16061   4.818   0.416  10.296  0.3868  1.1492 -0.3850
  146SAPE    C316062   5.093   0.033  10.589 -0.2855  0.4293 -0.2609
  146SAPE    HX16063   5.062  -0.040  10.511  0.8198  0.5361 -0.8360
  146SAPE    HY16064   5.092  -0.025  10.684 -3.3555 -0.2201 -0.5947
  146SAPE   O3116065   5.216   0.083  10.544  1.1942 -0.0919  0.3263
  146SAPE   C3116066   5.281   0.152  10.636 -0.6106  0.0401 -0.1793
  146SAPE   O3216067   5.235   0.180  10.746 -0.1410 -0.1795 -0.5990
  146SAPE   C3216068   5.429   0.172  10.591 -0.5359  0.1357  0.3882
  146SAPE   H2X16069   5.459   0.081  10.535  1.4053 -0.7477  2.7018
  146SAPE   H2Y16070   5.484   0.169  10.687 -1.4973 -0.7464  0.9270
  146SAPE   C2316071   4.995   0.536  10.328  0.6366 -0.6146 -0.4529
  146SAPE   H3R16072   5.100   0.520  10.360 -0.1791 -3.0616  1.2468
  146SAPE   H3S16073   4.948   0.610  10.396  0.9121 -2.2072  1.5793
  146SAPE   C2416074   5.005   0.599  10.192  0.3467 -0.3653 -0.3507
  146SAPE   H4R16075   5.052   0.527  10.122  0.0149  0.1694 -1.1388
  146SAPE   H4S16076   5.083   0.677  10.205  1.1477 -1.1383 -0.4535
  146SAPE   C2516077   4.878   0.653  10.138 -0.2821 -0.1602 -0.0498
  146SAPE   H5R16078   4.799   0.666  10.214 -0.1314  1.8725 -0.1984
  146SAPE   C2616079   4.850   0.661  10.006  0.3955  0.3879 -0.2409
  146SAPE   H6R16080   4.757   0.711   9.976 -0.9614 -1.7666  0.1433
  146SAPE   C2716081   4.941   0.616   9.899 -0.3687 -0.1606  0.6527
  146SAPE   H7R16082   5.049   0.613   9.921  0.0955 -0.9108 -1.4501
  146SAPE   H7S16083   4.938   0.690   9.816  2.7131 -2.4373 -1.7249
  146SAPE   C2816084   4.914   0.479   9.841 -0.5047 -0.3767  0.9166
  146SAPE   H8R16085   4.904   0.397   9.914 -1.9623 -0.1376  1.0197
  146SAPE   C2916086   4.892   0.444   9.709 -0.6427  0.1108 -0.0345
  146SAPE   H9R16087   4.864   0.341   9.682 -1.4280  0.6548 -1.3359
  146SAPE  C21016088   4.897   0.541   9.598 -0.5360 -0.4937  0.1797
  146SAPE  H10R16089   4.992   0.523   9.545 -0.6850 -1.6353  0.2823
  146SAPE  H10S16090   4.903   0.645   9.638  0.0380  0.1506 -1.5220
  146SAPE  C21116091   4.774   0.526   9.514 -0.6406 -0.9099  0.0573
  146SAPE  H11R16092   4.690   0.464   9.550 -0.8669 -2.0065 -2.1853
  146SAPE  C21216093   4.747   0.587   9.394 -0.7882  0.9273 -0.0450
  146SAPE  H12R16094   4.649   0.577   9.343 -0.1384 -2.3625 -0.8735
  146SAPE  C21316095   4.851   0.679   9.330  0.2880 -0.9276 -0.0180
  146SAPE  H13R16096   4.933   0.624   9.278  0.4904 -3.0893  2.4257
  146SAPE  H13S16097   4.907   0.731   9.411  1.2152 -3.8468  1.3657
  146SAPE  C21416098   4.785   0.781   9.252 -0.1245  0.4887  0.6325
  146SAPE  H14R16099   4.719   0.850   9.307 -1.3696  1.0818 -1.4676
  146SAPE  C21516100   4.809   0.810   9.123  0.4862  0.3272 -0.0197
  146SAPE  H15R16101   4.746   0.883   9.071  0.1801  0.4337  0.4895
  146SAPE  C21616102   4.889   0.736   9.022  0.0955  0.4395  0.0080
  146SAPE  H16R16103   4.946   0.653   9.068  1.6588  1.6221  0.2994
  146SAPE  H16S16104   4.957   0.805   8.967  0.1227 -0.6913 -1.4149
  146SAPE  C21716105   4.814   0.670   8.901  0.1136  0.2408 -0.3242
  146SAPE  H17R16106   4.895   0.606   8.861 -1.5492 -1.4075 -1.1785
  146SAPE  H17S16107   4.788   0.741   8.820 -2.9058 -0.5078 -0.1246
  146SAPE  C21816108   4.693   0.597   8.941  0.4512  0.1362  0.5280
  146SAPE  H18R16109   4.601   0.659   8.941  1.0731  1.0793  0.8146
  146SAPE  H18S16110   4.700   0.546   9.040 -0.0936 -0.3549  0.3189
  146SAPE  C21916111   4.669   0.487   8.849 -0.1964  0.3487  0.5403
  146SAPE  H19R16112   4.573   0.440   8.878  1.4734 -1.8416  2.9297
  146SAPE  H19S16113   4.748   0.410   8.859 -0.5881 -0.1104  0.1836
  146SAPE  C22016114   4.649   0.525   8.699 -0.5391  0.5298  0.2576
  146SAPE  H20R16115   4.585   0.614   8.677 -2.5775 -1.1771 -1.0541
  146SAPE  H20S16116   4.615   0.437   8.642  1.3292 -0.0338 -0.0479
  146SAPE  H20T16117   4.750   0.553   8.664 -0.0732  0.8115  1.7287
  146SAPE   C3316118   5.443   0.292  10.498  0.2298 -0.3257 -0.3547
  146SAPE   H3X16119   5.551   0.317  10.499 -0.0053  1.0259 -2.7477
  146SAPE   H3Y16120   5.374   0.374  10.526 -0.6715 -1.4164  0.7739
  146SAPE   C3416121   5.411   0.265  10.357 -0.3482  0.5687 -0.1078
  146SAPE   H4X16122   5.306   0.229  10.362  0.0815 -0.6976  0.3831
  146SAPE   H4Y16123   5.481   0.192  10.312  1.2646  1.3526  1.0274
  146SAPE   C3516124   5.414   0.388  10.266 -0.4889  0.3472 -0.0835
  146SAPE   H5X16125   5.521   0.402  10.239  0.2359 -1.8934  1.3370
  146SAPE   H5Y16126   5.372   0.478  10.315 -0.4430  0.6925 -0.6622
  146SAPE   C3616127   5.314   0.382  10.147 -0.3749 -0.2492  0.1448
  146SAPE   H6X16128   5.276   0.482  10.118  0.3413 -0.3257 -1.1211
  146SAPE   H6Y16129   5.230   0.313  10.173 -0.1222 -1.7120 -2.5364
  146SAPE   C3716130   5.379   0.322  10.019 -0.6004 -0.0056 -0.1084
  146SAPE   H7X16131   5.383   0.211  10.031 -0.1611  0.0604  0.3796
  146SAPE   H7Y16132   5.479   0.362   9.993  0.0348 -0.8454  0.9295
  146SAPE   C3816133   5.280   0.357   9.908  0.6020 -0.1991 -0.0963
  146SAPE   H8X16134   5.272   0.465   9.886  0.5977 -0.6469 -2.6562
  146SAPE   H8Y16135   5.191   0.299   9.940  2.2554 -2.3005  0.9404
  146SAPE   C3916136   5.334   0.293   9.771 -0.5368 -0.6275  0.2572
  146SAPE   H9X16137   5.372   0.192   9.798 -0.4826 -1.0232 -1.2211
  146SAPE   H9Y16138   5.418   0.361   9.743  0.2232 -0.6526  2.3072
  146SAPE  C31016139   5.231   0.277   9.658  0.0516  0.3586  0.1206
  146SAPE  H10X16140   5.173   0.372   9.655 -0.1209  0.2495  0.0058
  146SAPE  H10Y16141   5.162   0.192   9.679 -1.2751  1.2919 -0.3538
  146SAPE  C31116142   5.297   0.260   9.523 -0.0627 -0.5914  0.0935
  146SAPE  H11X16143   5.356   0.166   9.520  1.0919  0.1477 -1.3060
  146SAPE  H11Y16144   5.383   0.327   9.501  0.1458 -0.1574  1.9870
  146SAPE  C31216145   5.199   0.269   9.407  0.1611  0.3467 -0.1015
  146SAPE  H12X16146   5.142   0.363   9.418  1.7716  1.3626 -0.1353
  146SAPE  H12Y16147   5.128   0.184   9.411 -0.6272  1.0398  1.2325
  146SAPE  C31316148   5.269   0.263   9.268  0.3072 -0.2697  0.0318
  146SAPE  H13X16149   5.264   0.155   9.242  0.5432 -0.1633 -0.4472
  146SAPE  H13Y16150   5.364   0.320   9.275 -1.9869  3.8965  0.9013
  146SAPE  C31416151   5.188   0.328   9.147 -0.1587  0.3174 -0.4651
  146SAPE  H14X16152   5.173   0.438   9.157  0.0939  0.2440  0.7820
  146SAPE  H14Y16153   5.090   0.277   9.132 -0.1535  0.3035 -0.4477
  146SAPE  C31516154   5.253   0.302   9.011 -0.2528  0.0877 -0.3207
  146SAPE  H15X16155   5.286   0.196   9.013  1.6956  0.6557  0.3900
  146SAPE  H15Y16156   5.340   0.369   8.998 -0.6434  0.4810 -0.9384
  146SAPE  C31616157   5.149   0.335   8.902  0.4701 -0.1794 -0.6615
  146SAPE  H16X16158   5.124   0.443   8.913  1.2047 -0.2158  2.4804
  146SAPE  H16Y16159   5.056   0.275   8.914 -0.8482  1.0797 -3.5312
  146SAPE  C31716160   5.201   0.314   8.762  0.4728  0.6269  0.2149
  146SAPE  H17X16161   5.212   0.205   8.748  2.2172  0.5976  1.3857
  146SAPE  H17Y16162   5.302   0.359   8.747  0.6682  0.5608  1.2426
  146SAPE  C31816163   5.116   0.382   8.657 -0.7094 -0.0069  0.1720
  146SAPE  H18X16164   5.012   0.349   8.680 -0.4413  0.3367  2.0939
  146SAPE  H18Y16165   5.140   0.345   8.555  0.5785 -0.3786  0.5992
  146SAPE  H18Z16166   5.108   0.491   8.674  2.0309  0.5018 -1.3313
  147SAPE     N16167   6.585   2.012  10.712  0.1786  0.3323 -0.9083
  147SAPE   HN116168   6.497   1.957  10.710 -0.0192  0.5833  0.1140
  147SAPE   HN216169   6.577   2.097  10.653 -1.1213  0.2432 -0.8943
  147SAPE   HN316170   6.665   1.966  10.666  1.2543  1.2523 -0.0149
  147SAPE   C1216171   6.622   2.069  10.845 -0.0655  0.7252  1.3735
  147SAPE  H12A16172   6.678   1.990  10.899 -0.0247 -0.5438 -0.4442
  147SAPE  H12B16173   6.530   2.089  10.904 -0.9035 -1.3348  0.8104
  147SAPE   C1116174   6.690   2.205  10.829 -0.2055 -0.1100 -0.2854
  147SAPE  H11A16175   6.716   2.241  10.931  1.4284  0.4102 -0.8508
  147SAPE  H11B16176   6.625   2.276  10.774  0.6311 -0.5031 -1.8425
  147SAPE     P16177   6.916   2.287  10.733 -0.2316  0.2067 -0.0930
  147SAPE   O1316178   6.906   2.378  10.847 -0.3519 -0.0802  0.0080
  147SAPE   O1416179   7.041   2.216  10.725  0.2594  0.4262  0.0963
  147SAPE   O1216180   6.805   2.184  10.745  0.2805 -0.7239 -0.6293
  147SAPE   O1116181   6.880   2.358  10.597  0.1749 -0.0234  0.2714
  147SAPE    C116182   6.805   2.300  10.487  0.1629 -0.3145  0.0262
  147SAPE    HA16183   6.786   2.193  10.506  2.2355 -1.1391 -2.0400
  147SAPE    HB16184   6.713   2.361  10.475  0.3859 -0.3713 -2.3997
  147SAPE    C216185   6.874   2.309  10.347 -0.2060  0.8896  0.3601
  147SAPE    HS16186   6.818   2.248  10.273 -0.2946  1.7639 -0.3143
  147SAPE   O2116187   7.009   2.264  10.362  0.1417 -0.2761  0.2447
  147SAPE   C2116188   7.036   2.140  10.393  0.2109  0.3140  0.4914
  147SAPE   O2216189   6.959   2.044  10.396  0.1409 -0.0535 -0.1591
  147SAPE   C2216190   7.187   2.140  10.432 -0.2545  0.1333  0.3168
  147SAPE   H2R16191   7.247   2.230  10.406 -0.0735 -0.4053 -1.2592
  147SAPE   H2S16192   7.195   2.140  10.542 -1.6733  2.8262  0.5019
  147SAPE    C316193   6.872   2.444  10.278  0.1379  0.4504  0.5601
  147SAPE    HX16194   6.935   2.511  10.341  0.0943  1.3564 -0.3269
  147SAPE    HY16195   6.770   2.485  10.291  0.6899  1.5313  1.8167
  147SAPE   O3116196   6.919   2.438  10.142 -0.0275 -0.2188  0.0061
  147SAPE   C3116197   6.987   2.543  10.096 -0.2914  0.1719  0.2474
  147SAPE   O3216198   6.993   2.652  10.156  1.1962 -0.3577 -0.0199
  147SAPE   C3216199   7.054   2.513   9.959  0.3732  0.5716 -0.1982
  147SAPE   H2X16200   7.148   2.571   9.956 -0.2064  1.4898 -1.8502
  147SAPE   H2Y16201   6.980   2.533   9.878 -3.1048 -1.6154  2.1740
  147SAPE   C2316202   7.248   2.019  10.370  0.3933  0.3856 -0.5124
  147SAPE   H3R16203   7.184   1.928  10.369 -0.0739  0.5515  2.8953
  147SAPE   H3S16204   7.341   1.987  10.423  0.7633 -0.0736 -1.4075
  147SAPE   C2416205   7.312   2.045  10.228  0.4686 -0.0825 -0.4802
  147SAPE   H4R16206   7.224   2.065  10.163  0.0799 -0.9655 -0.2450
  147SAPE   H4S16207   7.351   1.949  10.188  0.1866  0.3302 -1.7914
  147SAPE   C2516208   7.432   2.133  10.220  0.0884  0.2015 -0.3011
  147SAPE   H5R16209   7.472   2.168  10.317 -1.1349  0.5599  0.0890
  147SAPE   C2616210   7.495   2.175  10.109  0.2130  0.2015  0.1268
  147SAPE   H6R16211   7.583   2.242  10.119  2.0808 -1.9350 -1.0297
  147SAPE   C2716212   7.461   2.146   9.959 -0.4655  0.1297  0.3387
  147SAPE   H7R16213   7.429   2.241   9.911  1.5253  1.9139  2.3204
  147SAPE   H7S16214   7.370   2.082   9.954 -0.6897  0.5433 -1.1818
  147SAPE   C2816215   7.574   2.079   9.888 -0.7274 -0.0338  0.5171
  147SAPE   H8R16216   7.657   2.038   9.947  0.3386  1.8074  0.3706
  147SAPE   C2916217   7.604   2.073   9.750 -0.6897  0.4006  0.0774
  147SAPE   H9R16218   7.700   2.039   9.707 -1.6471  1.9370 -3.7332
  147SAPE  C21016219   7.518   2.143   9.640 -0.1802  0.4292  0.0496
  147SAPE  H10R16220   7.571   2.193   9.556  0.0903  1.2918  0.7234
  147SAPE  H10S16221   7.451   2.218   9.688 -1.1802 -1.0158  1.0045
  147SAPE  C21116222   7.423   2.036   9.579  0.7573 -0.6042  0.1522
  147SAPE  H11R16223   7.354   1.998   9.657  0.4610  2.7113  1.6872
  147SAPE  C21216224   7.426   1.997   9.450 -0.0842  0.1436 -0.1133
  147SAPE  H12R16225   7.354   1.923   9.410  0.6137  0.3629 -1.8435
  147SAPE  C21316226   7.512   2.045   9.343 -0.0545 -0.0921  0.2771
  147SAPE  H13R16227   7.522   1.967   9.265 -3.0494  0.1682 -0.4754
  147SAPE  H13S16228   7.615   2.067   9.380  0.4236  0.7169 -1.4565
  147SAPE  C21416229   7.451   2.163   9.269 -0.4389 -0.8652 -0.1394
  147SAPE  H14R16230   7.504   2.258   9.288 -0.4006 -1.4545  3.4310
  147SAPE  C21516231   7.341   2.162   9.194  0.6248 -0.6520 -0.2340
  147SAPE  H15R16232   7.300   2.252   9.145 -2.3138 -1.1075  1.1472
  147SAPE  C21616233   7.248   2.047   9.170  0.1967  0.0468  0.4172
  147SAPE  H16R16234   7.169   2.053   9.248  1.2897  0.8819  1.5034
  147SAPE  H16S16235   7.298   1.950   9.186  2.4477  1.0414 -0.2557
  147SAPE  C21716236   7.208   2.046   9.023  0.1016 -0.1279 -0.5032
  147SAPE  H17R16237   7.298   2.042   8.958  0.9635  1.1096  0.5543
  147SAPE  H17S16238   7.154   2.140   9.000 -3.2639 -1.8636 -0.2067
  147SAPE  C21816239   7.109   1.944   8.982 -0.0040  0.0757  0.3912
  147SAPE  H18R16240   7.019   1.970   9.042 -0.8039 -2.7567  0.5527
  147SAPE  H18S16241   7.146   1.840   8.997 -2.2873 -0.6319  1.5541
  147SAPE  C21916242   7.085   1.964   8.829 -0.1001  0.2859 -0.4969
  147SAPE  H19R16243   7.182   1.943   8.779  0.1864 -0.6160  0.4002
  147SAPE  H19S16244   7.057   2.070   8.816  1.4176  0.8290  0.4516
  147SAPE  C22016245   6.962   1.890   8.781 -0.2156  1.0684 -0.3088
  147SAPE  H20R16246   6.888   1.904   8.862  0.1585  1.4133 -0.0238
  147SAPE  H20S16247   6.979   1.780   8.780 -1.4604  0.8669 -0.6271
  147SAPE  H20T16248   6.927   1.921   8.680  0.7065  0.7963 -0.7251
  147SAPE   C3316249   7.106   2.361   9.936  0.1674  0.2960 -0.4477
  147SAPE   H3X16250   7.017   2.296   9.954 -0.0631  1.0691  1.4241
  147SAPE   H3Y16251   7.181   2.347  10.017  1.7916  0.3132 -1.8938
  147SAPE   C3416252   7.171   2.322   9.799 -0.0555 -0.3968 -0.4971
  147SAPE   H4X16253   7.208   2.218   9.799 -1.1026 -0.7858 -0.6781
  147SAPE   H4Y16254   7.259   2.385   9.778 -0.3047  0.0489 -0.2331
  147SAPE   C3516255   7.058   2.344   9.683 -0.1768  0.3361  0.1614
  147SAPE   H5X16256   6.994   2.433   9.700  1.0948  1.5836 -1.2264
  147SAPE   H5Y16257   6.991   2.256   9.692  1.9792 -1.9441 -3.4108
  147SAPE   C3616258   7.125   2.354   9.543  0.0381 -0.2949 -0.4492
  147SAPE   H6X16259   7.197   2.274   9.515 -2.3741 -2.7243 -0.0834
  147SAPE   H6Y16260   7.191   2.444   9.547  1.4648 -1.1853 -2.2626
  147SAPE   C3716261   7.013   2.373   9.441  0.2504  0.0662 -0.1916
  147SAPE   H7X16262   6.978   2.478   9.453 -0.5297 -0.1716 -0.3336
  147SAPE   H7Y16263   6.930   2.313   9.482 -0.0466  0.2893 -0.4562
  147SAPE   C3816264   7.048   2.337   9.298 -0.4955  0.7131  0.1617
  147SAPE   H8X16265   7.061   2.227   9.285  0.4689  0.9952 -1.6554
  147SAPE   H8Y16266   7.148   2.382   9.278  0.5880 -1.6804 -0.1006
  147SAPE   C3916267   6.938   2.394   9.210 -0.3811  0.0444 -0.2801
  147SAPE   H9X16268   6.963   2.502   9.210 -1.4063  0.2885 -0.2129
  147SAPE   H9Y16269   6.839   2.365   9.252 -0.8949 -1.1513 -2.2111
  147SAPE  C31016270   6.943   2.347   9.063  0.1467 -0.2730  0.5158
  147SAPE  H10X16271   6.906   2.243   9.067  0.0417 -0.2127  1.3343
  147SAPE  H10Y16272   7.050   2.357   9.035 -0.1242  3.6824  0.2828
  147SAPE  C31116273   6.856   2.439   8.974  0.6348  0.8878  0.2631
  147SAPE  H11X16274   6.911   2.530   8.942  2.4959  0.7187  2.6932
  147SAPE  H11Y16275   6.771   2.488   9.027  1.5471  3.8476 -0.8400
  147SAPE  C31216276   6.799   2.370   8.849 -0.1436  0.3719 -0.0027
  147SAPE  H12X16277   6.737   2.439   8.788  0.8904  2.7797  1.5379
  147SAPE  H12Y16278   6.740   2.284   8.887  0.6644  1.0253  3.0180
  147SAPE  C31316279   6.907   2.315   8.760 -0.2705 -0.1830  0.2561
  147SAPE  H13X16280   6.860   2.239   8.693  0.0962 -0.2708  0.0939
  147SAPE  H13Y16281   6.976   2.260   8.827 -1.5864  1.0205  2.7321
  147SAPE  C31416282   6.979   2.412   8.671 -0.6414 -1.4042  0.0015
  147SAPE  H14X16283   7.009   2.501   8.732  0.9594 -1.8916 -0.0428
  147SAPE  H14Y16284   6.905   2.456   8.601 -0.2845  1.4879  1.2473
  147SAPE  C31516285   7.104   2.353   8.609 -0.6663 -1.0074 -0.1069
  147SAPE  H15X16286   7.084   2.262   8.548  0.9895 -1.7323  0.3778
  147SAPE  H15Y16287   7.163   2.318   8.696 -1.8345  0.0982  1.1733
  147SAPE  C31616288   7.197   2.445   8.530  0.1763  0.6853  0.1090
  147SAPE  H16X16289   7.237   2.526   8.595  0.5446  1.8264 -1.4750
  147SAPE  H16Y16290   7.145   2.488   8.442  0.4414  0.7103 -0.0357
  147SAPE  C31716291   7.320   2.365   8.480 -0.1666  0.5051  0.9718
  147SAPE  H17X16292   7.266   2.275   8.443 -0.1746 -0.0101  2.1847
  147SAPE  H17Y16293   7.381   2.326   8.565 -1.1414 -1.3179  0.8874
  147SAPE  C31816294   7.412   2.434   8.382  0.5452  0.1196  0.6005
  147SAPE  H18X16295   7.480   2.508   8.429  2.2508 -1.6380  1.0329
  147SAPE  H18Y16296   7.351   2.489   8.307 -1.6344  2.3774  3.7589
  147SAPE  H18Z16297   7.474   2.362   8.325  1.8951 -0.6334  2.8810
  148SAPE     N16298   3.258   3.917  10.382 -1.0624  0.2943  0.3883
  148SAPE   HN116299   3.334   3.988  10.385  2.4410 -3.1525  0.8670
  148SAPE   HN216300   3.296   3.849  10.451  1.1811  0.7296 -0.3407
  148SAPE   HN316301   3.263   3.895  10.281 -0.0876 -3.3419  1.0817
  148SAPE   C1216302   3.133   3.989  10.415  0.2978  0.4149 -0.0827
  148SAPE  H12A16303   3.131   3.994  10.526  0.6899  0.7068 -0.0866
  148SAPE  H12B16304   3.050   3.931  10.368  3.2056 -3.6721 -0.7627
  148SAPE   C1116305   3.133   4.131  10.356 -0.0628  0.5462 -0.3977
  148SAPE  H11A16306   3.035   4.179  10.376 -1.6583 -2.9041  0.8957
  148SAPE  H11B16307   3.123   4.133  10.246 -1.6368  0.1340 -0.2755
  148SAPE     P16308   3.237   4.288  10.541  0.1802  0.0432 -0.2937
  148SAPE   O1316309   3.257   4.199  10.652 -0.4386  0.5798 -0.3509
  148SAPE   O1416310   3.335   4.402  10.527  0.2798 -1.0410 -0.9003
  148SAPE   O1216311   3.240   4.209  10.406 -0.6987 -0.0584  0.1530
  148SAPE   O1116312   3.090   4.354  10.559 -0.5115  0.3067  0.3254
  148SAPE    C116313   3.052   4.458  10.470  0.0818  0.0273 -0.0518
  148SAPE    HA16314   3.081   4.553  10.520  0.9993  1.0312 -2.3312
  148SAPE    HB16315   3.098   4.441  10.371 -0.4252 -0.9203 -0.1341
  148SAPE    C216316   2.893   4.456  10.449  0.2294 -0.5222  0.1750
  148SAPE    HS16317   2.862   4.483  10.552  2.9827 -1.2930  1.3124
  148SAPE   O2116318   2.849   4.326  10.421 -0.0101  0.2913  0.1709
  148SAPE   C2116319   2.712   4.317  10.427 -0.6268  0.3676 -0.5755
  148SAPE   O2216320   2.643   4.409  10.467  0.1159  0.5834 -0.0214
  148SAPE   C2216321   2.660   4.187  10.372  0.2491  0.2556  0.1176
  148SAPE   H2R16322   2.732   4.146  10.298  0.0905 -2.3683  1.3065
  148SAPE   H2S16323   2.674   4.109  10.450  2.3264  1.3081  0.8872
  148SAPE    C316324   2.853   4.571  10.345  0.5239  0.0376  0.7327
  148SAPE    HX16325   2.849   4.666  10.403 -0.0118  0.5616 -0.1470
  148SAPE    HY16326   2.746   4.559  10.317 -0.0224  1.4436  2.0885
  148SAPE   O3116327   2.940   4.577  10.231 -0.0545 -0.0577 -0.2698
  148SAPE   C3116328   2.910   4.491  10.125 -0.1444  0.0642  0.6364
  148SAPE   O3216329   2.819   4.415  10.115  0.0804 -0.4338 -0.3391
  148SAPE   C3216330   3.037   4.488  10.041  0.1978 -0.0803  0.7612
  148SAPE   H2X16331   3.108   4.433  10.106  0.2288  0.6297  1.3513
  148SAPE   H2Y16332   3.070   4.593  10.023  0.6723 -0.4755 -0.8761
  148SAPE   C2316333   2.530   4.210  10.306  0.4547 -0.0045 -0.2419
  148SAPE   H3R16334   2.453   4.257  10.372  1.0112  0.5133  0.0505
  148SAPE   H3S16335   2.481   4.111  10.298  0.8411 -0.0786 -1.9411
  148SAPE   C2416336   2.535   4.277  10.170  0.5135  0.0121 -0.0178
  148SAPE   H4R16337   2.596   4.220  10.097 -0.1502  1.6040 -1.9003
  148SAPE   H4S16338   2.585   4.375  10.188  3.0833 -1.8109  4.6245
  148SAPE   C2516339   2.394   4.272  10.112  0.2267  0.1380 -0.0249
  148SAPE   H5R16340   2.316   4.305  10.183 -0.4674 -1.8240  0.1716
  148SAPE   C2616341   2.357   4.240   9.984  0.2441  0.0806 -0.3080
  148SAPE   H6R16342   2.250   4.248   9.960  0.3465  0.5732 -0.6025
  148SAPE   C2716343   2.453   4.203   9.868  0.7731  0.1287  0.1850
  148SAPE   H7R16344   2.510   4.107   9.870  1.5330  0.5404 -1.0245
  148SAPE   H7S16345   2.537   4.273   9.854 -0.9519  1.9020 -2.1202
  148SAPE   C2816346   2.377   4.201   9.739 -0.9148 -0.7660  0.4280
  148SAPE   H8R16347   2.283   4.256   9.754 -0.2442  0.1570  1.3165
  148SAPE   C2916348   2.418   4.150   9.618 -0.5841  0.1694 -0.0272
  148SAPE   H9R16349   2.346   4.154   9.536  0.4971  0.2608 -0.9992
  148SAPE  C21016350   2.547   4.076   9.589 -0.6528  0.2564 -0.2362
  148SAPE  H10R16351   2.517   4.004   9.510  0.1480 -1.6774  1.1476
  148SAPE  H10S16352   2.579   4.004   9.667  0.7508  0.4171 -0.6315
  148SAPE  C21116353   2.664   4.153   9.532  0.0065  0.2037  0.6544
  148SAPE  H11R16354   2.730   4.186   9.613 -1.9999  2.6702  1.4274
  148SAPE  C21216355   2.696   4.192   9.402  0.0886 -0.5281  0.4791
  148SAPE  H12R16356   2.790   4.247   9.388  0.4569 -1.0792  0.7273
  148SAPE  C21316357   2.619   4.173   9.275  0.1773  0.1921  0.4945
  148SAPE  H13R16358   2.602   4.273   9.230 -1.6186 -0.1251  0.3823
  148SAPE  H13S16359   2.524   4.123   9.304 -0.4009 -0.5584 -2.3581
  148SAPE  C21416360   2.688   4.094   9.165  0.0472 -0.5203 -0.4872
  148SAPE  H14R16361   2.656   3.989   9.167  0.7562 -0.7435  0.8249
  148SAPE  C21516362   2.783   4.142   9.084 -0.3233 -0.2738 -0.1250
  148SAPE  H15R16363   2.829   4.074   9.010 -1.2026 -0.6913 -0.2959
  148SAPE  C21616364   2.844   4.277   9.079 -0.2093  0.3410 -0.4248
  148SAPE  H16R16365   2.954   4.265   9.070 -0.1977  0.3003 -0.2460
  148SAPE  H16S16366   2.836   4.342   9.169  1.5133 -0.3248  0.2574
  148SAPE  C21716367   2.781   4.354   8.964 -0.1084  0.2736  0.8421
  148SAPE  H17R16368   2.671   4.343   8.975 -0.2113 -2.7052 -1.9294
  148SAPE  H17S16369   2.804   4.304   8.868 -1.6913  0.5053  0.3086
  148SAPE  C21816370   2.817   4.500   8.952 -0.1661 -1.3257 -0.8787
  148SAPE  H18R16371   2.750   4.549   8.879  0.6025  0.2740 -0.5439
  148SAPE  H18S16372   2.918   4.509   8.906  0.1664 -0.6402 -0.0269
  148SAPE  C21916373   2.814   4.588   9.077  0.1687 -0.0203  0.5647
  148SAPE  H19R16374   2.871   4.544   9.162 -0.0412  1.4783  1.5147
  148SAPE  H19S16375   2.711   4.593   9.117  0.8572  0.0588  2.4149
  148SAPE  C22016376   2.871   4.730   9.056  0.1505  0.2345 -0.7266
  148SAPE  H20R16377   2.824   4.765   8.961  0.3424  2.8794  0.0715
  148SAPE  H20S16378   2.981   4.723   9.050  0.6340  0.2513  4.1264
  148SAPE  H20T16379   2.846   4.800   9.138  1.1418 -2.2347  1.8347
  148SAPE   C3316380   3.015   4.413   9.906 -0.3508 -0.4933 -0.7117
  148SAPE   H3X16381   2.956   4.322   9.931 -0.0918 -0.2872  0.7569
  148SAPE   H3Y16382   3.122   4.387   9.889  0.9688  1.7657  2.8524
  148SAPE   C3416383   2.963   4.507   9.801  0.0998  0.1941 -0.5215
  148SAPE   H4X16384   3.017   4.604   9.798  2.4781 -1.0256  0.1237
  148SAPE   H4Y16385   2.859   4.520   9.839 -0.1172 -0.9149 -0.6990
  148SAPE   C3516386   2.940   4.427   9.668  0.4845  0.3089  0.6680
  148SAPE   H5X16387   2.874   4.486   9.601  2.1121  1.5291  0.0749
  148SAPE   H5Y16388   2.879   4.339   9.698  1.6314 -0.5514  0.5523
  148SAPE   C3616389   3.078   4.394   9.601 -0.2203  0.2452 -0.4724
  148SAPE   H6X16390   3.112   4.304   9.656 -1.5708 -0.4052 -0.6352
  148SAPE   H6Y16391   3.147   4.480   9.611 -1.2636  1.0037  0.4683
  148SAPE   C3716392   3.068   4.337   9.454  0.6563  0.7071  0.6345
  148SAPE   H7X16393   2.994   4.397   9.396 -1.4233 -0.6841  1.7168
  148SAPE   H7Y16394   3.025   4.235   9.454 -0.1334  0.9662  3.2676
  148SAPE   C3816395   3.206   4.340   9.384 -0.7812 -0.0470  0.2059
  148SAPE   H8X16396   3.283   4.282   9.440 -1.6528 -1.0893  0.3516
  148SAPE   H8Y16397   3.249   4.443   9.392  0.3607 -0.5744  1.2279
  148SAPE   C3916398   3.210   4.302   9.234  0.3560 -0.9431  0.6842
  148SAPE   H9X16399   3.118   4.342   9.185  0.3675 -0.3712  1.1238
  148SAPE   H9Y16400   3.216   4.192   9.219 -1.1068 -1.0649  0.8277
  148SAPE  C31016401   3.323   4.362   9.155  0.1188 -0.6369 -0.4073
  148SAPE  H10X16402   3.414   4.347   9.216 -0.4107 -2.6131 -0.0243
  148SAPE  H10Y16403   3.313   4.472   9.150  1.5882 -0.3195  2.1732
  148SAPE  C31116404   3.332   4.312   9.006  0.0764  0.5208 -0.2497
  148SAPE  H11X16405   3.310   4.205   8.987 -0.6292  0.1155  2.4351
  148SAPE  H11Y16406   3.435   4.334   8.970  0.7630 -0.9870  0.7306
  148SAPE  C31216407   3.228   4.376   8.912  0.2835 -0.5822  0.3851
  148SAPE  H12X16408   3.267   4.475   8.881  1.1177 -1.2291 -0.6917
  148SAPE  H12Y16409   3.137   4.381   8.975  0.9517  1.1568  1.2695
  148SAPE  C31316410   3.197   4.293   8.792  0.4200 -0.1309  0.2372
  148SAPE  H13X16411   3.163   4.192   8.822 -1.2464  0.0825 -0.7959
  148SAPE  H13Y16412   3.298   4.274   8.749 -0.5487 -0.9796 -1.8157
  148SAPE  C31416413   3.102   4.357   8.688 -0.1231 -0.2240  0.4950
  148SAPE  H14X16414   3.161   4.437   8.638  0.8673 -0.0384  1.8824
  148SAPE  H14Y16415   3.014   4.403   8.737 -0.7041  1.8034 -2.2340
  148SAPE  C31516416   3.056   4.260   8.580 -0.1717  0.9784  0.0637
  148SAPE  H15X16417   3.143   4.193   8.565 -0.2819  0.4123  1.6792
  148SAPE  H15Y16418   3.023   4.309   8.486 -3.2355 -2.1486 -0.7033
  148SAPE  C31616419   2.936   4.175   8.636 -0.1771 -0.7761 -0.0354
  148SAPE  H16X16420   2.852   4.247   8.649 -0.6092 -1.5857  1.8961
  148SAPE  H16Y16421   2.977   4.138   8.733  0.6500  2.2278  0.8699
  148SAPE  C31716422   2.886   4.075   8.531 -0.3335  0.1445  0.2227
  148SAPE  H17X16423   2.944   3.981   8.540  1.7413  1.3018 -0.4226
  148SAPE  H17Y16424   2.905   4.111   8.428 -0.5947 -2.5235 -0.8325
  148SAPE  C31816425   2.745   4.050   8.544  0.3596  0.4409  0.6332
  148SAPE  H18X16426   2.707   3.980   8.467 -2.4409  1.4887  0.9274
  148SAPE  H18Y16427   2.700   4.152   8.535  1.9407  1.1731  0.7554
  148SAPE  H18Z16428   2.715   4.010   8.643  2.2739  1.1322  1.5313
  149SAPE     N16429   3.082   5.271  10.888  0.4845 -0.0541 -0.0796
  149SAPE   HN116430   3.151   5.283  10.811  1.0327 -0.1660  0.3885
  149SAPE   HN216431   2.999   5.223  10.848 -0.5432  1.3414  0.2761
  149SAPE   HN316432   3.053   5.365  10.922 -0.3463 -0.5507  0.6151
  149SAPE   C1216433   3.152   5.195  10.994  0.4425  0.1515  0.0551
  149SAPE  H12A16434   3.182   5.095  10.954  1.6706  0.5781 -0.1342
  149SAPE  H12B16435   3.073   5.187  11.072  0.0709  0.5983 -0.2784
  149SAPE   C1116436   3.279   5.279  11.037 -0.0623  0.3951 -0.3106
  149SAPE  H11A16437   3.351   5.283  10.952 -0.6194  0.8671 -0.7655
  149SAPE  H11B16438   3.317   5.205  11.110 -2.7847 -1.2104 -0.3819
  149SAPE     P16439   3.354   5.504  11.151  0.2572  0.1144  0.2170
  149SAPE   O1316440   3.283   5.589  11.254 -0.4257  0.1576 -0.5380
  149SAPE   O1416441   3.465   5.422  11.199 -0.1238  0.0403  0.5968
  149SAPE   O1216442   3.247   5.408  11.085 -0.2381 -0.3963 -0.6090
  149SAPE   O1116443   3.387   5.607  11.030 -0.1199 -0.3485 -0.3050
  149SAPE    C116444   3.301   5.624  10.912 -0.3869  0.4309 -0.7332
  149SAPE    HA16445   3.310   5.546  10.833  1.7897 -0.4122  0.2891
  149SAPE    HB16446   3.198   5.618  10.954  0.5294  0.5455  1.6646
  149SAPE    C216447   3.318   5.766  10.843  0.2913 -0.5121 -0.2890
  149SAPE    HS16448   3.238   5.792  10.770 -2.2883  2.5166  3.2499
  149SAPE   O2116449   3.443   5.771  10.770  0.5522  0.1360  0.1850
  149SAPE   C2116450   3.453   5.691  10.660 -0.3370  0.5151 -0.0271
  149SAPE   O2216451   3.368   5.618  10.617 -0.8886  0.1585 -0.0877
  149SAPE   C2216452   3.597   5.686  10.618 -0.3722  0.1530 -0.3797
  149SAPE   H2R16453   3.660   5.659  10.705  0.5289 -3.4692 -1.9930
  149SAPE   H2S16454   3.607   5.593  10.558 -2.8033  0.7406 -1.8375
  149SAPE    C316455   3.334   5.877  10.945  0.6404 -0.6713  0.7000
  149SAPE    HX16456   3.417   5.851  11.014  0.6431 -0.6332  0.7107
  149SAPE    HY16457   3.237   5.890  10.998  0.4851  0.1377  0.2242
  149SAPE   O3116458   3.376   6.003  10.880 -0.5634 -0.0397  0.2181
  149SAPE   C3116459   3.282   6.067  10.808  0.1592 -0.2528 -0.9932
  149SAPE   O3216460   3.167   6.031  10.806  0.0575  0.0678  0.6023
  149SAPE   C3216461   3.351   6.172  10.719 -0.4797 -0.5485 -0.1511
  149SAPE   H2X16462   3.443   6.201  10.775  0.1312 -1.1410 -0.8322
  149SAPE   H2Y16463   3.297   6.269  10.713  1.5700  0.7549  1.0119
  149SAPE   C2316464   3.642   5.824  10.565 -0.6137  0.0082 -0.7212
  149SAPE   H3R16465   3.687   5.884  10.647 -1.9117  0.9546 -0.6730
  149SAPE   H3S16466   3.559   5.884  10.522 -1.1014 -0.4831 -0.4760
  149SAPE   C2416467   3.757   5.801  10.470  0.3793  0.2936  1.1880
  149SAPE   H4R16468   3.758   5.700  10.426  1.0084  1.3558 -1.4314
  149SAPE   H4S16469   3.849   5.797  10.533  0.9659 -0.8020  0.2912
  149SAPE   C2516470   3.759   5.907  10.353 -0.4095  1.0413 -0.1677
  149SAPE   H5R16471   3.784   6.012  10.370 -0.5060  1.2158 -1.0796
  149SAPE   C2616472   3.720   5.879  10.223  0.2003  0.0425 -0.8920
  149SAPE   H6R16473   3.733   5.961  10.152  1.9533  1.0548  0.5004
  149SAPE   C2716474   3.657   5.747  10.175  0.0635 -0.2809  0.1562
  149SAPE   H7R16475   3.613   5.691  10.260 -0.7600 -0.3031 -0.2709
  149SAPE   H7S16476   3.736   5.682  10.131 -0.0110 -1.6556  1.9383
  149SAPE   C2816477   3.551   5.759  10.063  0.0080  0.0465  0.5079
  149SAPE   H8R16478   3.449   5.735  10.098  0.6288 -1.5646  1.3074
  149SAPE   C2916479   3.574   5.793   9.927  0.4229  0.1329 -0.1160
  149SAPE   H9R16480   3.490   5.782   9.857  0.8239 -0.5061 -0.5061
  149SAPE  C21016481   3.713   5.820   9.873  0.2182  0.0807 -1.0215
  149SAPE  H10R16482   3.752   5.718   9.852 -4.4796 -1.9497 -1.2336
  149SAPE  H10S16483   3.785   5.856   9.949  0.7459 -1.3818 -0.7832
  149SAPE  C21116484   3.717   5.917   9.753  0.0843 -0.3418 -0.4212
  149SAPE  H11R16485   3.720   6.026   9.772  0.5111  0.4205 -4.1284
  149SAPE  C21216486   3.699   5.889   9.623 -0.8715  0.2826 -0.3309
  149SAPE  H12R16487   3.707   5.975   9.554 -0.8877  0.6979  0.1803
  149SAPE  C21316488   3.681   5.748   9.562  0.6333  0.2217 -0.0305
  149SAPE  H13R16489   3.575   5.724   9.586  1.1321 -0.7416  1.3613
  149SAPE  H13S16490   3.741   5.681   9.627 -1.6363  1.1903  3.3331
  149SAPE  C21416491   3.726   5.724   9.419  0.6697  0.0978  0.6849
  149SAPE  H14R16492   3.819   5.668   9.408 -0.2575 -1.7357  1.7440
  149SAPE  C21516493   3.653   5.773   9.314 -0.3803  0.0174 -0.0083
  149SAPE  H15R16494   3.676   5.731   9.215 -1.2316  0.3007 -0.3242
  149SAPE  C21616495   3.524   5.850   9.321 -0.2737  0.3176  0.1145
  149SAPE  H16R16496   3.497   5.881   9.424 -1.3714 -1.0500  0.2708
  149SAPE  H16S16497   3.444   5.786   9.278 -0.5455 -0.5978  1.9070
  149SAPE  C21716498   3.537   5.978   9.246 -0.1923 -0.0052 -0.4609
  149SAPE  H17R16499   3.639   6.017   9.265  0.8641 -2.0693 -1.4745
  149SAPE  H17S16500   3.464   6.052   9.285  1.3322  0.7012  1.1784
  149SAPE  C21816501   3.525   5.958   9.096 -0.0839  0.1115 -0.4599
  149SAPE  H18R16502   3.431   5.911   9.061 -1.3017  2.6148 -0.7765
  149SAPE  H18S16503   3.606   5.886   9.073  1.7971  1.5738  1.2314
  149SAPE  C21916504   3.571   6.088   9.029  0.8336  0.5138  0.5025
  149SAPE  H19R16505   3.680   6.098   9.050  1.3685 -3.9267  0.9873
  149SAPE  H19S16506   3.503   6.168   9.064  0.6629  0.3115  0.6368
  149SAPE  C22016507   3.559   6.070   8.879 -0.2372  0.0515  0.2971
  149SAPE  H20R16508   3.456   6.062   8.840 -0.4644 -0.9709  1.0698
  149SAPE  H20S16509   3.617   5.984   8.840  0.1760  0.1138  0.7592
  149SAPE  H20T16510   3.590   6.164   8.829  0.5739 -0.7661 -0.7885
  149SAPE   C3316511   3.381   6.115  10.582  0.1083 -0.3035  0.0915
  149SAPE   H3X16512   3.421   6.013  10.597 -1.7423 -1.2922 -1.3240
  149SAPE   H3Y16513   3.457   6.182  10.536  0.5137  0.1380  1.3698
  149SAPE   C3416514   3.265   6.109  10.483 -0.3492  0.1813 -0.1658
  149SAPE   H4X16515   3.230   6.213  10.465 -0.6480  0.0110 -0.5885
  149SAPE   H4Y16516   3.186   6.057  10.542 -1.1358  1.4933 -0.0394
  149SAPE   C3516517   3.312   6.045  10.350  0.1384 -0.8235 -0.9134
  149SAPE   H5X16518   3.384   5.963  10.370  0.2401 -0.3072  1.0503
  149SAPE   H5Y16519   3.363   6.121  10.287 -3.2190  2.0581 -0.5192
  149SAPE   C3616520   3.189   6.009  10.262  0.7663 -0.0427 -0.0566
  149SAPE   H6X16521   3.127   6.102  10.259 -1.7464 -1.6358 -0.8130
  149SAPE   H6Y16522   3.135   5.932  10.321 -0.4722  0.4677 -0.4838
  149SAPE   C3716523   3.225   5.965  10.123  0.1826 -0.0313 -0.1850
  149SAPE   H7X16524   3.274   5.866  10.127 -0.4952 -0.3567  0.3705
  149SAPE   H7Y16525   3.297   6.043  10.090  0.7195 -0.0013  1.0080
  149SAPE   C3816526   3.119   5.962  10.010  0.1096  0.3912  0.5428
  149SAPE   H8X16527   3.062   6.055  10.024  1.4156  0.9253  2.8531
  149SAPE   H8Y16528   3.056   5.873  10.029 -1.4881  0.9736 -1.6132
  149SAPE   C3916529   3.187   5.946   9.869 -0.0538 -0.1829  0.3366
  149SAPE   H9X16530   3.228   5.843   9.861  0.3107  0.0861 -2.0673
  149SAPE   H9Y16531   3.275   6.014   9.858 -0.6324  0.7317  1.1357
  149SAPE  C31016532   3.087   5.963   9.749 -0.7423  0.5850  0.4876
  149SAPE  H10X16533   3.045   6.066   9.746 -0.1545  0.8242  0.5077
  149SAPE  H10Y16534   3.009   5.883   9.756  1.1778 -1.3799  0.6171
  149SAPE  C31116535   3.145   5.923   9.609 -0.6698  0.0064 -0.2428
  149SAPE  H11X16536   3.210   5.834   9.619 -1.5787 -0.7956 -1.3100
  149SAPE  H11Y16537   3.207   6.012   9.582 -0.2543  0.3202  1.6006
  149SAPE  C31216538   3.032   5.894   9.503  0.0677 -0.5746 -0.3044
  149SAPE  H12X16539   2.939   5.954   9.512 -1.5583 -2.9080 -0.4994
  149SAPE  H12Y16540   2.995   5.789   9.509 -0.6681 -0.4069 -1.5722
  149SAPE  C31316541   3.078   5.907   9.357  0.2636 -0.7833  0.0803
  149SAPE  H13X16542   3.177   5.864   9.330  1.6033  2.1175 -0.0216
  149SAPE  H13Y16543   3.082   6.017   9.345  0.1944 -0.5549  1.8025
  149SAPE  C31416544   2.967   5.874   9.249 -0.8502 -0.1671 -0.1485
  149SAPE  H14X16545   2.873   5.912   9.293 -0.2481  0.5016  0.6013
  149SAPE  H14Y16546   2.973   5.763   9.252  0.3317 -0.1050  1.8299
  149SAPE  C31516547   3.001   5.924   9.114  0.2298  0.3946 -0.4165
  149SAPE  H15X16548   3.107   5.900   9.087  0.0459 -0.5131 -0.3561
  149SAPE  H15Y16549   2.991   6.034   9.101 -0.0927  0.7031  2.0302
  149SAPE  C31616550   2.919   5.860   8.993  0.2550 -0.1455 -0.0352
  149SAPE  H16X16551   2.941   5.754   8.971  0.3951 -0.2536  0.5949
  149SAPE  H16Y16552   2.949   5.914   8.901  0.2424 -0.0672  0.0060
  149SAPE  C31716553   2.761   5.871   9.000 -0.3377  0.6271 -0.2600
  149SAPE  H17X16554   2.730   5.955   9.066 -1.9753  1.2212 -1.7157
  149SAPE  H17Y16555   2.723   5.781   9.054 -0.9892  0.6974 -0.5905
  149SAPE  C31816556   2.692   5.890   8.864  0.1413 -0.2013 -0.3277
  149SAPE  H18X16557   2.739   5.984   8.828  1.3561 -1.1345 -1.3159
  149SAPE  H18Y16558   2.581   5.893   8.869 -0.1104 -4.3092  0.5589
  149SAPE  H18Z16559   2.715   5.807   8.793 -0.9318 -2.1160  1.4525
  150SAPE     N16560   6.402   5.946  10.899 -0.7141 -0.6961 -0.3171
  150SAPE   HN116561   6.401   6.025  10.832  1.6540  0.5506  0.9658
  150SAPE   HN216562   6.398   5.986  10.995 -2.1237 -2.2040  0.2974
  150SAPE   HN316563   6.496   5.904  10.888 -0.5149 -0.7102  1.1458
  150SAPE   C1216564   6.300   5.843  10.880  0.0369  0.1002 -0.4713
  150SAPE  H12A16565   6.330   5.761  10.948  0.1304  0.1816 -0.4157
  150SAPE  H12B16566   6.305   5.804  10.776 -3.4225 -0.8380 -0.4307
  150SAPE   C1116567   6.159   5.884  10.914  0.0644 -0.3631 -0.0167
  150SAPE  H11A16568   6.146   5.884  11.024 -0.5340  0.2168 -0.0869
  150SAPE  H11B16569   6.090   5.802  10.885  1.4383 -1.5794 -0.0119
  150SAPE     P16570   5.969   6.047  10.843 -0.1184  0.3542 -0.3679
  150SAPE   O1316571   5.897   6.034  10.971 -0.0891 -0.2481  0.4301
  150SAPE   O1416572   5.960   6.178  10.779  0.1624 -0.1727  0.5971
  150SAPE   O1216573   6.127   6.008  10.858 -0.0589  0.0125  0.0222
  150SAPE   O1116574   5.914   5.926  10.762 -0.3611  0.5212  0.1218
  150SAPE    C116575   5.977   5.894  10.639 -0.4525 -0.2199  0.2885
  150SAPE    HA16576   6.086   5.915  10.641 -0.4705 -0.1305  1.6113
  150SAPE    HB16577   5.967   5.785  10.618  1.0369 -0.2553 -0.3400
  150SAPE    C216578   5.920   5.969  10.512 -0.3054 -0.8766 -0.0298
  150SAPE    HS16579   5.949   6.077  10.518 -1.4817 -0.5723  0.2719
  150SAPE   O2116580   5.778   5.948  10.490 -0.1706  0.5192  0.3964
  150SAPE   C2116581   5.715   6.043  10.431  0.0368  0.4416 -0.3569
  150SAPE   O2216582   5.762   6.152  10.401  0.2920 -0.1679  0.0738
  150SAPE   C2216583   5.566   6.003  10.417 -0.8402  0.5418 -0.0830
  150SAPE   H2R16584   5.544   5.923  10.490  1.0671 -0.9191 -1.0186
  150SAPE   H2S16585   5.510   6.096  10.440 -0.4431  1.0389 -1.0535
  150SAPE    C316586   6.006   5.920  10.387  0.0043 -0.0615 -0.9375
  150SAPE    HX16587   5.982   5.813  10.372  0.1197 -0.0204 -1.4477
  150SAPE    HY16588   6.113   5.933  10.416 -0.8134  1.5569  1.6724
  150SAPE   O3116589   5.968   5.990  10.261 -0.1683  0.0915 -0.5278
  150SAPE   C3116590   6.040   6.113  10.257  0.7725  0.5770  0.4740
  150SAPE   O3216591   6.115   6.147  10.342  0.2576 -0.9254  0.3663
  150SAPE   C3216592   6.010   6.192  10.130  0.4367 -1.0011 -0.3898
  150SAPE   H2X16593   6.053   6.147  10.038  1.7737  0.7802 -0.7056
  150SAPE   H2Y16594   6.045   6.297  10.135 -1.5607 -0.2243 -1.3590
  150SAPE   C2316595   5.553   5.952  10.269  0.0123  0.0777  0.1098
  150SAPE   H3R16596   5.605   5.856  10.250  0.5846  0.6432 -1.4316
  150SAPE   H3S16597   5.593   6.033  10.204  0.2704  1.3269  1.7480
  150SAPE   C2416598   5.406   5.936  10.251  0.8842  0.1647  0.5180
  150SAPE   H4R16599   5.367   5.877  10.337 -1.1902 -2.0347 -1.7518
  150SAPE   H4S16600   5.391   5.878  10.158 -1.6572 -0.4394  1.2341
  150SAPE   C2516601   5.322   6.061  10.229  0.9899 -0.0477  0.3751
  150SAPE   H5R16602   5.260   6.096  10.313  0.2574  1.2421 -0.6543
  150SAPE   C2616603   5.307   6.138  10.121  0.0640 -0.4519  0.0394
  150SAPE   H6R16604   5.240   6.224  10.130  1.2332  0.4650  0.1616
  150SAPE   C2716605   5.373   6.117   9.986  0.6232 -0.5564 -0.7255
  150SAPE   H7R16606   5.295   6.094   9.910  0.6038 -1.4262 -0.4604
  150SAPE   H7S16607   5.445   6.031   9.988 -0.3606 -1.4122  2.0031
  150SAPE   C2816608   5.435   6.251   9.953 -0.6456  0.3286  0.1545
  150SAPE   H8R16609   5.497   6.292  10.034 -1.6799 -0.0009  1.1365
  150SAPE   C2916610   5.415   6.335   9.848  0.4171 -0.3339 -0.0947
  150SAPE   H9R16611   5.468   6.431   9.858 -2.1168  0.9101  3.2082
  150SAPE  C21016612   5.333   6.301   9.726 -0.3667  0.2879  1.0470
  150SAPE  H10R16613   5.261   6.219   9.746 -0.8259  0.1183 -1.0712
  150SAPE  H10S16614   5.401   6.243   9.660 -2.2415  0.8226 -1.5066
  150SAPE  C21116615   5.281   6.413   9.644 -0.4107 -0.1816  0.0097
  150SAPE  H11R16616   5.295   6.507   9.699 -0.6843  0.4808 -1.0312
  150SAPE  C21216617   5.235   6.415   9.518 -0.1185 -0.1834 -0.1059
  150SAPE  H12R16618   5.182   6.505   9.484  1.9134  0.8445 -0.7365
  150SAPE  C21316619   5.221   6.290   9.427 -0.3310  0.8015 -0.6721
  150SAPE  H13R16620   5.174   6.208   9.484 -2.4984  2.1810 -0.3544
  150SAPE  H13S16621   5.325   6.257   9.404 -0.1240 -0.9466  2.3319
  150SAPE  C21416622   5.145   6.321   9.303 -0.6064 -0.4334 -0.9032
  150SAPE  H14R16623   5.182   6.416   9.262 -1.4518 -0.0761 -0.8592
  150SAPE  C21516624   5.062   6.244   9.225 -0.2927  0.8065 -0.5840
  150SAPE  H15R16625   5.011   6.287   9.137 -1.1883  0.3305 -0.3094
  150SAPE  C21616626   5.012   6.105   9.245  0.3533 -0.3572 -0.2083
  150SAPE  H16R16627   4.915   6.113   9.299  0.2586 -2.0667 -0.0417
  150SAPE  H16S16628   5.078   6.051   9.316  0.7738  0.2097 -0.1711
  150SAPE  C21716629   4.982   6.027   9.118 -0.6037  0.5059  0.2087
  150SAPE  H17R16630   5.079   6.026   9.064 -0.0679  0.8858  1.1423
  150SAPE  H17S16631   4.898   6.065   9.054 -0.9212 -2.0309 -1.0192
  150SAPE  C21816632   4.931   5.876   9.161 -0.7606 -0.0227 -0.2189
  150SAPE  H18R16633   4.837   5.894   9.218 -1.6690  2.0226 -2.1525
  150SAPE  H18S16634   5.012   5.827   9.218 -0.8558 -3.4167 -2.6905
  150SAPE  C21916635   4.891   5.796   9.042  0.1144 -0.2040 -0.8847
  150SAPE  H19R16636   4.969   5.749   8.978 -0.7184 -2.8918 -0.0754
  150SAPE  H19S16637   4.827   5.854   8.972 -4.1611 -1.0546  1.9165
  150SAPE  C22016638   4.824   5.668   9.093  0.4677 -0.6000  0.1975
  150SAPE  H20R16639   4.787   5.613   9.004  0.9327  1.9901 -1.7202
  150SAPE  H20S16640   4.734   5.704   9.146  0.1386 -0.2280 -0.5937
  150SAPE  H20T16641   4.886   5.618   9.170  0.5938  0.8483  1.0740
  150SAPE   C3316642   5.856   6.202  10.094 -0.0942 -0.6547  0.9310
  150SAPE   H3X16643   5.823   6.285  10.159  0.6838  0.5802 -0.1931
  150SAPE   H3Y16644   5.808   6.104  10.115 -0.8555 -1.0159 -2.0061
  150SAPE   C3416645   5.814   6.229   9.949  0.2197 -0.0671 -0.2073
  150SAPE   H4X16646   5.864   6.319   9.908  0.7500 -0.5304 -0.6006
  150SAPE   H4Y16647   5.705   6.249   9.950  0.3277  1.1017  3.5494
  150SAPE   C3516648   5.829   6.109   9.855  0.0542 -0.3343  0.6744
  150SAPE   H5X16649   5.738   6.046   9.872 -1.4165  1.6166  0.3420
  150SAPE   H5Y16650   5.928   6.061   9.869 -0.0622 -0.7673  0.0437
  150SAPE   C3616651   5.830   6.145   9.701 -0.5276  0.1364  0.0112
  150SAPE   H6X16652   5.868   6.054   9.652 -0.2443 -1.9666  3.7985
  150SAPE   H6Y16653   5.907   6.224   9.685  0.7224 -1.1362 -0.4314
  150SAPE   C3716654   5.701   6.187   9.646  0.4053  0.1665 -0.5352
  150SAPE   H7X16655   5.660   6.280   9.691  0.1067 -0.5120  0.6370
  150SAPE   H7Y16656   5.616   6.119   9.670  0.8484 -0.3581 -0.4338
  150SAPE   C3816657   5.700   6.208   9.491 -0.5096  0.5431  0.2177
  150SAPE   H8X16658   5.781   6.281   9.468  1.8004 -1.0692  2.5617
  150SAPE   H8Y16659   5.606   6.254   9.455 -0.1398  0.7952 -0.4390
  150SAPE   C3916660   5.729   6.091   9.396  0.0720 -0.3561 -0.3797
  150SAPE   H9X16661   5.655   6.014   9.426 -0.2630  0.2850  0.4951
  150SAPE   H9Y16662   5.834   6.061   9.416  0.3690  0.8461 -0.0255
  150SAPE  C31016663   5.729   6.130   9.252 -0.0191  0.2553  0.8580
  150SAPE  H10X16664   5.771   6.041   9.200 -0.5416  0.6436 -0.2538
  150SAPE  H10Y16665   5.800   6.210   9.220 -0.0093 -0.6022 -1.4287
  150SAPE  C31116666   5.588   6.161   9.214  0.0856  0.0670 -0.1473
  150SAPE  H11X16667   5.553   6.252   9.267  0.7607  0.3888 -0.2348
  150SAPE  H11Y16668   5.518   6.083   9.251  0.9250 -1.1676 -1.0615
  150SAPE  C31216669   5.574   6.165   9.059  0.3974 -0.1533 -0.4024
  150SAPE  H12X16670   5.581   6.060   9.023 -1.2814 -0.6971  0.7798
  150SAPE  H12Y16671   5.657   6.229   9.021  0.3340  1.5106  2.0132
  150SAPE  C31316672   5.438   6.221   9.016  0.0696  0.0080  0.0760
  150SAPE  H13X16673   5.422   6.302   9.090 -2.2608  0.0157 -0.3637
  150SAPE  H13Y16674   5.365   6.139   9.037  0.1974 -0.2578 -0.4790
  150SAPE  C31416675   5.422   6.260   8.872  0.7807 -0.6237 -0.7059
  150SAPE  H14X16676   5.509   6.321   8.837 -0.3061  1.1954 -0.3536
  150SAPE  H14Y16677   5.331   6.323   8.861  0.3475 -0.7621  1.4886
  150SAPE  C31516678   5.408   6.136   8.784 -0.0287  0.3750 -0.0536
  150SAPE  H15X16679   5.317   6.077   8.809 -0.7920  2.2162  1.7911
  150SAPE  H15Y16680   5.495   6.068   8.795  2.1950  3.3473  2.1502
  150SAPE  C31616681   5.408   6.155   8.635  0.2892 -0.5792  0.5162
  150SAPE  H16X16682   5.387   6.055   8.592 -1.6918  0.2273 -0.5050
  150SAPE  H16Y16683   5.509   6.186   8.602 -0.2099 -0.2800 -0.7765
  150SAPE  C31716684   5.283   6.243   8.587 -0.4900 -0.0235 -0.0056
  150SAPE  H17X16685   5.305   6.348   8.617 -0.0035 -0.4102  1.0195
  150SAPE  H17Y16686   5.193   6.215   8.644  0.9371  1.3736  3.1682
  150SAPE  C31816687   5.243   6.250   8.440  0.0183  0.1934  0.3945
  150SAPE  H18X16688   5.325   6.287   8.376 -0.7784 -0.6140 -1.1496
  150SAPE  H18Y16689   5.157   6.320   8.431  1.9385  2.5858 -0.4570
  150SAPE  H18Z16690   5.215   6.151   8.396 -0.5246  0.9415 -1.0112
  151SAPE     N16691   2.163   3.530  10.860  0.5832 -0.4600  0.3721
  151SAPE   HN116692   2.093   3.454  10.873  1.1513 -1.0754 -0.1400
  151SAPE   HN216693   2.140   3.603  10.932 -1.0446 -0.7521  0.2003
  151SAPE   HN316694   2.145   3.579  10.770  0.0261  2.1796  1.8089
  151SAPE   C1216695   2.297   3.471  10.881 -0.0072  0.0662  0.2235
  151SAPE  H12A16696   2.279   3.373  10.931  0.7011 -0.1737  0.0203
  151SAPE  H12B16697   2.349   3.532  10.958 -1.0968 -0.1197  1.1420
  151SAPE   C1116698   2.376   3.462  10.753 -0.0908 -0.2274  0.0899
  151SAPE  H11A16699   2.483   3.443  10.777 -0.6942 -2.7709  1.1411
  151SAPE  H11B16700   2.372   3.562  10.707  0.8876 -1.0893 -1.9935
  151SAPE     P16701   2.362   3.354  10.515 -0.5450  0.0158  0.2571
  151SAPE   O1316702   2.486   3.263  10.540 -0.3136 -0.6608  0.4611
  151SAPE   O1416703   2.251   3.303  10.431  0.6962 -0.1430 -0.0440
  151SAPE   O1216704   2.311   3.376  10.664 -0.8042  0.7758  0.4276
  151SAPE   O1116705   2.416   3.497  10.471 -0.0652  0.1773 -0.1589
  151SAPE    C116706   2.327   3.602  10.419 -0.5383  0.9227 -0.3023
  151SAPE    HA16707   2.226   3.564  10.391  0.0794 -0.4210 -0.7844
  151SAPE    HB16708   2.320   3.688  10.489  2.1797  1.4896 -0.6189
  151SAPE    C216709   2.386   3.655  10.289 -0.0639  0.4741  0.7226
  151SAPE    HS16710   2.310   3.723  10.247 -1.7954 -0.5937  1.9770
  151SAPE   O2116711   2.417   3.548  10.204 -0.1754  0.2677  0.4260
  151SAPE   C2116712   2.314   3.495  10.146 -0.1782  0.7957  1.0166
  151SAPE   O2216713   2.198   3.532  10.147  0.2549  0.7540 -0.5955
  151SAPE   C2216714   2.353   3.364  10.091 -0.1557  0.4046 -0.3359
  151SAPE   H2R16715   2.457   3.360  10.051 -1.2242  0.2951 -3.3171
  151SAPE   H2S16716   2.346   3.294  10.177 -1.6290  1.5545  0.5368
  151SAPE    C316717   2.517   3.733  10.307  0.2114 -0.2505 -1.0528
  151SAPE    HX16718   2.594   3.663  10.346 -1.2153 -0.7249  1.0990
  151SAPE    HY16719   2.503   3.805  10.391 -0.2843  0.9934 -2.1643
  151SAPE   O3116720   2.544   3.797  10.189  0.5399 -0.1875  0.2013
  151SAPE   C3116721   2.674   3.850  10.182  0.2206  0.0076 -0.7351
  151SAPE   O3216722   2.752   3.826  10.274 -0.0339  0.6799  0.2264
  151SAPE   C3216723   2.700   3.913  10.054 -0.6615 -0.0669  0.1107
  151SAPE   H2X16724   2.609   3.970  10.027 -0.2166  0.3956 -0.4129
  151SAPE   H2Y16725   2.703   3.831   9.980 -0.5529  0.1302 -0.1028
  151SAPE   C2316726   2.262   3.309   9.979  0.7690  0.3767  0.0880
  151SAPE   H3R16727   2.161   3.333  10.019  0.4759 -3.2153  1.8872
  151SAPE   H3S16728   2.270   3.203   9.946 -0.4083  1.6218 -5.0027
  151SAPE   C2416729   2.281   3.371   9.832 -0.9092 -0.8621 -0.2719
  151SAPE   H4R16730   2.308   3.478   9.846  0.2395 -0.9314 -1.6755
  151SAPE   H4S16731   2.178   3.368   9.791 -2.0680  1.6841  2.1184
  151SAPE   C2516732   2.384   3.290   9.748 -1.0740  0.2539  0.2117
  151SAPE   H5R16733   2.473   3.268   9.808 -1.3986 -1.0663  0.2267
  151SAPE   C2616734   2.385   3.255   9.615  0.3445  0.3387  0.0568
  151SAPE   H6R16735   2.453   3.179   9.575  0.6618  1.3345 -1.3753
  151SAPE   C2716736   2.274   3.301   9.522  0.2430  0.3027 -0.0066
  151SAPE   H7R16737   2.316   3.379   9.455  0.5604  1.6669  1.7032
  151SAPE   H7S16738   2.198   3.359   9.578  1.1457  1.0586  0.4771
  151SAPE   C2816739   2.216   3.188   9.441 -0.8416  0.3710  0.6934
  151SAPE   H8R16740   2.129   3.146   9.495  0.3918 -2.3759  0.7162
  151SAPE   C2916741   2.247   3.157   9.316 -0.6473 -0.5053  0.4996
  151SAPE   H9R16742   2.205   3.070   9.263  1.1940 -0.4153 -1.1974
  151SAPE  C21016743   2.366   3.215   9.244 -0.7460 -0.1305 -0.1766
  151SAPE  H10R16744   2.423   3.142   9.183  0.3153  1.5514 -1.3072
  151SAPE  H10S16745   2.433   3.243   9.329 -0.7767  1.3516 -0.6103
  151SAPE  C21116746   2.348   3.332   9.161  0.7316 -0.1995 -0.4949
  151SAPE  H11R16747   2.318   3.423   9.214 -2.4427 -1.0630 -0.6009
  151SAPE  C21216748   2.361   3.348   9.031  0.8891  0.4016 -0.0666
  151SAPE  H12R16749   2.334   3.448   8.995 -2.5204  0.7982  2.9716
  151SAPE  C21316750   2.405   3.238   8.933  0.2683 -0.4274 -0.3933
  151SAPE  H13R16751   2.491   3.188   8.982 -0.3592  1.1086  2.5433
  151SAPE  H13S16752   2.454   3.292   8.849  1.8197 -0.8400  0.2218
  151SAPE  C21416753   2.298   3.142   8.879 -0.1250 -0.1353 -0.9767
  151SAPE  H14R16754   2.246   3.093   8.963  2.3162  0.1158  0.7754
  151SAPE  C21516755   2.259   3.121   8.755  0.5022 -0.3872 -0.2037
  151SAPE  H15R16756   2.174   3.054   8.734 -0.7956  1.8382 -2.6765
  151SAPE  C21616757   2.302   3.183   8.614  0.5342 -0.5782 -0.1522
  151SAPE  H16R16758   2.326   3.107   8.537  0.8952 -0.3730 -0.2478
  151SAPE  H16S16759   2.379   3.261   8.635  0.9381 -1.3430  1.3457
  151SAPE  C21716760   2.180   3.268   8.567 -0.0981  0.6258  0.4487
  151SAPE  H17R16761   2.134   3.333   8.645 -0.1962  0.8696  0.1890
  151SAPE  H17S16762   2.108   3.190   8.533  1.0447 -0.5825  0.7482
  151SAPE  C21816763   2.207   3.352   8.446  0.4890  0.4888 -0.4294
  151SAPE  H18R16764   2.254   3.295   8.363  3.6390  2.4089 -0.1307
  151SAPE  H18S16765   2.281   3.433   8.465  1.3101 -0.4398  0.4478
  151SAPE  C21916766   2.071   3.412   8.402  0.5102  0.2672  0.1129
  151SAPE  H19R16767   2.034   3.466   8.492  0.7583 -2.1725  1.7792
  151SAPE  H19S16768   2.012   3.330   8.356 -1.2613  0.3141  2.1573
  151SAPE  C22016769   2.079   3.516   8.288  0.9398 -0.0686 -0.6253
  151SAPE  H20R16770   1.976   3.531   8.249  1.0379  0.9150 -0.5314
  151SAPE  H20S16771   2.135   3.485   8.197 -0.8573  1.6800 -2.4206
  151SAPE  H20T16772   2.119   3.612   8.327 -1.8962  0.2596  1.8505
  151SAPE   C3316773   2.827   4.004  10.047  0.5643  0.2722 -0.3145
  151SAPE   H3X16774   2.914   3.945  10.084 -0.5819 -1.1578  0.1783
  151SAPE   H3Y16775   2.802   4.090  10.112  1.4350 -3.4369  5.6786
  151SAPE   C3416776   2.850   4.057   9.908 -0.2168 -0.4523  0.1873
  151SAPE   H4X16777   2.945   4.111   9.926 -0.5483 -0.0965  0.8793
  151SAPE   H4Y16778   2.780   4.135   9.870  1.5862  1.1667  0.0255
  151SAPE   C3516779   2.875   3.945   9.806 -0.2007 -0.0837 -0.5689
  151SAPE   H5X16780   2.786   3.901   9.757 -0.9698 -0.9706  1.4948
  151SAPE   H5Y16781   2.932   3.872   9.868  1.0351 -1.0559 -2.7231
  151SAPE   C3616782   2.964   3.994   9.695  0.5314  0.2469  1.0347
  151SAPE   H6X16783   3.068   3.994   9.735 -0.3648 -0.0002  3.4906
  151SAPE   H6Y16784   2.930   4.092   9.655  1.7205  0.0584 -0.5599
  151SAPE   C3716785   2.971   3.904   9.570 -0.2864 -0.4074 -0.0444
  151SAPE   H7X16786   2.868   3.880   9.537 -0.8469  3.2777 -1.4385
  151SAPE   H7Y16787   3.020   3.810   9.603 -1.4324 -0.5761  1.2485
  151SAPE   C3816788   3.043   3.980   9.467  0.2501 -0.0363  0.1199
  151SAPE   H8X16789   3.112   4.051   9.517 -3.0095  1.6347  2.6382
  151SAPE   H8Y16790   2.971   4.046   9.415 -0.6958  0.1367  1.5828
  151SAPE   C3916791   3.117   3.886   9.366  0.1709  0.1070  0.5065
  151SAPE   H9X16792   3.085   3.781   9.382  1.4513 -0.0546  2.3039
  151SAPE   H9Y16793   3.226   3.894   9.385  0.2910 -0.2110 -0.0260
  151SAPE  C31016794   3.074   3.908   9.218  0.3830  0.1483 -0.0480
  151SAPE  H10X16795   3.099   4.013   9.192  0.2240  0.4628  1.0262
  151SAPE  H10Y16796   2.965   3.891   9.205  0.5868 -0.5510 -0.9577
  151SAPE  C31116797   3.139   3.814   9.115  0.1341  0.8542 -0.8177
  151SAPE  H11X16798   3.137   3.710   9.154  3.6396  0.5282 -1.1224
  151SAPE  H11Y16799   3.250   3.812   9.121  0.0456 -1.0869  2.4726
  151SAPE  C31216800   3.086   3.830   8.974  0.0770 -0.1966 -0.3403
  151SAPE  H12X16801   3.096   3.936   8.941 -0.3067 -0.1977 -0.4634
  151SAPE  H12Y16802   2.979   3.801   8.982 -0.0423 -0.3388 -2.1186
  151SAPE  C31316803   3.149   3.729   8.879  0.1154  0.2947  0.5901
  151SAPE  H13X16804   3.142   3.630   8.929 -0.1069  0.6136  1.1962
  151SAPE  H13Y16805   3.256   3.754   8.864  0.8010 -3.3503 -1.7819
  151SAPE  C31416806   3.089   3.742   8.736 -0.6091  0.0049 -0.6854
  151SAPE  H14X16807   3.028   3.835   8.737  0.5528  0.8222 -2.2295
  151SAPE  H14Y16808   3.024   3.655   8.713  1.4342 -1.4914 -1.0650
  151SAPE  C31516809   3.180   3.747   8.611 -0.1673 -0.5534  0.3717
  151SAPE  H15X16810   3.116   3.766   8.522  0.1393  2.1794  0.6557
  151SAPE  H15Y16811   3.236   3.655   8.583  0.4570  0.2053 -0.9511
  151SAPE  C31616812   3.286   3.860   8.610  0.0311  0.1349 -0.0865
  151SAPE  H16X16813   3.377   3.842   8.670 -0.0353  2.3970  0.8219
  151SAPE  H16Y16814   3.232   3.949   8.649  0.2352 -0.0758  0.6858
  151SAPE  C31716815   3.343   3.886   8.467 -0.0964 -0.7259 -0.3039
  151SAPE  H17X16816   3.262   3.923   8.400 -1.0836  2.1868  2.2452
  151SAPE  H17Y16817   3.365   3.785   8.428  1.7640  0.2986 -2.0720
  151SAPE  C31816818   3.456   3.996   8.462  0.1238  0.4091 -0.7188
  151SAPE  H18X16819   3.515   3.999   8.368 -1.4725  1.2520 -1.7340
  151SAPE  H18Y16820   3.532   3.982   8.541 -0.6077  1.2629  0.1661
  151SAPE  H18Z16821   3.416   4.098   8.483 -0.5598 -0.1731  1.0324
  152SAPE     N16822   3.995   1.221  11.069  0.0223  0.1272  0.5055
  152SAPE   HN116823   4.081   1.270  11.035  0.3461 -0.9141 -0.2295
  152SAPE   HN216824   3.947   1.263  11.151  2.9439 -2.7651  4.0192
  152SAPE   HN316825   4.019   1.125  11.101 -0.6039 -0.5925 -1.0414
  152SAPE   C1216826   3.913   1.215  10.941  1.1282 -0.1083  0.5230
  152SAPE  H12A16827   3.870   1.316  10.922  1.2107 -0.3406 -1.0161
  152SAPE  H12B16828   3.831   1.142  10.956  0.7605 -0.7595 -3.4782
  152SAPE   C1116829   4.006   1.179  10.826 -0.0388 -0.6714  1.0103
  152SAPE  H11A16830   4.078   1.262  10.812  0.6971 -1.3711  0.5381
  152SAPE  H11B16831   3.953   1.173  10.729 -1.1456  0.2144  1.5494
  152SAPE     P16832   4.195   1.013  10.767 -0.2819  0.2045  0.7772
  152SAPE   O1316833   4.310   1.102  10.790 -0.2639  0.2052  0.1754
  152SAPE   O1416834   4.219   0.870  10.787 -0.4620  0.4234  0.0261
  152SAPE   O1216835   4.074   1.060  10.856 -0.3815 -0.1562 -0.3068
  152SAPE   O1116836   4.158   1.040  10.620  0.4595 -0.1887 -0.1899
  152SAPE    C116837   4.041   0.968  10.553  0.2968  0.0435  0.7855
  152SAPE    HA16838   4.030   0.867  10.598  0.7958 -0.5733 -0.4290
  152SAPE    HB16839   3.942   1.014  10.569 -1.1569 -1.5596 -2.6684
  152SAPE    C216840   4.062   0.959  10.403 -0.3298 -0.6774  0.9050
  152SAPE    HS16841   4.029   0.859  10.366 -0.4491 -1.0878  2.0921
  152SAPE   O2116842   4.202   0.978  10.368 -0.1582 -0.4113  0.4342
  152SAPE   C2116843   4.278   0.877  10.377  0.1101 -0.0598  0.5568
  152SAPE   O2216844   4.251   0.760  10.395 -0.3892  0.3383  0.3117
  152SAPE   C2216845   4.425   0.921  10.357  0.8226 -0.1843  0.4245
  152SAPE   H2R16846   4.422   1.029  10.330 -1.5280 -0.0960  0.8251
  152SAPE   H2S16847   4.489   0.901  10.446 -2.2099 -2.1711  2.3424
  152SAPE    C316848   3.976   1.068  10.329 -0.0920  0.1125  0.2468
  152SAPE    HX16849   4.003   1.172  10.358 -1.2598  0.6494 -0.4972
  152SAPE    HY16850   3.872   1.048  10.365 -0.6855  0.1347 -1.3734
  152SAPE   O3116851   3.990   1.040  10.186 -0.1761 -0.4664 -0.1215
  152SAPE   C3116852   4.068   1.126  10.117 -0.0275  0.2682 -0.4730
  152SAPE   O3216853   4.132   1.222  10.165  0.4270  0.4418 -0.1002
  152SAPE   C3216854   4.080   1.071   9.973  0.1721  0.4856  0.8720
  152SAPE   H2X16855   3.975   1.063   9.939  0.3487 -0.9742  0.6203
  152SAPE   H2Y16856   4.137   0.976   9.983 -0.4126 -0.0863 -0.8075
  152SAPE   C2316857   4.489   0.847  10.238  0.3753  0.3409 -0.1012
  152SAPE   H3R16858   4.458   0.741  10.253  3.1155 -0.2911  1.7919
  152SAPE   H3S16859   4.600   0.845  10.237  0.3887 -1.2949 -2.0288
  152SAPE   C2416860   4.427   0.860  10.096  0.2057 -0.7630 -0.5580
  152SAPE   H4R16861   4.317   0.856  10.109  0.3701  0.8580  2.1774
  152SAPE   H4S16862   4.471   0.779  10.033 -0.0324 -0.0440 -1.6750
  152SAPE   C2516863   4.467   0.989  10.031 -0.1707 -0.1400 -0.1664
  152SAPE   H5R16864   4.491   1.068  10.104 -0.1824 -0.1058 -0.1995
  152SAPE   C2616865   4.489   1.005   9.896 -0.7741  0.4644 -0.9861
  152SAPE   H6R16866   4.527   1.102   9.861  1.7998  0.4244  1.3514
  152SAPE   C2716867   4.497   0.891   9.793  0.5001  0.1744 -0.4922
  152SAPE   H7R16868   4.414   0.914   9.723  1.2050  1.2641 -0.9929
  152SAPE   H7S16869   4.470   0.790   9.831  0.2902  0.1607 -0.6721
  152SAPE   C2816870   4.622   0.892   9.717  0.2319  0.0506  0.3977
  152SAPE   H8R16871   4.715   0.859   9.765  1.8583  0.1815 -2.4426
  152SAPE   C2916872   4.638   0.937   9.588  0.5286  0.7764  0.1302
  152SAPE   H9R16873   4.738   0.942   9.543 -0.1694  2.7007 -1.3322
  152SAPE  C21016874   4.541   0.985   9.487  0.3740  0.3755 -0.5752
  152SAPE  H10R16875   4.596   1.050   9.415  2.1607  0.0697  0.4450
  152SAPE  H10S16876   4.468   1.045   9.545  1.8095  2.5182 -0.8535
  152SAPE  C21116877   4.469   0.871   9.413 -0.1436  0.9510  0.6197
  152SAPE  H11R16878   4.457   0.779   9.473  3.2011  1.3019  2.0635
  152SAPE  C21216879   4.416   0.881   9.290 -0.4761  0.3096  0.5509
  152SAPE  H12R16880   4.364   0.795   9.244 -2.4341  0.7092  1.9083
  152SAPE  C21316881   4.425   1.008   9.208 -0.3054 -0.1840  0.0107
  152SAPE  H13R16882   4.528   1.020   9.169 -0.3494  2.4332  0.4803
  152SAPE  H13S16883   4.396   1.098   9.267 -1.1820  0.0629 -0.7684
  152SAPE  C21416884   4.320   1.013   9.096 -0.7981  0.4053  0.4612
  152SAPE  H14R16885   4.219   1.035   9.133 -1.6025 -2.4061  0.1652
  152SAPE  C21516886   4.331   0.971   8.966  0.4102 -1.0039 -0.9320
  152SAPE  H15R16887   4.244   0.981   8.900 -0.8142  1.2203  0.8942
  152SAPE  C21616888   4.449   0.918   8.892 -0.4581  0.1094 -0.7694
  152SAPE  H16R16889   4.423   0.815   8.860 -1.7569  0.3702 -0.6347
  152SAPE  H16S16890   4.541   0.907   8.953  0.5721  2.6629 -1.6958
  152SAPE  C21716891   4.487   0.994   8.760  0.1244  0.1352  0.1816
  152SAPE  H17R16892   4.532   1.087   8.802 -0.7585 -0.1644  1.8761
  152SAPE  H17S16893   4.398   1.008   8.696 -0.3539 -0.9788  0.5756
  152SAPE  C21816894   4.612   0.922   8.690  0.5473 -0.3256  0.6707
  152SAPE  H18R16895   4.587   0.827   8.637 -0.4530 -0.6603  1.7175
  152SAPE  H18S16896   4.684   0.886   8.767  1.6169 -4.2218 -1.7919
  152SAPE  C21916897   4.683   1.005   8.578  0.2819  0.1540 -0.5661
  152SAPE  H19R16898   4.736   1.085   8.634 -0.6507 -1.2043  2.5112
  152SAPE  H19S16899   4.602   1.050   8.515 -0.3857 -1.4571 -0.9159
  152SAPE  C22016900   4.790   0.925   8.498  0.5215 -0.3676 -0.3444
  152SAPE  H20R16901   4.743   0.848   8.433 -0.3994  0.3511 -0.5415
  152SAPE  H20S16902   4.859   0.873   8.568  4.2399  1.7664 -2.1603
  152SAPE  H20T16903   4.861   0.995   8.449  1.9024 -1.0011  0.6641
  152SAPE   C3316904   4.141   1.170   9.864  0.1327  0.1799 -0.0764
  152SAPE   H3X16905   4.248   1.191   9.884  0.3093  1.3584 -1.9554
  152SAPE   H3Y16906   4.088   1.267   9.874 -1.6532 -0.8902  1.5509
  152SAPE   C3416907   4.128   1.109   9.722  0.3354 -0.0848  0.3713
  152SAPE   H4X16908   4.020   1.090   9.702  1.0305 -3.1217 -1.1600
  152SAPE   H4Y16909   4.185   1.013   9.726 -1.7879 -1.5285 -1.5206
  152SAPE   C3516910   4.187   1.199   9.616  0.9087 -0.2816  0.0926
  152SAPE   H5X16911   4.296   1.207   9.635  0.6824 -0.9228  1.8845
  152SAPE   H5Y16912   4.139   1.299   9.618  0.2178 -0.6153  1.1250
  152SAPE   C3616913   4.173   1.143   9.473 -0.3475  0.1676  0.4616
  152SAPE   H6X16914   4.242   1.059   9.456  0.7151  0.8506  1.2442
  152SAPE   H6Y16915   4.213   1.217   9.400 -0.2046  1.5753  1.8948
  152SAPE   C3716916   4.032   1.093   9.443  0.2394  0.2591 -0.3975
  152SAPE   H7X16917   3.964   1.171   9.483 -0.9277 -0.2110 -1.4024
  152SAPE   H7Y16918   4.006   1.000   9.498 -0.5706  1.3296  1.1022
  152SAPE   C3816919   4.009   1.069   9.293  0.1335 -0.3723 -0.2913
  152SAPE   H8X16920   3.907   1.025   9.297 -0.0720  0.0475 -0.8168
  152SAPE   H8Y16921   4.092   1.000   9.264  0.8432  0.5499 -0.4898
  152SAPE   C3916922   3.999   1.189   9.203  0.0833 -0.1914 -0.0093
  152SAPE   H9X16923   4.083   1.260   9.219 -0.9542  1.2259 -0.6288
  152SAPE   H9Y16924   3.907   1.245   9.230  1.2384  0.9903  1.6279
  152SAPE  C31016925   3.987   1.158   9.051  0.0413  0.7227  0.4475
  152SAPE  H10X16926   3.889   1.111   9.024  0.4146  0.7729 -1.1017
  152SAPE  H10Y16927   4.063   1.080   9.030 -1.1604  0.0027 -1.5058
  152SAPE  C31116928   4.005   1.267   8.955  0.4639  1.0623 -0.1749
  152SAPE  H11X16929   4.103   1.315   8.973  0.4110  0.6341  1.4160
  152SAPE  H11Y16930   3.920   1.336   8.976 -1.9168 -1.9569  0.7681
  152SAPE  C31216931   3.999   1.220   8.808 -0.5158 -0.2204 -0.2893
  152SAPE  H12X16932   3.894   1.195   8.783 -1.4031 -0.8133  3.4345
  152SAPE  H12Y16933   4.066   1.133   8.792  0.7393 -0.1350  3.5342
  152SAPE  C31316934   4.059   1.330   8.709  0.0700  0.3129  0.7740
  152SAPE  H13X16935   4.161   1.354   8.744  0.3549  2.6698 -1.3884
  152SAPE  H13Y16936   3.995   1.421   8.701  0.1947  0.3753  0.4834
  152SAPE  C31416937   4.078   1.281   8.566  0.2816 -0.7912  0.2033
  152SAPE  H14X16938   3.986   1.239   8.520 -0.8906  1.1812  0.5958
  152SAPE  H14Y16939   4.139   1.189   8.571 -3.3333 -3.3721  1.4261
  152SAPE  C31516940   4.145   1.378   8.477 -0.4013 -0.3595 -0.3391
  152SAPE  H15X16941   4.168   1.324   8.382 -2.2608  0.1717 -1.1416
  152SAPE  H15Y16942   4.244   1.397   8.523  0.4445  0.9144 -2.5035
  152SAPE  C31616943   4.072   1.511   8.460  0.7838  0.2596 -0.1200
  152SAPE  H16X16944   4.121   1.586   8.394  3.8131  1.3789  3.0817
  152SAPE  H16Y16945   4.078   1.560   8.560 -0.5189  1.9773 -0.8297
  152SAPE  C31716946   3.933   1.493   8.414  0.3837 -0.0465  0.0878
  152SAPE  H17X16947   3.877   1.437   8.493  0.7244 -0.9588 -0.3075
  152SAPE  H17Y16948   3.916   1.432   8.323  1.1717  0.2328 -0.2482
  152SAPE  C31816949   3.856   1.622   8.406 -0.1834  0.7998 -0.6438
  152SAPE  H18X16950   3.847   1.668   8.507 -0.0336 -2.2964  0.9042
  152SAPE  H18Y16951   3.750   1.601   8.381 -0.1093  0.5149 -0.7237
  152SAPE  H18Z16952   3.906   1.690   8.334 -2.4553  0.7873 -2.3284
  153SAPE     N16953   5.013   3.090  10.632 -0.0404  0.6850 -0.4424
  153SAPE   HN116954   5.037   2.990  10.648 -2.9384 -0.3489 -1.7298
  153SAPE   HN216955   4.909   3.094  10.641  0.0840  2.0067  0.7853
  153SAPE   HN316956   5.050   3.121  10.540  0.1956 -1.8738 -1.2851
  153SAPE   C1216957   5.073   3.190  10.731  0.3586  0.1861  0.4805
  153SAPE  H12A16958   5.014   3.182  10.825  0.0179  1.5847  0.4143
  153SAPE  H12B16959   5.048   3.288  10.685  0.3305  0.0969  0.3045
  153SAPE   C1116960   5.229   3.167  10.747  0.5225 -0.5088  0.2352
  153SAPE  H11A16961   5.270   3.179  10.645  0.1534  0.1563  0.1582
  153SAPE  H11B16962   5.243   3.063  10.785 -1.3548 -0.1549  2.1464
  153SAPE     P16963   5.441   3.279  10.830  0.0870 -0.0144  0.1390
  153SAPE   O1316964   5.474   3.389  10.926 -0.0925  0.2600  0.3474
  153SAPE   O1416965   5.503   3.150  10.856 -0.1133  0.0732 -0.1118
  153SAPE   O1216966   5.285   3.266  10.839 -0.1205 -1.2083  0.2711
  153SAPE   O1116967   5.473   3.326  10.684 -0.1704  0.3059 -0.2346
  153SAPE    C116968   5.428   3.448  10.632 -0.1478  0.2400  0.8561
  153SAPE    HA16969   5.352   3.491  10.701 -1.9868 -0.0724 -0.8743
  153SAPE    HB16970   5.511   3.521  10.635  0.4742 -0.3189 -1.1335
  153SAPE    C216971   5.357   3.439  10.495 -0.5761 -0.1167 -0.7065
  153SAPE    HS16972   5.287   3.355  10.512 -1.5510  1.2762  3.0534
  153SAPE   O2116973   5.453   3.410  10.396 -0.3640  0.0220  0.4724
  153SAPE   C2116974   5.410   3.325  10.297 -0.6302 -0.3003  0.0883
  153SAPE   O2216975   5.294   3.291  10.285  0.5005  0.1272 -0.2666
  153SAPE   C2216976   5.518   3.295  10.193 -0.2680  0.2287 -1.1785
  153SAPE   H2R16977   5.604   3.255  10.251 -2.0478  0.7850  2.0616
  153SAPE   H2S16978   5.475   3.223  10.120 -2.0784 -0.3066  0.3616
  153SAPE    C316979   5.274   3.571  10.462 -0.1217  0.2457 -0.2195
  153SAPE    HX16980   5.354   3.646  10.447  0.9665 -1.2044 -2.1270
  153SAPE    HY16981   5.218   3.610  10.550  0.7833  2.3212 -0.4959
  153SAPE   O3116982   5.179   3.573  10.357 -0.1960 -0.3737  0.6144
  153SAPE   C3116983   5.061   3.512  10.380 -0.4844  0.1267  0.2969
  153SAPE   O3216984   5.040   3.446  10.478 -0.1877  0.2363 -0.0061
  153SAPE   C3216985   4.963   3.551  10.269 -0.1631  0.0221 -0.2295
  153SAPE   H2X16986   5.016   3.611  10.191 -1.7910 -0.2843 -1.6427
  153SAPE   H2Y16987   4.889   3.615  10.322  0.3654 -0.8169  1.5870
  153SAPE   C2316988   5.555   3.426  10.117 -0.3676  0.5425  0.4506
  153SAPE   H3R16989   5.646   3.401  10.059 -0.7352 -0.5552  0.3404
  153SAPE   H3S16990   5.583   3.510  10.185  1.1859 -1.6802  2.7244
  153SAPE   C2416991   5.446   3.465  10.017  0.0027 -0.4092 -0.3358
  153SAPE   H4R16992   5.356   3.505  10.069 -0.2454  0.7445 -1.5828
  153SAPE   H4S16993   5.416   3.366   9.976  0.7743 -1.1742  0.8778
  153SAPE   C2516994   5.497   3.566   9.919 -0.1419  0.1447 -0.4722
  153SAPE   H5R16995   5.528   3.664   9.959  1.5091 -0.1715 -0.9204
  153SAPE   C2616996   5.538   3.541   9.795  0.8716  0.4927  0.3265
  153SAPE   H6R16997   5.564   3.628   9.733  0.2044 -0.5623 -1.5145
  153SAPE   C2716998   5.548   3.411   9.721 -1.1225 -0.4207  0.5716
  153SAPE   H7R16999   5.498   3.411   9.622 -1.7079 -1.3666  0.8447
  153SAPE   H7S17000   5.486   3.339   9.779  0.3938 -1.8588  0.4832
  153SAPE   C2817001   5.683   3.350   9.702 -0.1218  0.2674  0.2960
  153SAPE   H8R17002   5.760   3.374   9.777 -0.5552  0.6179  0.6347
  153SAPE   C2917003   5.717   3.260   9.606  0.2477 -0.7366 -0.0055
  153SAPE   H9R17004   5.818   3.216   9.612  0.9811  0.7613 -0.6745
  153SAPE  C21017005   5.618   3.211   9.499 -0.1985 -0.2830 -0.5590
  153SAPE  H10R17006   5.609   3.286   9.417 -0.9295  0.4367  0.1682
  153SAPE  H10S17007   5.510   3.205   9.523 -0.5277 -0.7601 -2.0656
  153SAPE  C21117008   5.658   3.075   9.454 -0.0460 -0.4137  0.0629
  153SAPE  H11R17009   5.667   3.001   9.535  0.8954  0.7857  1.0850
  153SAPE  C21217010   5.688   3.039   9.328  0.7642 -0.2381  0.4097
  153SAPE  H12R17011   5.710   2.934   9.305  1.4599  0.0621 -0.3494
  153SAPE  C21317012   5.679   3.136   9.214 -0.6227  0.0244  0.1890
  153SAPE  H13R17013   5.618   3.229   9.223 -0.2614  0.3220 -0.4253
  153SAPE  H13S17014   5.610   3.092   9.138 -1.3406  1.8575 -0.2801
  153SAPE  C21417015   5.815   3.160   9.150  0.2320 -0.0197 -0.6904
  153SAPE  H14R17016   5.896   3.168   9.224  0.5462 -0.0935 -1.0265
  153SAPE  C21517017   5.838   3.147   9.019 -0.9642  0.2922 -0.3538
  153SAPE  H15R17018   5.942   3.157   8.986 -0.8197 -0.1821 -0.0517
  153SAPE  C21617019   5.744   3.122   8.905  0.0885  0.4842  0.6227
  153SAPE  H16R17020   5.640   3.111   8.943 -0.0619 -0.5026 -0.0428
  153SAPE  H16S17021   5.778   3.024   8.867  0.7067  1.2801 -0.9459
  153SAPE  C21717022   5.740   3.222   8.790  0.2943 -0.0373  0.4072
  153SAPE  H17R17023   5.703   3.316   8.836 -2.1859 -1.2091  0.9671
  153SAPE  H17S17024   5.664   3.196   8.713  1.5500 -0.7837 -0.6351
  153SAPE  C21817025   5.873   3.253   8.717 -0.8336 -0.5887  0.2454
  153SAPE  H18R17026   5.918   3.156   8.687 -0.5525 -0.1653 -0.7085
  153SAPE  H18S17027   5.945   3.302   8.786 -0.1068 -2.0664  0.5691
  153SAPE  C21917028   5.847   3.334   8.586  0.5102  0.4245 -0.1463
  153SAPE  H19R17029   5.756   3.300   8.531 -0.6528  3.8593 -0.5855
  153SAPE  H19S17030   5.937   3.324   8.521  0.3832  1.0272 -0.4191
  153SAPE  C22017031   5.826   3.486   8.603  0.3426  0.2397 -0.0160
  153SAPE  H20R17032   5.915   3.534   8.650 -0.0415 -0.3398  1.3330
  153SAPE  H20S17033   5.744   3.521   8.669  2.5627  0.0416  3.0756
  153SAPE  H20T17034   5.819   3.525   8.499 -2.6715  2.4262  0.8974
  153SAPE   C3317035   4.894   3.440  10.195 -0.1843 -0.2509  0.9530
  153SAPE   H3X17036   4.809   3.477  10.133  0.7160 -0.8150 -0.6884
  153SAPE   H3Y17037   4.843   3.379  10.273 -0.4793  1.7862  2.4393
  153SAPE   C3417038   4.999   3.372  10.093  0.2947 -0.7057 -0.2360
  153SAPE   H4X17039   4.959   3.268  10.088 -0.5976 -0.3319 -1.4742
  153SAPE   H4Y17040   5.097   3.362  10.145 -1.7519 -2.2354  3.8090
  153SAPE   C3517041   4.996   3.442   9.951 -0.0145  0.0140  0.3897
  153SAPE   H5X17042   5.032   3.542   9.982 -0.3624  0.3614 -0.3095
  153SAPE   H5Y17043   4.897   3.467   9.909  1.3940  3.8253 -1.0854
  153SAPE   C3617044   5.094   3.389   9.858  0.0242 -0.1623 -0.0127
  153SAPE   H6X17045   5.065   3.283   9.842 -4.0274  0.8403 -0.3025
  153SAPE   H6Y17046   5.196   3.381   9.904  1.1574  1.3682 -2.0951
  153SAPE   C3717047   5.093   3.461   9.722 -0.0051 -0.4429  0.2017
  153SAPE   H7X17048   5.108   3.570   9.732 -0.3802 -0.4781  1.2988
  153SAPE   H7Y17049   4.987   3.455   9.688  0.5995 -0.1342 -1.8273
  153SAPE   C3817050   5.168   3.402   9.606  0.9549  0.1200  0.6713
  153SAPE   H8X17051   5.104   3.323   9.561 -0.4033  2.1311 -1.2040
  153SAPE   H8Y17052   5.262   3.352   9.635 -0.0773 -1.3235  1.6350
  153SAPE   C3917053   5.192   3.505   9.488 -0.3565 -0.2907 -0.9060
  153SAPE   H9X17054   5.267   3.574   9.533 -1.1864 -0.3628  0.6547
  153SAPE   H9Y17055   5.109   3.550   9.431  0.7879  1.5485 -1.1836
  153SAPE  C31017056   5.278   3.433   9.392  0.7556  0.3703  0.4023
  153SAPE  H10X17057   5.229   3.346   9.343  2.3580 -0.1791 -0.2741
  153SAPE  H10Y17058   5.372   3.398   9.439 -0.7166 -0.7886  2.7170
  153SAPE  C31117059   5.322   3.522   9.273  0.5568 -0.4171 -0.7046
  153SAPE  H11X17060   5.383   3.597   9.327 -0.7706 -0.3148  0.7155
  153SAPE  H11Y17061   5.233   3.567   9.224 -0.1909 -2.0096 -0.8807
  153SAPE  C31217062   5.391   3.449   9.155 -0.7616  0.0163 -0.0733
  153SAPE  H12X17063   5.333   3.363   9.115  0.6231 -1.7463  1.4782
  153SAPE  H12Y17064   5.484   3.404   9.198 -0.5385  1.2476  0.7778
  153SAPE  C31317065   5.425   3.541   9.044 -0.0546  0.7223 -0.3289
  153SAPE  H13X17066   5.331   3.594   9.019 -0.8509  0.9305  2.6943
  153SAPE  H13Y17067   5.444   3.481   8.952 -0.8440  1.0444 -0.7107
  153SAPE  C31417068   5.532   3.657   9.071 -0.4938  0.6322  0.5901
  153SAPE  H14X17069   5.629   3.605   9.088 -0.1645  0.7138 -0.9683
  153SAPE  H14Y17070   5.525   3.714   9.167  2.5987  0.8378  0.7843
  153SAPE  C31517071   5.532   3.775   8.978  1.0634  0.5662  0.1816
  153SAPE  H15X17072   5.594   3.855   9.024  0.5093  0.4988  1.0758
  153SAPE  H15Y17073   5.433   3.825   8.980  1.3787  1.1905  1.2569
  153SAPE  C31617074   5.583   3.739   8.840  0.4996  0.3824 -0.1098
  153SAPE  H16X17075   5.509   3.672   8.791  1.9681 -1.7939  0.4792
  153SAPE  H16Y17076   5.677   3.680   8.850 -1.0978 -2.1224  1.4717
  153SAPE  C31717077   5.596   3.863   8.752  0.8945 -0.7390 -0.7704
  153SAPE  H17X17078   5.689   3.910   8.789 -0.7086  0.5766  1.9002
  153SAPE  H17Y17079   5.506   3.927   8.765  2.4929  1.5733 -0.4642
  153SAPE  C31817080   5.612   3.834   8.598 -0.0787  0.1867 -0.1666
  153SAPE  H18X17081   5.697   3.764   8.582  1.0057  1.0349  1.5377
  153SAPE  H18Y17082   5.642   3.931   8.553  1.5713 -0.3565 -0.2815
  153SAPE  H18Z17083   5.515   3.806   8.552 -0.0032  1.0008 -0.8446
  154SAPE     N17084   5.237   2.731  10.925 -0.1449  0.3344 -0.4098
  154SAPE   HN117085   5.147   2.757  10.971  1.1125  0.4805  2.1290
  154SAPE   HN217086   5.312   2.803  10.930  0.0912 -0.0019  1.4584
  154SAPE   HN317087   5.216   2.704  10.827  0.4053 -1.5810 -0.0265
  154SAPE   C1217088   5.296   2.610  10.992  0.1250 -0.3146 -0.5397
  154SAPE  H12A17089   5.219   2.541  11.032 -0.8386  0.8404 -0.3269
  154SAPE  H12B17090   5.348   2.656  11.079 -0.7538 -2.2578  1.0793
  154SAPE   C1117091   5.408   2.547  10.898 -0.3270  0.1020 -1.0419
  154SAPE  H11A17092   5.372   2.470  10.826  0.3157  0.0898 -1.3542
  154SAPE  H11B17093   5.473   2.495  10.971 -2.0076 -0.7218 -0.0786
  154SAPE     P17094   5.582   2.614  10.721 -0.2102  0.1464  0.2325
  154SAPE   O1317095   5.691   2.543  10.789 -0.4659 -0.4865 -0.0187
  154SAPE   O1417096   5.501   2.540  10.620 -0.2994  0.5742 -0.4625
  154SAPE   O1217097   5.487   2.651  10.837  0.0293 -1.0406 -0.1761
  154SAPE   O1117098   5.639   2.747  10.665 -0.7385  0.3456  0.1550
  154SAPE    C117099   5.556   2.865  10.647 -0.2388 -0.2429  0.3719
  154SAPE    HA17100   5.452   2.830  10.634 -0.2861 -0.3237  0.9681
  154SAPE    HB17101   5.557   2.926  10.740 -1.1668  0.9524 -0.3755
  154SAPE    C217102   5.608   2.943  10.522 -0.2185  0.3868  0.1547
  154SAPE    HS17103   5.546   3.035  10.514 -0.1081  0.5354  0.9285
  154SAPE   O2117104   5.610   2.853  10.405  0.6683 -1.0667  0.2976
  154SAPE   C2117105   5.488   2.834  10.354  0.0566 -0.0809 -0.3960
  154SAPE   O2217106   5.386   2.885  10.396 -0.8952  0.4787 -0.0315
  154SAPE   C2217107   5.496   2.745  10.222  0.9358 -0.7522 -0.5005
  154SAPE   H2R17108   5.472   2.807  10.133 -0.1701  1.8515  1.5089
  154SAPE   H2S17109   5.600   2.716  10.196 -0.1025 -2.6662 -2.9862
  154SAPE    C317110   5.759   2.986  10.542 -0.4212 -0.2089  0.1990
  154SAPE    HX17111   5.830   2.902  10.556  0.6459  0.7627  0.8416
  154SAPE    HY17112   5.761   3.039  10.640 -0.3767  2.6021 -1.2252
  154SAPE   O3117113   5.796   3.080  10.432  0.4887 -0.3580 -0.1645
  154SAPE   C3117114   5.883   3.042  10.341 -0.0789  0.3967 -0.9366
  154SAPE   O3217115   5.931   2.927  10.326 -0.2655 -0.2024  0.5064
  154SAPE   C3217116   5.916   3.152  10.249 -0.2024  0.2070 -0.0384
  154SAPE   H2X17117   6.009   3.190  10.298 -0.1422 -0.7462  0.6204
  154SAPE   H2Y17118   5.846   3.237  10.262  0.8207  0.7987  2.2415
  154SAPE   C2317119   5.406   2.629  10.244 -0.7777 -0.0787 -0.6299
  154SAPE   H3R17120   5.304   2.672  10.239 -1.0079  0.1407  3.3202
  154SAPE   H3S17121   5.414   2.584  10.345  0.1309 -2.0256 -1.5134
  154SAPE   C2417122   5.416   2.522  10.140  0.4186  0.2181 -0.1234
  154SAPE   H4R17123   5.510   2.463  10.132  0.2309  0.0527 -1.3592
  154SAPE   H4S17124   5.400   2.571  10.042  1.0250  2.1336  0.6926
  154SAPE   C2517125   5.301   2.423  10.163  0.6141  0.4018  0.4756
  154SAPE   H5R17126   5.306   2.368  10.258  0.9101  0.8554  0.7234
  154SAPE   C2617127   5.207   2.391  10.077  0.4101 -0.4072  0.8987
  154SAPE   H6R17128   5.132   2.324  10.123 -1.2516  0.3965 -0.5260
  154SAPE   C2717129   5.179   2.447   9.941  0.2910  0.2906  0.3911
  154SAPE   H7R17130   5.155   2.553   9.963  0.2130 -0.1340  2.5640
  154SAPE   H7S17131   5.087   2.399   9.902 -0.7056  4.1283 -2.6521
  154SAPE   C2817132   5.287   2.437   9.840 -0.6701  0.0078 -0.1691
  154SAPE   H8R17133   5.387   2.413   9.880 -0.4433  1.2219  0.0320
  154SAPE   C2917134   5.283   2.481   9.717  0.4589 -0.2838  0.2518
  154SAPE   H9R17135   5.366   2.455   9.649  0.3283  0.2615 -0.1213
  154SAPE  C21017136   5.163   2.542   9.653 -0.0456  0.0671  0.3856
  154SAPE  H10R17137   5.120   2.616   9.725 -0.7888 -1.2478  1.3338
  154SAPE  H10S17138   5.092   2.457   9.644 -0.3462 -0.1810  3.6828
  154SAPE  C21117139   5.198   2.600   9.522 -0.5690 -0.4213  0.9107
  154SAPE  H11R17140   5.250   2.697   9.524 -1.8189  0.2539  1.3163
  154SAPE  C21217141   5.181   2.539   9.399 -0.0574  0.4616 -0.3600
  154SAPE  H12R17142   5.238   2.592   9.321  0.3834  0.7332  0.1364
  154SAPE  C21317143   5.128   2.397   9.376 -0.3043 -0.3960  0.5659
  154SAPE  H13R17144   5.019   2.408   9.358 -0.4480 -0.0746  1.5614
  154SAPE  H13S17145   5.132   2.342   9.472  0.8722  1.8087  1.8681
  154SAPE  C21417146   5.206   2.328   9.263  0.6002  0.1710 -0.2754
  154SAPE  H14R17147   5.288   2.265   9.301 -1.2051 -2.7720 -0.9209
  154SAPE  C21517148   5.171   2.341   9.132 -0.2588  1.0942 -0.0503
  154SAPE  H15R17149   5.226   2.285   9.055 -3.1327 -0.8176 -0.8888
  154SAPE  C21617150   5.057   2.423   9.070  0.5149  0.3644  0.1658
  154SAPE  H16R17151   5.108   2.516   9.037  2.0881 -0.7335 -0.6665
  154SAPE  H16S17152   4.973   2.440   9.141  0.3674  2.0998 -0.3923
  154SAPE  C21717153   5.009   2.368   8.935  0.1003 -0.3315  1.1098
  154SAPE  H17R17154   4.974   2.263   8.943 -1.8906  0.3139  1.4085
  154SAPE  H17S17155   5.093   2.366   8.862 -0.6360  0.4205  0.2193
  154SAPE  C21817156   4.910   2.459   8.859  0.4149 -0.2476 -0.8247
  154SAPE  H18R17157   4.953   2.557   8.831 -1.8691  0.4269 -2.2572
  154SAPE  H18S17158   4.841   2.487   8.942  4.4244  0.4947  2.5602
  154SAPE  C21917159   4.836   2.395   8.735  0.3654 -0.3343  0.1489
  154SAPE  H19R17160   4.785   2.299   8.755 -1.6906  0.0264 -2.6319
  154SAPE  H19S17161   4.900   2.374   8.647 -3.1472  0.4870 -2.8749
  154SAPE  C22017162   4.721   2.482   8.680  0.0914 -0.0860 -0.9351
  154SAPE  H20R17163   4.660   2.492   8.772 -0.3753 -1.9394 -1.0155
  154SAPE  H20S17164   4.671   2.424   8.600 -1.1520 -1.5215  0.8081
  154SAPE  H20T17165   4.759   2.583   8.654  1.0079 -0.4781 -1.1486
  154SAPE   C3317166   5.944   3.116  10.105  0.3775  0.2382  1.0574
  154SAPE   H3X17167   6.004   3.023  10.093  2.1548  1.6994 -2.9411
  154SAPE   H3Y17168   6.013   3.192  10.064  0.8934 -0.9897 -0.4455
  154SAPE   C3417169   5.822   3.097  10.010  0.9730 -0.0760 -0.4539
  154SAPE   H4X17170   5.870   3.114   9.911 -1.0213  0.5573 -1.3417
  154SAPE   H4Y17171   5.747   3.171  10.041  1.0788 -0.2780  0.2897
  154SAPE   C3517172   5.767   2.952  10.018  0.0421  0.0088  0.3145
  154SAPE   H5X17173   5.728   2.942  10.121  0.8956 -1.2778  0.5451
  154SAPE   H5Y17174   5.858   2.890  10.007  0.3561  0.6762 -1.0250
  154SAPE   C3617175   5.676   2.897   9.910  0.2949 -0.4439 -0.2604
  154SAPE   H6X17176   5.705   2.931   9.809  3.9123 -0.6047  0.5918
  154SAPE   H6Y17177   5.571   2.925   9.933 -0.1789 -2.3432  0.0464
  154SAPE   C3717178   5.677   2.749   9.898  0.3506  0.8541  0.2022
  154SAPE   H7X17179   5.643   2.710   9.996  0.2384  0.8710  0.1697
  154SAPE   H7Y17180   5.779   2.710   9.876 -0.1289  0.0373 -0.6515
  154SAPE   C3817181   5.580   2.685   9.791 -0.1306 -0.3329  0.1760
  154SAPE   H8X17182   5.479   2.730   9.803  0.3848  1.2472 -1.0400
  154SAPE   H8Y17183   5.576   2.574   9.803  1.2806 -0.3832  0.3485
  154SAPE   C3917184   5.636   2.701   9.649  0.3985 -0.1653 -0.3326
  154SAPE   H9X17185   5.735   2.651   9.648  0.5221  0.0445  0.6459
  154SAPE   H9Y17186   5.640   2.810   9.628 -3.0542  0.6356  2.2890
  154SAPE  C31017187   5.553   2.639   9.529 -0.1896 -0.7147 -0.9203
  154SAPE  H10X17188   5.460   2.693   9.503 -0.7317 -1.3994 -0.4182
  154SAPE  H10Y17189   5.526   2.537   9.563 -1.4680  0.2612  1.1725
  154SAPE  C31117190   5.636   2.639   9.401 -0.5287  0.0690 -0.0584
  154SAPE  H11X17191   5.733   2.591   9.428 -0.0224  1.4193  0.6409
  154SAPE  H11Y17192   5.668   2.743   9.376  1.5670 -0.6390 -0.5725
  154SAPE  C31217193   5.559   2.583   9.285  0.0686 -0.5982 -0.0636
  154SAPE  H12X17194   5.468   2.648   9.284  0.5812  0.1863  1.3758
  154SAPE  H12Y17195   5.544   2.473   9.294  0.9635 -0.6410  1.0822
  154SAPE  C31317196   5.630   2.605   9.149  0.1431  0.7667 -0.0184
  154SAPE  H13X17197   5.734   2.567   9.150 -0.1005  0.0035  2.4973
  154SAPE  H13Y17198   5.634   2.714   9.125 -0.7732  1.2269  1.6852
  154SAPE  C31417199   5.567   2.538   9.026  0.5807  0.3564 -0.1990
  154SAPE  H14X17200   5.458   2.559   9.033  0.3360 -0.8968 -0.0694
  154SAPE  H14Y17201   5.577   2.428   9.035 -1.5522  0.1099 -0.3252
  154SAPE  C31517202   5.618   2.583   8.885  0.0846  0.1105  0.1272
  154SAPE  H15X17203   5.722   2.544   8.878  0.1202  0.2022  0.1473
  154SAPE  H15Y17204   5.618   2.694   8.883 -0.6102  0.1739  1.8080
  154SAPE  C31617205   5.538   2.544   8.762  0.4795 -0.4489  0.0422
  154SAPE  H16X17206   5.561   2.436   8.754 -0.3072 -0.6023 -0.1694
  154SAPE  H16Y17207   5.589   2.596   8.677  1.8849  1.9283  2.1947
  154SAPE  C31717208   5.388   2.562   8.759  0.5492  0.1396 -0.3647
  154SAPE  H17X17209   5.357   2.666   8.783  1.8970  0.4508  0.0971
  154SAPE  H17Y17210   5.351   2.494   8.839  1.1457  0.7085  0.4130
  154SAPE  C31817211   5.326   2.510   8.633 -0.3981 -0.6695  0.3004
  154SAPE  H18X17212   5.350   2.406   8.604  0.9939 -1.0129  2.4681
  154SAPE  H18Y17213   5.360   2.572   8.547 -0.2404  0.5422  1.2083
  154SAPE  H18Z17214   5.215   2.517   8.625 -0.3111 -1.4878 -3.4942
  155SAPE     N17215   6.769   3.270  11.020  0.4092 -0.5012 -0.0173
  155SAPE   HN117216   6.851   3.331  11.002  1.0051 -1.9886 -2.7506
  155SAPE   HN217217   6.806   3.191  11.076 -0.1328 -0.1249  0.8959
  155SAPE   HN317218   6.742   3.234  10.926 -2.1429 -0.8996  0.7750
  155SAPE   C1217219   6.669   3.348  11.087  0.5490  0.5656 -0.5220
  155SAPE  H12A17220   6.694   3.367  11.193  0.9883  0.0887 -0.5369
  155SAPE  H12B17221   6.579   3.283  11.093  2.4467 -2.1576  0.2292
  155SAPE   C1117222   6.637   3.474  11.002 -0.5686 -0.5696 -0.1875
  155SAPE  H11A17223   6.546   3.520  11.047  0.5563  1.3789  0.2226
  155SAPE  H11B17224   6.620   3.455  10.894 -1.0384 -0.4793 -0.1303
  155SAPE     P17225   6.746   3.711  10.959 -0.0130  0.1379  0.3370
  155SAPE   O1317226   6.628   3.726  10.867 -1.1080 -0.0119  0.0964
  155SAPE   O1417227   6.765   3.803  11.073 -0.1747 -0.0245 -0.4291
  155SAPE   O1217228   6.755   3.560  11.013  1.1687  0.0061  0.1561
  155SAPE   O1117229   6.876   3.715  10.877  0.0839  0.1192 -0.3172
  155SAPE    C117230   6.912   3.610  10.786  0.1766 -0.1853  0.1572
  155SAPE    HA17231   7.023   3.608  10.781  0.2140 -1.2332  0.8904
  155SAPE    HB17232   6.878   3.511  10.824  0.2911 -0.1430  0.3724
  155SAPE    C217233   6.860   3.637  10.637 -0.1174 -0.3385 -0.3336
  155SAPE    HS17234   6.750   3.618  10.636 -0.2851  0.5408 -1.8505
  155SAPE   O2117235   6.943   3.545  10.554 -0.0387  0.3056 -0.0287
  155SAPE   C2117236   6.869   3.492  10.458  0.2022 -0.3845  0.1637
  155SAPE   O2217237   6.750   3.510  10.442 -1.0504  0.0340 -0.2564
  155SAPE   C2217238   6.937   3.400  10.372 -0.5480  0.6103  0.9341
  155SAPE   H2R17239   7.024   3.446  10.319 -1.2424 -0.5586 -1.3508
  155SAPE   H2S17240   6.982   3.320  10.435  1.1555 -0.8893 -1.9747
  155SAPE    C317241   6.879   3.790  10.592 -0.8146  0.1410  0.2592
  155SAPE    HX17242   6.977   3.830  10.626 -0.5796  0.2245 -0.5031
  155SAPE    HY17243   6.808   3.861  10.640  0.3296  0.6628  1.2326
  155SAPE   O3117244   6.870   3.784  10.449 -0.1089  0.4380 -0.1449
  155SAPE   C3117245   6.859   3.904  10.396  0.4539  0.2166 -0.3492
  155SAPE   O3217246   6.877   4.014  10.450 -0.4793  0.3073 -1.1967
  155SAPE   C3217247   6.819   3.890  10.250 -0.5432  0.7757 -0.3158
  155SAPE   H2X17248   6.826   3.989  10.200  0.5574  1.8715  1.8726
  155SAPE   H2Y17249   6.713   3.855  10.249 -0.1277 -0.5189  0.0329
  155SAPE   C2317250   6.853   3.348  10.258  0.4640 -0.1358  1.0504
  155SAPE   H3R17251   6.817   3.429  10.191 -0.6666  0.0903  1.9017
  155SAPE   H3S17252   6.767   3.288  10.295 -0.5585  0.8267  0.2947
  155SAPE   C2417253   6.940   3.250  10.175  0.1398 -0.4015 -0.6115
  155SAPE   H4R17254   6.876   3.199  10.100  0.2893 -1.4086 -0.0702
  155SAPE   H4S17255   6.965   3.170  10.248 -0.3366  0.5016  0.5769
  155SAPE   C2517256   7.060   3.306  10.102  0.4323 -0.1686  0.0270
  155SAPE   H5R17257   7.150   3.312  10.165 -1.6559  1.8333  3.1034
  155SAPE   C2617258   7.058   3.362   9.980 -0.1765 -0.0646  0.3203
  155SAPE   H6R17259   7.149   3.402   9.934 -1.4398 -0.1591 -2.4760
  155SAPE   C2717260   6.931   3.370   9.893 -0.2152  0.0724 -0.0756
  155SAPE   H7R17261   6.848   3.399   9.961 -0.3931 -1.1892  0.2612
  155SAPE   H7S17262   6.899   3.279   9.838  0.9675  0.3073 -1.1895
  155SAPE   C2817263   6.957   3.483   9.786  0.0996 -0.1047 -0.0380
  155SAPE   H8R17264   6.987   3.580   9.828  1.0251 -1.0235  1.5207
  155SAPE   C2917265   6.955   3.476   9.653  0.4484  0.6452 -0.1190
  155SAPE   H9R17266   6.976   3.570   9.599 -0.6083  0.8161 -0.2575
  155SAPE  C21017267   6.924   3.353   9.570  0.0453  0.0437 -0.2353
  155SAPE  H10R17268   6.819   3.322   9.592 -0.3656  0.3559 -1.6490
  155SAPE  H10S17269   6.981   3.264   9.603 -0.4426 -0.3139 -0.3313
  155SAPE  C21117270   6.933   3.372   9.423  0.1638  0.4495  0.9038
  155SAPE  H11R17271   7.012   3.441   9.391  0.2534 -0.9425 -2.2026
  155SAPE  C21217272   6.860   3.313   9.326  0.5730  0.0838  0.2424
  155SAPE  H12R17273   6.892   3.326   9.222  0.6221  0.0150  0.2484
  155SAPE  C21317274   6.748   3.209   9.358 -0.5892 -0.7617  0.7424
  155SAPE  H13R17275   6.649   3.259   9.368 -0.2321  0.4726 -1.2817
  155SAPE  H13S17276   6.773   3.161   9.455 -2.5071  1.3689  2.4082
  155SAPE  C21417277   6.747   3.100   9.253  0.4219  0.5803  0.7564
  155SAPE  H14R17278   6.744   2.997   9.289 -0.8909 -0.8644 -2.9757
  155SAPE  C21517279   6.722   3.118   9.122 -0.7136  0.8228 -0.1288
  155SAPE  H15R17280   6.717   3.032   9.054  2.3655 -0.9654  1.6591
  155SAPE  C21617281   6.700   3.249   9.047 -0.3821 -0.2070  0.4052
  155SAPE  H16R17282   6.688   3.335   9.117 -0.0560 -1.6149  2.2446
  155SAPE  H16S17283   6.604   3.248   8.990 -0.5226  1.3036  0.5735
  155SAPE  C21717284   6.795   3.295   8.935 -0.1691 -0.5229 -0.4269
  155SAPE  H17R17285   6.802   3.213   8.861 -1.8565 -1.8724  0.8305
  155SAPE  H17S17286   6.893   3.323   8.980  0.5909  0.1804 -2.3836
  155SAPE  C21817287   6.752   3.426   8.862 -0.1535 -0.2494  0.5018
  155SAPE  H18R17288   6.735   3.494   8.948 -1.3459 -1.2616  1.1003
  155SAPE  H18S17289   6.657   3.413   8.805  0.7056 -3.1089 -0.4579
  155SAPE  C21917290   6.856   3.475   8.763 -0.9820 -0.3900 -0.0609
  155SAPE  H19R17291   6.852   3.413   8.670  1.0180  1.0898 -1.2246
  155SAPE  H19S17292   6.958   3.464   8.805  1.0181  3.0309 -3.3376
  155SAPE  C22017293   6.845   3.620   8.711  0.1157  0.3704 -0.2368
  155SAPE  H20R17294   6.921   3.632   8.630  1.9437 -0.5350  1.2566
  155SAPE  H20S17295   6.864   3.695   8.791  0.4744  0.6327 -0.5621
  155SAPE  H20T17296   6.751   3.632   8.655 -0.6263 -3.6746 -0.1875
  155SAPE   C3317297   6.908   3.787  10.178  0.2843  0.1552 -0.2253
  155SAPE   H3X17298   6.913   3.697  10.243  2.4531  0.2729 -0.1572
  155SAPE   H3Y17299   7.006   3.833  10.153  0.6939 -1.5041 -2.0226
  155SAPE   C3417300   6.866   3.744  10.037  0.1872 -0.5519 -0.0182
  155SAPE   H4X17301   6.784   3.670  10.043  1.1643 -1.6017  1.0191
  155SAPE   H4Y17302   6.948   3.697   9.979 -0.2752 -1.4041  0.0062
  155SAPE   C3517303   6.812   3.869   9.965  0.0210 -0.0910  0.0852
  155SAPE   H5X17304   6.878   3.955   9.991 -0.6076 -0.3479  2.8482
  155SAPE   H5Y17305   6.712   3.896  10.004 -0.4114  0.2037 -1.1803
  155SAPE   C3617306   6.809   3.863   9.811 -0.1309 -0.1841 -0.3220
  155SAPE   H6X17307   6.905   3.826   9.768 -0.5843 -0.5985 -1.0052
  155SAPE   H6Y17308   6.798   3.966   9.771  0.9203  0.4302  0.9075
  155SAPE   C3717309   6.700   3.773   9.759 -0.2107 -0.3949 -0.0510
  155SAPE   H7X17310   6.613   3.763   9.827  0.7895 -0.4245  1.2586
  155SAPE   H7Y17311   6.730   3.667   9.771 -0.6374 -0.3520  1.5719
  155SAPE   C3817312   6.662   3.801   9.610 -0.1860  0.1809  0.2697
  155SAPE   H8X17313   6.762   3.793   9.560 -0.3075  0.1511  0.0294
  155SAPE   H8Y17314   6.615   3.900   9.593  0.5946  0.3136 -1.3687
  155SAPE   C3917315   6.594   3.670   9.552  1.0771 -1.0423  0.1460
  155SAPE   H9X17316   6.498   3.655   9.606  1.7898 -1.4235  1.3439
  155SAPE   H9Y17317   6.652   3.580   9.583 -0.7882 -1.2655  3.3865
  155SAPE  C31017318   6.568   3.666   9.400 -0.4927  0.3514  0.2967
  155SAPE  H10X17319   6.554   3.558   9.381  1.3675  0.1933 -0.4229
  155SAPE  H10Y17320   6.660   3.691   9.344 -0.6295 -2.8536 -1.6052
  155SAPE  C31117321   6.453   3.750   9.353  0.3197 -0.7023 -0.5060
  155SAPE  H11X17322   6.469   3.856   9.382 -1.6725 -0.5227  0.1079
  155SAPE  H11Y17323   6.362   3.710   9.402  0.3838  2.4066  2.4840
  155SAPE  C31217324   6.428   3.741   9.203 -0.8109 -0.0718  0.1319
  155SAPE  H12X17325   6.329   3.788   9.188 -1.2330 -0.8095  0.5562
  155SAPE  H12Y17326   6.439   3.640   9.158 -0.0235  0.0505  0.0239
  155SAPE  C31317327   6.534   3.835   9.134 -0.0052  0.3171  0.7929
  155SAPE  H13X17328   6.629   3.781   9.153 -1.0485 -2.2366 -0.7958
  155SAPE  H13Y17329   6.532   3.938   9.176  2.9076  0.5990  0.4734
  155SAPE  C31417330   6.530   3.847   8.975 -0.5605 -0.4443 -0.0626
  155SAPE  H14X17331   6.437   3.902   8.949 -0.6249 -0.1279  0.8165
  155SAPE  H14Y17332   6.533   3.745   8.932  1.2735  0.1661 -1.5304
  155SAPE  C31517333   6.651   3.933   8.938  0.6406  0.7138 -0.1459
  155SAPE  H15X17334   6.737   3.870   8.969 -1.3499 -0.9215  2.4224
  155SAPE  H15Y17335   6.655   4.032   8.989  1.0460 -0.2892  1.8857
  155SAPE  C31617336   6.674   3.952   8.781 -0.2687  0.2177 -0.9333
  155SAPE  H16X17337   6.572   3.951   8.736 -1.4210  2.5461  1.3139
  155SAPE  H16Y17338   6.745   3.872   8.751  0.1449  0.4341 -0.5423
  155SAPE  C31717339   6.733   4.087   8.752 -0.2205  0.3783 -0.0698
  155SAPE  H17X17340   6.838   4.101   8.785 -0.8200  0.4554  1.9645
  155SAPE  H17Y17341   6.683   4.161   8.819  2.2284  2.2805 -0.1992
  155SAPE  C31817342   6.694   4.125   8.612 -0.0684  0.7825  0.3748
  155SAPE  H18X17343   6.733   4.050   8.540  0.2990  1.9322 -0.6568
  155SAPE  H18Y17344   6.728   4.229   8.595 -3.8105  2.8129  3.6677
  155SAPE  H18Z17345   6.586   4.127   8.585 -0.6359  0.7977  2.4576
  156SAPE     N17346   4.116   1.806  10.767 -0.0947  0.2932 -0.1616
  156SAPE   HN117347   4.111   1.909  10.758 -1.4712  0.1815 -0.9255
  156SAPE   HN217348   4.020   1.766  10.758  0.5958 -1.0434 -2.2830
  156SAPE   HN317349   4.148   1.783  10.863  1.2181  1.4623 -0.2861
  156SAPE   C1217350   4.205   1.766  10.650  0.2218  0.2219 -0.3833
  156SAPE  H12A17351   4.296   1.713  10.687  0.0221 -1.9608 -2.7419
  156SAPE  H12B17352   4.240   1.860  10.602 -1.4012  1.1271  0.1594
  156SAPE   C1117353   4.118   1.677  10.558 -0.1969 -0.0705 -0.8795
  156SAPE  H11A17354   4.183   1.631  10.481  0.4106  1.8626 -1.5745
  156SAPE  H11B17355   4.037   1.740  10.515 -1.0488 -1.3590 -1.2087
  156SAPE     P17356   4.000   1.453  10.552  0.5386  0.2646  0.0937
  156SAPE   O1317357   4.099   1.353  10.525 -0.9784  0.4649 -0.0000
  156SAPE   O1417358   3.877   1.402  10.619 -0.1527  0.1901 -0.0628
  156SAPE   O1217359   4.054   1.578  10.635 -0.7809 -1.2777  0.1056
  156SAPE   O1117360   3.952   1.516  10.419  0.0081 -0.3693 -0.0742
  156SAPE    C117361   3.822   1.574  10.400 -1.0331 -0.6353  0.3224
  156SAPE    HA17362   3.774   1.617  10.490  0.0227  1.2679  0.0226
  156SAPE    HB17363   3.850   1.664  10.342 -5.1320  0.2871 -0.5097
  156SAPE    C217364   3.721   1.485  10.337 -0.4344  0.2639  0.6974
  156SAPE    HS17365   3.712   1.395  10.402  2.7073 -0.6723  0.0260
  156SAPE   O2117366   3.771   1.443  10.207  0.8166  0.7489  0.3105
  156SAPE   C2117367   3.717   1.334  10.154 -0.1151 -0.2357 -0.2955
  156SAPE   O2217368   3.634   1.263  10.213 -0.2789 -1.1306  0.2191
  156SAPE   C2217369   3.773   1.296  10.022 -0.6922 -0.3576 -0.1187
  156SAPE   H2R17370   3.884   1.284  10.025 -0.4364  1.6864  2.8908
  156SAPE   H2S17371   3.736   1.193  10.004  1.9296 -1.6830  1.4200
  156SAPE    C317372   3.585   1.557  10.327  0.5001 -0.1935  0.1698
  156SAPE    HX17373   3.555   1.570  10.434  0.3985  2.4668 -0.1230
  156SAPE    HY17374   3.498   1.502  10.285  1.0162 -0.9887  0.1145
  156SAPE   O3117375   3.590   1.686  10.263 -0.2511 -0.5336 -0.9628
  156SAPE   C3117376   3.562   1.691  10.134 -0.3342  0.7229 -0.3884
  156SAPE   O3217377   3.515   1.599  10.067 -0.4921 -0.2055  0.5689
  156SAPE   C3217378   3.571   1.835  10.089  0.0108 -0.4899  0.1875
  156SAPE   H2X17379   3.512   1.898  10.159  0.3028  0.5494 -0.4755
  156SAPE   H2Y17380   3.523   1.839   9.989 -0.9390 -1.2136  0.6013
  156SAPE   C2317381   3.717   1.386   9.912 -0.0362  0.4475 -0.4189
  156SAPE   H3R17382   3.759   1.489   9.916 -2.8231  1.7168 -1.2332
  156SAPE   H3S17383   3.606   1.389   9.904 -0.0008  0.4586 -0.9022
  156SAPE   C2417384   3.757   1.345   9.767  0.2668  0.3262 -0.2675
  156SAPE   H4R17385   3.868   1.355   9.767  0.3156 -0.1786 -0.5186
  156SAPE   H4S17386   3.727   1.421   9.692 -0.0096  0.2254 -0.2567
  156SAPE   C2517387   3.716   1.208   9.731  0.1000  0.6874  0.2667
  156SAPE   H5R17388   3.790   1.134   9.766 -1.3599 -0.8846  0.1750
  156SAPE   C2617389   3.622   1.175   9.642 -0.2999 -0.1678  0.5562
  156SAPE   H6R17390   3.613   1.068   9.616 -1.7348  0.7507 -3.4697
  156SAPE   C2717391   3.536   1.264   9.554  0.6964  0.0713 -1.2307
  156SAPE   H7R17392   3.487   1.340   9.618  0.0655  0.0927 -1.7292
  156SAPE   H7S17393   3.453   1.198   9.520 -0.7067 -0.2915  2.4937
  156SAPE   C2817394   3.597   1.338   9.444 -0.6976 -0.7035  0.7781
  156SAPE   H8R17395   3.686   1.398   9.467 -0.8377 -0.9102  1.8886
  156SAPE   C2917396   3.558   1.330   9.312 -0.2853  0.2798 -1.2336
  156SAPE   H9R17397   3.619   1.389   9.242  0.7483  3.4148  1.9960
  156SAPE  C21017398   3.441   1.249   9.259  0.3168  0.1295 -0.3238
  156SAPE  H10R17399   3.356   1.283   9.322  0.6374 -2.4326  1.6875
  156SAPE  H10S17400   3.444   1.139   9.274  1.2104 -0.0606 -1.7138
  156SAPE  C21117401   3.414   1.267   9.111 -0.5559  0.1279  0.1022
  156SAPE  H11R17402   3.332   1.336   9.087  0.5254  0.6150 -2.4966
  156SAPE  C21217403   3.490   1.216   9.009  0.5695  0.4724 -0.2578
  156SAPE  H12R17404   3.456   1.228   8.905 -1.0466 -0.4508  0.1195
  156SAPE  C21317405   3.616   1.134   9.025  0.7378 -0.2756 -0.8177
  156SAPE  H13R17406   3.676   1.150   9.117 -0.7339 -0.9583  0.3074
  156SAPE  H13S17407   3.672   1.164   8.935  0.7843 -1.4777 -1.2014
  156SAPE  C21417408   3.590   0.985   9.022 -1.2685 -1.1394  0.1094
  156SAPE  H14R17409   3.517   0.948   9.095 -0.0281 -2.9781  0.4780
  156SAPE  C21517410   3.641   0.899   8.927 -0.3682 -0.6435 -0.7829
  156SAPE  H15R17411   3.609   0.794   8.933  2.8244 -1.6916 -0.1060
  156SAPE  C21617412   3.729   0.930   8.807  0.7357  0.1918  0.0830
  156SAPE  H16R17413   3.815   0.861   8.814 -1.2665 -2.4430  0.6214
  156SAPE  H16S17414   3.751   1.039   8.806 -0.4781  0.4917 -1.9446
  156SAPE  C21717415   3.650   0.895   8.676 -0.7662 -0.3602 -0.2525
  156SAPE  H17R17416   3.549   0.939   8.682 -0.8947 -0.8246  1.6253
  156SAPE  H17S17417   3.642   0.785   8.686  1.2904 -0.5631 -0.2870
  156SAPE  C21817418   3.730   0.913   8.537 -0.5241 -0.5333  0.1021
  156SAPE  H18R17419   3.717   1.019   8.506 -1.8817 -1.6767 -3.7872
  156SAPE  H18S17420   3.677   0.854   8.459 -1.4803  0.0106  0.3261
  156SAPE  C21917421   3.882   0.881   8.535  0.4044 -0.3416 -1.0535
  156SAPE  H19R17422   3.907   0.780   8.572  0.0150  0.8784  3.1217
  156SAPE  H19S17423   3.933   0.944   8.612  0.6014 -0.7116 -0.8784
  156SAPE  C22017424   3.942   0.911   8.397  0.1589  0.3852 -0.4110
  156SAPE  H20R17425   3.898   0.835   8.328  1.9107 -2.5224  1.4596
  156SAPE  H20S17426   4.052   0.912   8.406  0.1110 -1.8089  1.1730
  156SAPE  H20T17427   3.935   1.013   8.354  1.8630  0.9335  0.5175
  156SAPE   C3317428   3.720   1.876  10.091 -0.1413  0.2708 -0.5858
  156SAPE   H3X17429   3.755   1.886  10.196  1.4786  1.2662 -1.1900
  156SAPE   H3Y17430   3.734   1.974  10.042 -0.8511  0.6545 -0.0413
  156SAPE   C3417431   3.813   1.794  10.004  0.3011  0.1937 -0.3277
  156SAPE   H4X17432   3.832   1.692  10.043 -0.4430  0.6793  1.4284
  156SAPE   H4Y17433   3.911   1.843  10.015 -0.6462  1.6163  2.9269
  156SAPE   C3517434   3.776   1.791   9.854 -0.5199 -0.1268  0.0401
  156SAPE   H5X17435   3.749   1.891   9.813 -2.6430 -0.1930  1.1086
  156SAPE   H5Y17436   3.695   1.716   9.838  1.6651 -2.3039 -1.4237
  156SAPE   C3617437   3.893   1.737   9.771  0.6153 -0.4877  0.0680
  156SAPE   H6X17438   3.926   1.639   9.811  0.3065 -0.3075  0.7788
  156SAPE   H6Y17439   3.973   1.813   9.782  0.5270 -0.2822 -0.6190
  156SAPE   C3717440   3.862   1.731   9.622  0.2075  0.4346  0.6714
  156SAPE   H7X17441   3.826   1.828   9.582  0.3408  0.7040  1.1949
  156SAPE   H7Y17442   3.770   1.672   9.604 -1.5565  3.1385  0.2881
  156SAPE   C3817443   3.992   1.697   9.536  0.1158  0.3067  0.0821
  156SAPE   H8X17444   4.030   1.597   9.567  1.8505  0.4686 -1.3751
  156SAPE   H8Y17445   4.057   1.785   9.553  0.2561 -0.0663  1.5597
  156SAPE   C3917446   3.964   1.686   9.383  0.1965 -0.4797 -0.7300
  156SAPE   H9X17447   3.885   1.763   9.370  0.1746 -0.0443  1.6014
  156SAPE   H9Y17448   3.916   1.589   9.357  2.4680 -2.1283  0.8521
  156SAPE  C31017449   4.088   1.715   9.301 -0.0277  0.1859 -0.1623
  156SAPE  H10X17450   4.156   1.629   9.320 -1.3937 -0.8112  0.3378
  156SAPE  H10Y17451   4.134   1.805   9.348 -1.8209  0.6840  0.7230
  156SAPE  C31117452   4.065   1.733   9.152  0.5860  1.2103 -0.1839
  156SAPE  H11X17453   4.038   1.839   9.133  1.3680  1.1514 -1.8044
  156SAPE  H11Y17454   3.995   1.657   9.113 -1.4973  2.3369  1.1535
  156SAPE  C31217455   4.197   1.722   9.074 -0.0077  0.4993 -0.0510
  156SAPE  H12X17456   4.254   1.635   9.112  0.9274  0.5381 -1.2823
  156SAPE  H12Y17457   4.268   1.803   9.099  0.0859  0.7081 -0.9491
  156SAPE  C31317458   4.174   1.697   8.928 -0.1152 -0.1260 -0.1150
  156SAPE  H13X17459   4.118   1.601   8.928 -1.1806  0.4205  2.0188
  156SAPE  H13Y17460   4.273   1.695   8.877 -0.3594 -0.5706 -0.5754
  156SAPE  C31417461   4.090   1.811   8.880  0.4267 -0.8999 -0.3181
  156SAPE  H14X17462   4.140   1.905   8.910  0.9715 -1.2904  0.0264
  156SAPE  H14Y17463   3.991   1.808   8.930 -0.3022  2.8383 -1.2396
  156SAPE  C31517464   4.053   1.817   8.735 -0.3189  0.2611 -0.0465
  156SAPE  H15X17465   3.978   1.739   8.715  1.2239 -1.6291  1.1343
  156SAPE  H15Y17466   4.140   1.788   8.672  0.2075  1.4824  0.0893
  156SAPE  C31617467   4.010   1.957   8.706 -0.8131  0.2365  0.0528
  156SAPE  H16X17468   4.097   2.025   8.707  1.2646 -2.2631  1.5267
  156SAPE  H16Y17469   3.940   1.988   8.787  0.0485  1.2719  0.4268
  156SAPE  C31717470   3.933   1.978   8.577  0.5532  0.8269 -0.1138
  156SAPE  H17X17471   3.894   2.082   8.582 -1.1873  0.2580 -1.0173
  156SAPE  H17Y17472   3.842   1.915   8.579  0.7086  0.6096  1.8584
  156SAPE  C31817473   4.035   1.960   8.456  0.5546 -0.3256 -0.3041
  156SAPE  H18X17474   4.125   2.016   8.488 -0.4636  1.1658  0.0991
  156SAPE  H18Y17475   3.996   2.007   8.363 -1.1408 -1.0139  0.0279
  156SAPE  H18Z17476   4.061   1.853   8.444 -1.3163 -0.9681  0.8184
  157SAPE     N17477   1.969   1.073  11.139 -0.2222 -0.0892 -0.1888
  157SAPE   HN117478   1.977   1.109  11.237 -2.3298 -0.7704  0.2921
  157SAPE   HN217479   1.971   0.970  11.154  1.5330 -0.1748 -0.7857
  157SAPE   HN317480   2.051   1.110  11.088 -0.8086  0.3145 -0.8483
  157SAPE   C1217481   1.849   1.119  11.062 -0.3321 -0.1143  0.5073
  157SAPE  H12A17482   1.856   1.230  11.060  3.1404 -0.1976 -2.4994
  157SAPE  H12B17483   1.762   1.078  11.118 -0.3363  0.7096  1.1254
  157SAPE   C1117484   1.858   1.069  10.919 -0.0362  0.0757  0.5122
  157SAPE  H11A17485   1.933   1.129  10.863  1.1216 -1.2373  0.6120
  157SAPE  H11B17486   1.760   1.094  10.873  0.8831 -0.2102 -1.7087
  157SAPE     P17487   1.972   0.849  10.813  0.3793  0.0107  0.3446
  157SAPE   O1317488   2.107   0.904  10.811  0.2997 -0.7824 -0.2601
  157SAPE   O1417489   1.962   0.707  10.843 -0.0482 -0.0798  0.6839
  157SAPE   O1217490   1.887   0.930  10.915 -0.1159 -0.2344 -0.5829
  157SAPE   O1117491   1.892   0.890  10.678 -0.3530  0.7040 -0.5370
  157SAPE    C117492   1.954   0.990  10.593  0.5208  0.0096 -0.3850
  157SAPE    HA17493   1.990   1.079  10.648 -2.6027  2.5830 -2.1949
  157SAPE    HB17494   2.045   0.951  10.542  2.0534 -0.4080  2.4657
  157SAPE    C217495   1.853   1.052  10.497  0.1720  0.4812  0.8424
  157SAPE    HS17496   1.790   1.125  10.552 -0.3908  2.8486 -2.6572
  157SAPE   O2117497   1.776   0.943  10.442  0.7086 -0.1656 -0.3244
  157SAPE   C2117498   1.645   0.975  10.417  0.0009 -0.6627  0.3519
  157SAPE   O2217499   1.590   1.072  10.465 -0.0993 -0.2882 -1.2107
  157SAPE   C2217500   1.579   0.851  10.354  0.2363  0.1164  0.1748
  157SAPE   H2R17501   1.651   0.783  10.305  0.5678  1.1039 -0.7486
  157SAPE   H2S17502   1.503   0.813  10.426 -0.6810  1.3720 -0.0881
  157SAPE    C317503   1.914   1.129  10.385  0.1985  0.4863 -0.3394
  157SAPE    HX17504   1.968   1.057  10.320  1.3863  1.7354 -0.7746
  157SAPE    HY17505   1.988   1.188  10.442 -2.1083  2.1263  1.1470
  157SAPE   O3117506   1.813   1.202  10.315 -0.0690  0.2161  0.1839
  157SAPE   C3117507   1.779   1.317  10.365  0.3513 -0.6074  0.0239
  157SAPE   O3217508   1.829   1.373  10.461  0.2083 -0.4955  0.3340
  157SAPE   C3217509   1.657   1.364  10.288 -0.7632 -0.7833  0.3196
  157SAPE   H2X17510   1.582   1.378  10.369 -0.4206  1.7193  0.2798
  157SAPE   H2Y17511   1.619   1.293  10.212 -0.2211 -0.8182  0.0768
  157SAPE   C2317512   1.498   0.897  10.226  0.2950  0.4880  0.2003
  157SAPE   H3R17513   1.406   0.947  10.265 -0.9851 -1.2008 -0.5309
  157SAPE   H3S17514   1.460   0.807  10.174 -1.8390  2.7201 -2.3874
  157SAPE   C2417515   1.570   0.979  10.124 -0.5313  0.5434 -0.9269
  157SAPE   H4R17516   1.658   0.918  10.095 -0.1198  0.1948  0.8842
  157SAPE   H4S17517   1.611   1.068  10.175  0.8053 -1.9661  2.8636
  157SAPE   C2517518   1.476   1.006  10.005 -0.6171 -0.6188 -0.0788
  157SAPE   H5R17519   1.370   1.012  10.033 -0.6809  0.0676 -0.4587
  157SAPE   C2617520   1.517   1.012   9.872 -0.2827 -0.5964 -0.2258
  157SAPE   H6R17521   1.435   1.000   9.800 -2.4500 -2.1205  2.2746
  157SAPE   C2717522   1.661   0.982   9.820 -0.2652  0.2017  0.1783
  157SAPE   H7R17523   1.644   0.921   9.729  0.2645  0.4054 -0.0566
  157SAPE   H7S17524   1.711   0.913   9.891 -4.8994 -1.2270  2.4566
  157SAPE   C2817525   1.746   1.103   9.797  0.0530 -0.0471  0.6378
  157SAPE   H8R17526   1.773   1.165   9.885  2.6453  2.1896 -1.5471
  157SAPE   C2917527   1.790   1.148   9.671  0.3437  0.0448  0.0417
  157SAPE   H9R17528   1.843   1.243   9.658  0.3058  0.0996  0.2931
  157SAPE  C21017529   1.761   1.067   9.542 -0.3367  0.2067 -0.6037
  157SAPE  H10R17530   1.665   1.011   9.549  0.4676 -1.0808  0.9561
  157SAPE  H10S17531   1.836   0.985   9.537 -2.5568 -1.9809  0.0119
  157SAPE  C21117532   1.771   1.150   9.413 -0.2641 -0.1203 -0.4437
  157SAPE  H11R17533   1.682   1.198   9.370 -0.1895 -0.1265 -0.6048
  157SAPE  C21217534   1.883   1.167   9.337  0.4401 -0.4293 -0.1462
  157SAPE  H12R17535   1.875   1.247   9.262  0.5224 -0.0644  0.2346
  157SAPE  C21317536   2.018   1.109   9.366 -0.4132 -0.2755 -0.3836
  157SAPE  H13R17537   2.015   1.003   9.400 -0.8276  0.5706  2.4403
  157SAPE  H13S17538   2.044   1.165   9.457 -3.1394 -0.9724  0.9329
  157SAPE  C21417539   2.118   1.120   9.248 -0.7139  0.7064  0.1310
  157SAPE  H14R17540   2.200   1.187   9.277 -1.0632  0.3583  2.1071
  157SAPE  C21517541   2.111   1.060   9.132  0.7404 -0.0036  0.7902
  157SAPE  H15R17542   2.189   1.071   9.055 -1.6245  1.7256 -1.5341
  157SAPE  C21617543   2.004   0.972   9.079 -0.5817 -0.2377  0.7018
  157SAPE  H16R17544   1.931   0.959   9.162 -0.5268 -1.9199  0.5352
  157SAPE  H16S17545   2.038   0.871   9.047  0.1559 -0.2502  1.5030
  157SAPE  C21717546   1.943   1.034   8.954  0.0315 -0.2577 -0.2165
  157SAPE  H17R17547   2.016   1.080   8.884 -0.9316  0.4828 -0.7698
  157SAPE  H17S17548   1.877   1.116   8.991  1.0070 -0.3447  1.8735
  157SAPE  C21817549   1.864   0.925   8.877 -0.1416 -0.3468  0.1884
  157SAPE  H18R17550   1.800   0.872   8.951  1.1354 -0.0514  1.5581
  157SAPE  H18S17551   1.936   0.850   8.839 -0.3011 -0.5998  0.3824
  157SAPE  C21917552   1.775   0.986   8.777 -0.2335  0.0175 -0.0501
  157SAPE  H19R17553   1.842   1.040   8.706 -1.2132 -0.3830 -1.3073
  157SAPE  H19S17554   1.718   1.056   8.842  0.8465  0.2604  0.6810
  157SAPE  C22017555   1.679   0.889   8.706 -0.5138  0.4934  0.1332
  157SAPE  H20R17556   1.590   0.859   8.764 -0.4478 -1.9720 -0.9049
  157SAPE  H20S17557   1.730   0.791   8.692  0.7459  0.4023  4.2252
  157SAPE  H20T17558   1.651   0.919   8.602  0.6106 -1.6210 -0.8526
  157SAPE   C3317559   1.681   1.510  10.229  0.6779 -0.1779  0.4892
  157SAPE   H3X17560   1.740   1.565  10.305 -0.2383  0.8801  0.4593
  157SAPE   H3Y17561   1.588   1.570  10.225  0.7260 -0.1320 -0.0003
  157SAPE   C3417562   1.767   1.501  10.098 -0.7892 -0.2936 -0.0134
  157SAPE   H4X17563   1.851   1.430  10.112  0.9786  1.9238  1.3962
  157SAPE   H4Y17564   1.812   1.602  10.086 -1.7778  0.1777  0.1364
  157SAPE   C3517565   1.674   1.484   9.981  0.1088 -1.1125 -0.3330
  157SAPE   H5X17566   1.571   1.524   9.992 -0.2655 -2.1001 -0.1795
  157SAPE   H5Y17567   1.663   1.376   9.959 -0.0742 -0.7989 -1.9528
  157SAPE   C3617568   1.727   1.540   9.843  0.1433  0.4140 -0.8594
  157SAPE   H6X17569   1.831   1.500   9.838 -0.1262 -0.5027  0.3544
  157SAPE   H6Y17570   1.735   1.651   9.854 -1.5431  0.4222  0.6919
  157SAPE   C3717571   1.652   1.504   9.711 -0.2907  0.0393  0.4206
  157SAPE   H7X17572   1.554   1.550   9.734 -0.0151  1.5593 -1.1668
  157SAPE   H7Y17573   1.649   1.395   9.691 -0.1108  0.0234  0.4786
  157SAPE   C3817574   1.735   1.565   9.595 -0.6396  0.3518 -0.1503
  157SAPE   H8X17575   1.839   1.527   9.590 -0.4222  1.1040 -1.8745
  157SAPE   H8Y17576   1.737   1.675   9.611 -1.2989  1.0492 -3.9191
  157SAPE   C3917577   1.678   1.542   9.455  0.3258 -0.4501 -0.4098
  157SAPE   H9X17578   1.593   1.612   9.446  2.3849  2.5052  1.4536
  157SAPE   H9Y17579   1.644   1.437   9.441 -1.3575  0.0121  0.0221
  157SAPE  C31017580   1.773   1.591   9.344 -0.4382 -0.6226  0.0131
  157SAPE  H10X17581   1.863   1.526   9.340  0.4876  0.6359 -0.1931
  157SAPE  H10Y17582   1.818   1.691   9.362 -1.7787  0.0815 -0.4046
  157SAPE  C31117583   1.698   1.589   9.208  0.1803 -0.3226  0.4112
  157SAPE  H11X17584   1.619   1.666   9.223  1.4862  1.1209  0.1764
  157SAPE  H11Y17585   1.655   1.487   9.203  0.7768 -0.5029 -2.7439
  157SAPE  C31217586   1.793   1.610   9.088 -0.3399  0.5329 -0.8580
  157SAPE  H12X17587   1.828   1.514   9.044  2.3107  0.9892  0.0997
  157SAPE  H12Y17588   1.888   1.652   9.126 -0.7019  0.3299  0.3170
  157SAPE  C31317589   1.745   1.689   8.970 -0.0186  0.2857  0.7051
  157SAPE  H13X17590   1.721   1.789   9.012  1.9307  0.9221  0.3927
  157SAPE  H13Y17591   1.648   1.651   8.932  0.2790  0.6274 -0.4349
  157SAPE  C31417592   1.854   1.691   8.866  0.3955  0.3947 -0.3162
  157SAPE  H14X17593   1.885   1.591   8.827 -0.2834  0.7792 -1.9647
  157SAPE  H14Y17594   1.943   1.750   8.895  1.4485  0.1830 -2.8641
  157SAPE  C31517595   1.790   1.757   8.746  0.0574  0.3624 -0.1436
  157SAPE  H15X17596   1.800   1.866   8.765  0.2586 -0.2164  4.0673
  157SAPE  H15Y17597   1.683   1.731   8.729  0.4639 -0.6538 -1.3215
  157SAPE  C31617598   1.871   1.721   8.621 -0.2800 -0.1965  0.2421
  157SAPE  H16X17599   1.848   1.621   8.577 -1.3204 -0.3573  1.0940
  157SAPE  H16Y17600   1.977   1.713   8.651  0.4751  0.2958 -2.1019
  157SAPE  C31717601   1.875   1.818   8.501  0.4474 -0.2153  0.1061
  157SAPE  H17X17602   1.773   1.859   8.485  0.3955 -0.1796  0.5136
  157SAPE  H17Y17603   1.898   1.756   8.412 -1.2716 -0.9862  0.1683
  157SAPE  C31817604   1.976   1.931   8.513  0.2991  0.2012 -0.3115
  157SAPE  H18X17605   1.994   2.002   8.430  1.5451 -1.6639 -1.7428
  157SAPE  H18Y17606   2.079   1.893   8.534 -0.5627 -1.6230  0.8735
  157SAPE  H18Z17607   1.954   1.967   8.615 -1.6455 -2.6054  0.3772
  158SAPE     N17608   4.166   2.427  11.002 -0.4410 -0.0306  0.2189
  158SAPE   HN117609   4.230   2.505  10.978  0.8514 -0.7096  1.3805
  158SAPE   HN217610   4.121   2.466  11.087 -0.1499  0.9357 -0.0610
  158SAPE   HN317611   4.230   2.349  11.024  0.2539  0.4362 -0.1342
  158SAPE   C1217612   4.080   2.414  10.880  0.6276 -0.3355  1.0581
  158SAPE  H12A17613   4.042   2.512  10.842  1.2514 -1.4352 -2.8450
  158SAPE  H12B17614   3.995   2.352  10.916 -0.6974  0.3281 -0.7860
  158SAPE   C1117615   4.158   2.355  10.764 -0.9285  0.0058 -0.3882
  158SAPE  H11A17616   4.226   2.277  10.804  0.4553  1.4965  0.2662
  158SAPE  H11B17617   4.225   2.433  10.722 -0.6600  0.1539  0.2925
  158SAPE     P17618   4.034   2.148  10.657 -0.0414 -0.2685 -0.3560
  158SAPE   O1317619   4.083   2.083  10.780 -0.4764  0.1345  0.2558
  158SAPE   O1417620   3.888   2.145  10.626 -0.4616 -0.5956  0.0293
  158SAPE   O1217621   4.080   2.301  10.667 -0.1377 -0.2848  0.6689
  158SAPE   O1117622   4.117   2.078  10.537 -0.4082 -0.4532  0.2237
  158SAPE    C117623   4.243   2.139  10.497 -0.2218  0.2948 -0.1171
  158SAPE    HA17624   4.290   2.188  10.585  0.3063 -1.6364  0.7318
  158SAPE    HB17625   4.313   2.056  10.475  1.9371  1.6744  1.1778
  158SAPE    C217626   4.235   2.232  10.366  0.6678 -0.4126  0.4118
  158SAPE    HS17627   4.201   2.328  10.410 -2.5915 -0.8272 -0.9232
  158SAPE   O2117628   4.146   2.172  10.267 -0.6820  0.4994  0.1351
  158SAPE   C2117629   4.088   2.264  10.191  0.2242 -1.0261  0.2500
  158SAPE   O2217630   4.070   2.380  10.219 -0.3210 -0.7800 -0.1604
  158SAPE   C2217631   4.053   2.204  10.056 -0.6175 -0.3597 -0.9342
  158SAPE   H2R17632   4.083   2.097  10.055  1.0214  0.0597  0.0264
  158SAPE   H2S17633   3.944   2.188  10.042 -0.6884  0.2272 -1.0923
  158SAPE    C317634   4.375   2.245  10.300 -0.6738 -0.1712  0.3173
  158SAPE    HX17635   4.382   2.158  10.232 -1.1440  0.5782 -0.7203
  158SAPE    HY17636   4.448   2.251  10.383  0.4495 -0.7341 -0.6006
  158SAPE   O3117637   4.393   2.364  10.219  0.0854 -0.7485  0.1633
  158SAPE   C3117638   4.428   2.479  10.271 -0.1114  0.5091 -0.7864
  158SAPE   O3217639   4.491   2.497  10.371 -0.4613 -0.0445 -0.7623
  158SAPE   C3217640   4.385   2.592  10.177  1.0588 -0.5722  0.3833
  158SAPE   H2X17641   4.426   2.685  10.222 -0.0309 -0.6092  1.4979
  158SAPE   H2Y17642   4.275   2.592  10.189  0.9384  3.8778  1.0151
  158SAPE   C2317643   4.120   2.281   9.934 -0.1584  0.2492 -0.0572
  158SAPE   H3R17644   4.214   2.238   9.892 -0.6208 -0.5875 -0.2754
  158SAPE   H3S17645   4.153   2.373   9.985  0.5839 -0.5408  0.9225
  158SAPE   C2417646   4.020   2.298   9.808 -0.0901 -0.1047  0.2286
  158SAPE   H4R17647   4.052   2.390   9.753 -0.3636 -0.4467 -0.5230
  158SAPE   H4S17648   3.919   2.335   9.838 -0.6997 -1.6656  0.1810
  158SAPE   C2517649   4.022   2.165   9.739 -0.1582  0.0591 -0.0672
  158SAPE   H5R17650   4.015   2.082   9.811 -1.7664 -0.1910 -0.4845
  158SAPE   C2617651   4.010   2.139   9.606 -0.4230  0.4817 -0.5831
  158SAPE   H6R17652   4.019   2.034   9.576  0.8164 -0.7213  3.4929
  158SAPE   C2717653   3.998   2.233   9.491  0.1709  0.0312  0.3356
  158SAPE   H7R17654   3.950   2.333   9.504  3.2211  2.3114 -3.5153
  158SAPE   H7S17655   3.944   2.178   9.411  0.9681 -2.6336  1.5426
  158SAPE   C2817656   4.140   2.257   9.442 -0.4489 -0.6981  0.2194
  158SAPE   H8R17657   4.188   2.339   9.498  0.3611 -2.2906  1.9456
  158SAPE   C2917658   4.212   2.194   9.347  0.7310  0.5228 -0.5083
  158SAPE   H9R17659   4.315   2.228   9.329  1.7273 -1.2068  1.5035
  158SAPE  C21017660   4.143   2.083   9.269 -1.2230  0.3312  0.7411
  158SAPE  H10R17661   4.045   2.047   9.305 -0.7994 -0.1024  1.4967
  158SAPE  H10S17662   4.212   1.995   9.270  0.7669  1.7400 -1.4125
  158SAPE  C21117663   4.138   2.125   9.121 -0.8595  0.8046 -0.2733
  158SAPE  H11R17664   4.237   2.157   9.086 -1.2462  1.2802 -0.9459
  158SAPE  C21217665   4.031   2.122   9.045 -0.1707  0.4134  0.3158
  158SAPE  H12R17666   4.041   2.152   8.940  0.3778 -0.6980  0.0334
  158SAPE  C21317667   3.890   2.079   9.091  0.0841  0.1784  0.0329
  158SAPE  H13R17668   3.891   2.011   9.179 -0.9853 -2.9088 -2.1408
  158SAPE  H13S17669   3.853   2.013   9.009  3.1262 -0.5031 -0.9031
  158SAPE  C21417670   3.810   2.206   9.122 -0.2898  0.8749  0.1867
  158SAPE  H14R17671   3.827   2.237   9.226 -1.2911  1.1183  0.2908
  158SAPE  C21517672   3.740   2.276   9.029  0.0005  0.1744 -0.8231
  158SAPE  H15R17673   3.687   2.364   9.066 -0.9206 -1.3671  1.7702
  158SAPE  C21617674   3.718   2.233   8.889  0.5223  0.0457 -0.1573
  158SAPE  H16R17675   3.781   2.146   8.859 -0.8643 -0.3292 -2.1903
  158SAPE  H16S17676   3.763   2.318   8.835  0.9521 -0.8583 -1.2535
  158SAPE  C21717677   3.574   2.207   8.843  0.3300  0.0606 -0.5278
  158SAPE  H17R17678   3.519   2.303   8.853  1.6668  0.7805  0.0614
  158SAPE  H17S17679   3.517   2.141   8.912 -0.1700  0.2373 -0.7673
  158SAPE  C21817680   3.549   2.151   8.703 -0.4392 -0.9187 -0.3130
  158SAPE  H18R17681   3.442   2.153   8.675 -0.1439 -0.0969 -1.4920
  158SAPE  H18S17682   3.581   2.045   8.694  0.9514 -0.4530 -1.3835
  158SAPE  C21917683   3.608   2.230   8.583 -0.1086 -0.5734  0.4071
  158SAPE  H19R17684   3.718   2.226   8.601 -0.3260 -1.1396  1.7475
  158SAPE  H19S17685   3.577   2.335   8.600 -0.0775 -0.6482  0.9499
  158SAPE  C22017686   3.569   2.171   8.449  0.4526  0.7265 -0.6081
  158SAPE  H20R17687   3.458   2.158   8.454  0.4845  0.8125  2.8407
  158SAPE  H20S17688   3.611   2.069   8.432  0.6059  1.0269 -2.2126
  158SAPE  H20T17689   3.606   2.228   8.361 -0.9699  0.3189 -1.5118
  158SAPE   C3317690   4.413   2.588  10.016  0.2757  0.0975 -0.3974
  158SAPE   H3X17691   4.364   2.677   9.971  2.4196  1.1113 -0.9145
  158SAPE   H3Y17692   4.394   2.490   9.966  1.2016 -0.5100  0.4041
  158SAPE   C3417693   4.560   2.628  10.000  0.4643 -0.0656 -0.7008
  158SAPE   H4X17694   4.613   2.538  10.039 -0.1926 -0.2306 -0.1581
  158SAPE   H4Y17695   4.591   2.711  10.067 -0.0610 -0.1911 -0.2951
  158SAPE   C3517696   4.597   2.677   9.866  0.5241 -0.4775 -0.2030
  158SAPE   H5X17697   4.547   2.775   9.855  0.2435 -0.0677  3.3887
  158SAPE   H5Y17698   4.557   2.605   9.792  1.1701 -1.6111  0.5106
  158SAPE   C3617699   4.749   2.692   9.851  0.4888  0.2484 -0.2816
  158SAPE   H6X17700   4.808   2.626   9.918 -0.2795  1.4986  1.7083
  158SAPE   H6Y17701   4.765   2.796   9.887 -2.0759  1.2264 -1.7337
  158SAPE   C3717702   4.817   2.669   9.710 -0.4263 -0.6994 -0.0609
  158SAPE   H7X17703   4.819   2.562   9.681 -0.3396 -0.5754 -0.5166
  158SAPE   H7Y17704   4.923   2.701   9.718 -1.2486  2.2184  0.2302
  158SAPE   C3817705   4.748   2.739   9.598 -0.1348 -0.1999 -0.4150
  158SAPE   H8X17706   4.714   2.840   9.631  0.7839 -0.4100  1.2407
  158SAPE   H8Y17707   4.655   2.682   9.577  0.4883 -1.7199  0.7423
  158SAPE   C3917708   4.836   2.754   9.472 -0.1722  0.2154 -0.2351
  158SAPE   H9X17709   4.879   2.655   9.445  0.0905  0.1809  0.2884
  158SAPE   H9Y17710   4.925   2.817   9.495  2.7376 -3.1458 -1.3482
  158SAPE  C31017711   4.758   2.800   9.344  0.5332 -0.3333  0.5873
  158SAPE  H10X17712   4.719   2.903   9.364 -0.2551 -0.7550  1.2844
  158SAPE  H10Y17713   4.670   2.733   9.334  1.0546 -1.0426  0.7003
  158SAPE  C31117714   4.837   2.802   9.205  0.6702  0.8818 -0.1444
  158SAPE  H11X17715   4.899   2.710   9.206 -0.5582 -0.0329  2.4835
  158SAPE  H11Y17716   4.897   2.894   9.217 -0.4333  1.5230  0.6185
  158SAPE  C31217717   4.755   2.807   9.085 -0.5019  0.0108 -0.0607
  158SAPE  H12X17718   4.674   2.881   9.104  0.1099  0.7847 -0.3936
  158SAPE  H12Y17719   4.714   2.710   9.053 -0.6382 -1.0495  2.9708
  158SAPE  C31317720   4.840   2.850   8.963  0.0757 -0.1083  0.0092
  158SAPE  H13X17721   4.917   2.773   8.940 -0.2888 -0.7935  0.9847
  158SAPE  H13Y17722   4.905   2.937   8.987  0.6643 -0.7957  1.0188
  158SAPE  C31417723   4.753   2.883   8.847  1.0633 -0.9201 -0.1295
  158SAPE  H14X17724   4.654   2.923   8.879  0.2395 -2.8268 -0.1292
  158SAPE  H14Y17725   4.730   2.792   8.787 -1.1639 -0.1679 -0.5031
  158SAPE  C31517726   4.813   2.999   8.752 -0.0389  0.5962  0.6219
  158SAPE  H15X17727   4.917   2.969   8.726 -0.3225 -0.4449  0.6074
  158SAPE  H15Y17728   4.823   3.091   8.813  0.6648  0.6549  0.4246
  158SAPE  C31617729   4.728   3.026   8.625 -0.5681 -0.2402 -0.9601
  158SAPE  H16X17730   4.626   3.063   8.647 -0.0958  1.9292 -2.2050
  158SAPE  H16Y17731   4.711   2.937   8.561 -1.6438 -0.8906  0.1753
  158SAPE  C31717732   4.790   3.142   8.544  0.3258 -0.1119  0.0965
  158SAPE  H17X17733   4.761   3.103   8.445 -1.5171 -2.1105  1.3348
  158SAPE  H17Y17734   4.900   3.134   8.557  0.4291 -0.8834 -1.1851
  158SAPE  C31817735   4.731   3.286   8.567 -0.4228  0.3607  0.0265
  158SAPE  H18X17736   4.800   3.347   8.505 -1.3337  1.8668  0.4489
  158SAPE  H18Y17737   4.747   3.305   8.676 -1.1166  0.4709  0.1154
  158SAPE  H18Z17738   4.624   3.299   8.543 -0.8063  1.0115  1.9293
  159SAPE     N17739   4.078   5.274   6.633  0.1651  0.3674  0.2670
  159SAPE   HN117740   4.045   5.199   6.569 -2.4220  2.3129 -0.9009
  159SAPE   HN217741   4.110   5.355   6.577 -1.3188  1.3461  0.7560
  159SAPE   HN317742   4.163   5.241   6.683  1.8342  1.8289 -1.4796
  159SAPE   C1217743   3.962   5.324   6.719 -0.3622  0.5107 -0.1433
  159SAPE  H12A17744   4.000   5.414   6.771  0.7014  1.2869 -2.1553
  159SAPE  H12B17745   3.955   5.237   6.788  0.9592 -0.6518 -1.3926
  159SAPE   C1117746   3.833   5.337   6.637 -0.3739  0.1018  0.1107
  159SAPE  H11A17747   3.854   5.413   6.559 -0.8086  0.3832  0.2649
  159SAPE  H11B17748   3.756   5.378   6.706 -0.8800 -1.3446  0.4364
  159SAPE     P17749   3.756   5.081   6.636  0.2088  0.1319 -0.0234
  159SAPE   O1317750   3.657   5.005   6.559  0.3309  0.0103 -0.8167
  159SAPE   O1417751   3.883   5.004   6.664  0.3012 -0.0742 -0.1712
  159SAPE   O1217752   3.784   5.218   6.568  0.0231  0.6168  0.5478
  159SAPE   O1117753   3.699   5.119   6.782  0.3872  0.1718  0.9413
  159SAPE    C117754   3.564   5.181   6.771  0.3315  0.1966 -0.1057
  159SAPE    HA17755   3.564   5.267   6.700  0.5180  0.6906  0.4823
  159SAPE    HB17756   3.487   5.102   6.754 -0.3316  0.8331 -0.1398
  159SAPE    C217757   3.542   5.259   6.901 -0.6283  0.1186 -0.4007
  159SAPE    HS17758   3.628   5.329   6.910 -0.9586  0.4168  0.6806
  159SAPE   O2117759   3.522   5.161   7.010 -0.1459  0.5837 -0.3453
  159SAPE   C2117760   3.585   5.193   7.121 -0.5872 -0.7723  0.7155
  159SAPE   O2217761   3.648   5.299   7.140  0.4402  0.1032  0.3304
  159SAPE   C2217762   3.578   5.073   7.207  0.3762 -0.2497  0.0272
  159SAPE   H2R17763   3.488   5.013   7.184 -0.4534  1.4545 -1.3823
  159SAPE   H2S17764   3.664   5.004   7.196  0.0073 -0.7075 -0.0615
  159SAPE    C317765   3.414   5.343   6.890 -0.4050 -0.3841 -0.5619
  159SAPE    HX17766   3.334   5.267   6.896  1.4846 -2.4601 -0.2791
  159SAPE    HY17767   3.402   5.399   6.795  2.4765 -1.4357 -1.6779
  159SAPE   O3117768   3.410   5.431   7.011  0.1163  0.5066  0.4066
  159SAPE   C3117769   3.477   5.544   6.999 -0.3584  0.0786  0.6811
  159SAPE   O3217770   3.518   5.583   6.886 -0.2234  0.6454 -0.1044
  159SAPE   C3217771   3.510   5.616   7.131  0.5186 -0.1714  0.5071
  159SAPE   H2X17772   3.612   5.659   7.121  0.5649 -0.6026 -1.2297
  159SAPE   H2Y17773   3.505   5.556   7.224  2.4940  1.7949  1.9847
  159SAPE   C2317774   3.579   5.126   7.358  0.2141  1.2061  0.4072
  159SAPE   H3R17775   3.677   5.178   7.371  1.7067 -0.7063 -2.1980
  159SAPE   H3S17776   3.571   5.034   7.419  0.2476  1.5973  1.0172
  159SAPE   C2417777   3.468   5.220   7.387  0.6757 -0.7574  0.2780
  159SAPE   H4R17778   3.372   5.167   7.405 -1.0262  1.3864 -1.7164
  159SAPE   H4S17779   3.435   5.284   7.302  0.3309 -1.3740 -0.0575
  159SAPE   C2517780   3.508   5.312   7.504  0.7012 -0.0445  1.2666
  159SAPE   H5R17781   3.533   5.411   7.461 -3.7480  0.6348 -0.2781
  159SAPE   C2617782   3.498   5.287   7.636 -0.2873 -0.4734  0.5640
  159SAPE   H6R17783   3.552   5.353   7.706  1.2501 -1.2917  0.1947
  159SAPE   C2717784   3.448   5.159   7.696  0.6264  0.8345 -0.2511
  159SAPE   H7R17785   3.531   5.085   7.686  1.9196  2.3076 -0.8501
  159SAPE   H7S17786   3.352   5.136   7.645 -1.9126 -0.0891  4.3521
  159SAPE   C2817787   3.412   5.186   7.841 -0.1722 -0.5069  0.4506
  159SAPE   H8R17788   3.306   5.207   7.865 -0.3541 -1.1150  0.2018
  159SAPE   C2917789   3.498   5.171   7.946 -0.5297  0.1037 -0.2264
  159SAPE   H9R17790   3.466   5.195   8.048  1.7308  0.6382  0.4155
  159SAPE  C21017791   3.645   5.134   7.950  0.1195 -0.1604  0.7878
  159SAPE  H10R17792   3.706   5.200   8.016  2.8623 -1.3311 -0.4002
  159SAPE  H10S17793   3.693   5.142   7.850  1.2516 -0.3855  1.2934
  159SAPE  C21117794   3.649   4.986   7.991 -1.3377  0.8437 -0.6120
  159SAPE  H11R17795   3.643   4.912   7.910 -2.7572 -0.4423  0.5947
  159SAPE  C21217796   3.664   4.938   8.114 -1.0312 -0.4475 -0.2925
  159SAPE  H12R17797   3.662   4.828   8.120 -0.1312 -0.4017  1.3764
  159SAPE  C21317798   3.699   5.016   8.237 -0.0809 -0.8986 -0.7769
  159SAPE  H13R17799   3.603   5.060   8.272 -1.4703 -2.1333 -2.8391
  159SAPE  H13S17800   3.777   5.089   8.207  3.8084 -3.4557  2.1433
  159SAPE  C21417801   3.774   4.943   8.351 -0.0792 -0.0711  0.0804
  159SAPE  H14R17802   3.864   4.889   8.315 -0.7947 -0.2845 -1.5014
  159SAPE  C21517803   3.739   4.943   8.480 -0.0386 -0.0339  0.7495
  159SAPE  H15R17804   3.811   4.896   8.548  0.0775 -3.9726 -1.7802
  159SAPE  C21617805   3.616   5.005   8.536  0.8297 -0.7212 -0.2905
  159SAPE  H16R17806   3.548   4.917   8.533  0.5198 -0.4589 -1.3072
  159SAPE  H16S17807   3.564   5.079   8.473  0.0880  2.5605  3.7293
  159SAPE  C21717808   3.633   5.070   8.673  0.2059 -0.5313 -0.3399
  159SAPE  H17R17809   3.704   5.155   8.675  0.6384 -0.8787  1.5731
  159SAPE  H17S17810   3.673   5.000   8.750 -0.7352  1.1462  1.7594
  159SAPE  C21817811   3.499   5.122   8.720  0.5581 -0.2520 -0.0257
  159SAPE  H18R17812   3.423   5.041   8.708  1.0751 -0.8374  0.5635
  159SAPE  H18S17813   3.460   5.199   8.650 -0.1764 -0.4498  0.1503
  159SAPE  C21917814   3.487   5.174   8.867  0.4011  0.2117  0.8722
  159SAPE  H19R17815   3.564   5.254   8.876 -0.2550  0.7928  1.4005
  159SAPE  H19S17816   3.516   5.102   8.946 -2.0030 -0.5590  1.1201
  159SAPE  C22017817   3.358   5.252   8.889  0.2300 -0.5629  0.1024
  159SAPE  H20R17818   3.261   5.196   8.888  0.0308 -0.2225  0.2695
  159SAPE  H20S17819   3.342   5.330   8.812  0.1505  0.3422  1.0172
  159SAPE  H20T17820   3.366   5.304   8.986 -0.3626 -1.8959  0.8958
  159SAPE   C3317821   3.410   5.731   7.150 -0.2482 -0.6501  0.6344
  159SAPE   H3X17822   3.392   5.792   7.059  2.1144 -0.7892  0.0192
  159SAPE   H3Y17823   3.447   5.802   7.227 -0.9764  0.3426  0.1012
  159SAPE   C3417824   3.267   5.682   7.200  0.3598  0.1948  0.5110
  159SAPE   H4X17825   3.228   5.611   7.125  0.1625  0.5487  0.2747
  159SAPE   H4Y17826   3.197   5.767   7.211  1.0394  0.7908  0.3562
  159SAPE   C3517827   3.272   5.612   7.336  0.3891 -0.0723  0.5087
  159SAPE   H5X17828   3.340   5.524   7.332  0.7122  0.1414  1.1907
  159SAPE   H5Y17829   3.171   5.572   7.359  0.5867 -1.2372 -0.5192
  159SAPE   C3617830   3.318   5.709   7.451  0.4061  0.4993 -0.0697
  159SAPE   H6X17831   3.252   5.798   7.457  0.8081  0.8251 -0.4127
  159SAPE   H6Y17832   3.420   5.750   7.439  1.8641 -2.4108  1.3634
  159SAPE   C3717833   3.310   5.650   7.590 -0.9853 -0.0264 -0.1954
  159SAPE   H7X17834   3.388   5.571   7.596  1.8455  2.6802  2.4672
  159SAPE   H7Y17835   3.208   5.608   7.606 -0.6816 -1.0778 -0.9409
  159SAPE   C3817836   3.353   5.745   7.695  0.6937  0.1618  0.4186
  159SAPE   H8X17837   3.283   5.830   7.707  0.0660 -0.4439  1.1153
  159SAPE   H8Y17838   3.454   5.786   7.672  0.8620  0.0256  0.9106
  159SAPE   C3917839   3.370   5.668   7.818 -0.2683  0.0310 -0.3451
  159SAPE   H9X17840   3.438   5.581   7.802  1.6888  1.1849  1.3053
  159SAPE   H9Y17841   3.267   5.633   7.843 -0.7863  2.5095  1.2877
  159SAPE  C31017842   3.429   5.740   7.935 -0.1525 -0.1025 -0.2996
  159SAPE  H10X17843   3.387   5.843   7.941  0.5209  0.1099  1.0471
  159SAPE  H10Y17844   3.537   5.759   7.917  0.1945  0.1609  1.7667
  159SAPE  C31117845   3.408   5.659   8.067 -0.0652 -0.5015 -0.0650
  159SAPE  H11X17846   3.451   5.559   8.045 -1.4891 -0.5305 -3.3803
  159SAPE  H11Y17847   3.301   5.640   8.090  0.4842 -3.3592  0.4704
  159SAPE  C31217848   3.467   5.746   8.179 -0.0015  0.2206  0.8322
  159SAPE  H12X17849   3.413   5.842   8.168 -1.2646 -0.5092  0.3847
  159SAPE  H12Y17850   3.576   5.756   8.166  0.1404 -2.3874 -0.8333
  159SAPE  C31317851   3.442   5.688   8.315 -0.1286  0.3529 -0.1402
  159SAPE  H13X17852   3.484   5.585   8.317 -1.2058 -0.0990  0.3982
  159SAPE  H13Y17853   3.331   5.687   8.326 -0.2735 -1.0672 -1.3436
  159SAPE  C31417854   3.508   5.771   8.423  1.0953 -0.4125  0.3331
  159SAPE  H14X17855   3.455   5.865   8.447 -0.6235 -1.7045  1.8788
  159SAPE  H14Y17856   3.615   5.789   8.399  0.9427 -0.5058 -0.4335
  159SAPE  C31517857   3.497   5.706   8.567 -0.2458  0.4182 -0.3771
  159SAPE  H15X17858   3.395   5.679   8.602  0.6590 -2.9229 -0.0217
  159SAPE  H15Y17859   3.540   5.775   8.644  0.5853 -2.0336  1.4866
  159SAPE  C31617860   3.586   5.580   8.578  0.2409 -0.7976 -0.5954
  159SAPE  H16X17861   3.686   5.598   8.534 -0.1089 -1.5665 -1.7536
  159SAPE  H16Y17862   3.545   5.502   8.510  1.0170 -2.5060  0.8043
  159SAPE  C31717863   3.589   5.515   8.718  0.2860 -0.2816 -0.1161
  159SAPE  H17X17864   3.616   5.408   8.712  0.3226 -0.3485  0.9632
  159SAPE  H17Y17865   3.490   5.509   8.770  1.7532 -1.6425  2.7946
  159SAPE  C31817866   3.687   5.573   8.819  0.3981  0.0677 -0.2835
  159SAPE  H18X17867   3.738   5.512   8.896  0.0809  0.3737  0.1660
  159SAPE  H18Y17868   3.649   5.666   8.866 -0.8932 -0.9540  0.7572
  159SAPE  H18Z17869   3.773   5.607   8.756 -0.6634  2.5965 -0.4707
  160SAPE     N17870   1.947   0.769   6.408 -0.6359 -0.2616  0.4849
  160SAPE   HN117871   2.038   0.813   6.383 -0.4712 -0.9817 -0.1958
  160SAPE   HN217872   1.931   0.696   6.336 -0.5133  1.2621 -1.1703
  160SAPE   HN317873   1.883   0.850   6.393  1.5179  1.5196  0.3036
  160SAPE   C1217874   1.940   0.715   6.542  0.7194 -0.1254 -0.5767
  160SAPE  H12A17875   1.839   0.670   6.550  1.2841 -1.3889 -0.3567
  160SAPE  H12B17876   1.945   0.799   6.615  1.3614 -0.9500  0.3504
  160SAPE   C1117877   2.050   0.607   6.583 -0.2519 -0.6227  0.0868
  160SAPE  H11A17878   2.021   0.510   6.536  1.2831 -0.9175 -0.2912
  160SAPE  H11B17879   2.037   0.584   6.691  0.2898 -1.1288  0.0460
  160SAPE     P17880   2.271   0.613   6.437 -0.1295  0.0022  0.0393
  160SAPE   O1317881   2.188   0.561   6.329  0.7593  0.6011 -0.0405
  160SAPE   O1417882   2.349   0.726   6.390  0.2987  0.1919  0.4098
  160SAPE   O1217883   2.176   0.661   6.555 -0.7673  0.2807 -0.4495
  160SAPE   O1117884   2.366   0.502   6.496  0.5294  0.4916  0.0601
  160SAPE    C117885   2.316   0.387   6.558  1.0673  1.0092 -0.9096
  160SAPE    HA17886   2.207   0.368   6.549  1.2629 -0.5298 -0.3413
  160SAPE    HB17887   2.365   0.299   6.510  1.1809  1.0568 -0.8818
  160SAPE    C217888   2.343   0.381   6.709  0.3040  0.5101 -0.8462
  160SAPE    HS17889   2.281   0.304   6.759  1.9847  0.5271  1.4030
  160SAPE   O2117890   2.318   0.513   6.768  0.0145  0.2085 -0.0629
  160SAPE   C2117891   2.276   0.508   6.898 -0.1749  0.0052  1.1220
  160SAPE   O2217892   2.267   0.406   6.969 -0.1176  0.0709  0.1994
  160SAPE   C2217893   2.225   0.648   6.933  0.7135  0.0468 -0.2175
  160SAPE   H2R17894   2.217   0.721   6.850 -2.1405  0.0705 -0.0078
  160SAPE   H2S17895   2.124   0.628   6.974  0.9148 -0.8128 -0.1224
  160SAPE    C317896   2.490   0.342   6.740  0.5208 -0.4230  0.2890
  160SAPE    HX17897   2.567   0.418   6.715 -0.4354  0.4999  0.0528
  160SAPE    HY17898   2.501   0.259   6.667 -1.2246 -1.1581  0.8114
  160SAPE   O3117899   2.517   0.284   6.869  0.5906  0.2633 -0.8446
  160SAPE   C3117900   2.582   0.363   6.959  0.9002  0.1784 -0.2386
  160SAPE   O3217901   2.588   0.483   6.947 -0.2767 -0.0919 -0.5592
  160SAPE   C3217902   2.617   0.279   7.075 -0.2651 -0.2736  0.6011
  160SAPE   H2X17903   2.695   0.205   7.045 -0.2224  0.0246 -0.0322
  160SAPE   H2Y17904   2.527   0.222   7.106 -0.0059 -0.8802  0.2630
  160SAPE   C2317905   2.303   0.714   7.053 -0.0232  0.2105  0.0621
  160SAPE   H3R17906   2.395   0.766   7.019 -1.4827  3.0965  0.2304
  160SAPE   H3S17907   2.329   0.636   7.128 -0.4239  0.7374  0.7612
  160SAPE   C2417908   2.230   0.824   7.127 -0.0192  0.2333 -0.0423
  160SAPE   H4R17909   2.235   0.915   7.064  3.4004 -0.0081 -0.2773
  160SAPE   H4S17910   2.290   0.848   7.218  0.4048  2.3351 -0.8136
  160SAPE   C2517911   2.091   0.792   7.171 -0.1733 -0.3494 -0.1974
  160SAPE   H5R17912   2.012   0.862   7.140 -2.4066 -1.9679  1.5131
  160SAPE   C2617913   2.066   0.716   7.279  0.0143  0.8116  0.4735
  160SAPE   H6R17914   1.961   0.693   7.304  0.2374 -0.2866  0.4774
  160SAPE   C2717915   2.169   0.642   7.359 -0.1880 -0.5492  0.3718
  160SAPE   H7R17916   2.143   0.658   7.466 -1.0373 -1.5914  0.3409
  160SAPE   H7S17917   2.271   0.682   7.343 -1.4030  2.9569  0.5727
  160SAPE   C2817918   2.177   0.497   7.328  0.0039 -0.4293 -0.0418
  160SAPE   H8R17919   2.164   0.459   7.226  3.2428  1.1297 -1.1830
  160SAPE   C2917920   2.199   0.404   7.422  0.0427 -0.2350  0.3817
  160SAPE   H9R17921   2.218   0.305   7.378 -1.1433 -0.3593  0.1396
  160SAPE  C21017922   2.217   0.410   7.577 -0.4208 -0.3802  0.3144
  160SAPE  H10R17923   2.310   0.470   7.586 -1.7154  1.5178  1.6315
  160SAPE  H10S17924   2.232   0.308   7.618  0.3321 -0.6168 -0.5125
  160SAPE  C21117925   2.105   0.486   7.636 -0.5412 -0.1273 -0.0573
  160SAPE  H11R17926   2.022   0.530   7.579 -1.2920  0.9989  1.7994
  160SAPE  C21217927   2.093   0.501   7.770 -0.2280 -0.2252 -0.2694
  160SAPE  H12R17928   1.999   0.548   7.803 -0.0096 -0.5447  0.8477
  160SAPE  C21317929   2.185   0.456   7.884 -0.5523 -0.1326 -1.0819
  160SAPE  H13R17930   2.275   0.401   7.850  1.4600  0.8568  2.0984
  160SAPE  H13S17931   2.129   0.390   7.954  0.5867  0.7629  0.7720
  160SAPE  C21417932   2.227   0.578   7.970  0.7542 -0.1963 -0.7947
  160SAPE  H14R17933   2.269   0.664   7.917 -1.9599  2.4052  0.9398
  160SAPE  C21517934   2.225   0.574   8.109 -0.5353 -0.9638  0.8183
  160SAPE  H15R17935   2.265   0.657   8.169 -1.9145  0.4789 -0.2048
  160SAPE  C21617936   2.195   0.454   8.193  0.1835  0.1486  0.9503
  160SAPE  H16R17937   2.249   0.368   8.149 -0.1965 -1.0526  2.7523
  160SAPE  H16S17938   2.085   0.438   8.189  0.1200  0.7569 -0.3750
  160SAPE  C21717939   2.230   0.465   8.336 -0.3919 -0.1094  0.1656
  160SAPE  H17R17940   2.185   0.556   8.380  0.6656  1.5658 -2.0135
  160SAPE  H17S17941   2.340   0.477   8.334 -0.0697 -2.2242  1.9147
  160SAPE  C21817942   2.196   0.337   8.419 -0.7333 -0.1901 -0.0548
  160SAPE  H18R17943   2.251   0.253   8.371  0.3609  0.0282  0.7993
  160SAPE  H18S17944   2.085   0.329   8.422 -0.9491  1.9641 -0.8730
  160SAPE  C21917945   2.242   0.346   8.571  0.0197  0.2824  0.7293
  160SAPE  H19R17946   2.205   0.254   8.621 -0.5691 -0.5815 -1.1971
  160SAPE  H19S17947   2.193   0.431   8.622  0.4988  0.4336  0.9397
  160SAPE  C22017948   2.392   0.365   8.584  0.0014  0.0793 -0.6595
  160SAPE  H20R17949   2.418   0.456   8.525  2.0721  0.3615  0.6064
  160SAPE  H20S17950   2.445   0.277   8.540  0.4084  0.0155 -0.0483
  160SAPE  H20T17951   2.425   0.379   8.689 -1.3536  0.1751 -0.2294
  160SAPE   C3317952   2.673   0.368   7.188 -0.3759 -0.1935 -0.3804
  160SAPE   H3X17953   2.750   0.438   7.150  1.0819 -0.4039  1.9516
  160SAPE   H3Y17954   2.733   0.314   7.265  0.2253 -0.4268 -0.9970
  160SAPE   C3417955   2.554   0.429   7.266  0.2609 -0.2806  0.1404
  160SAPE   H4X17956   2.472   0.360   7.296  0.8254 -1.2113 -0.3960
  160SAPE   H4Y17957   2.501   0.496   7.195  0.6776  1.2463  1.2282
  160SAPE   C3517958   2.588   0.517   7.388  0.0070 -0.3534  0.2597
  160SAPE   H5X17959   2.490   0.550   7.429  1.4257  2.1686  1.9263
  160SAPE   H5Y17960   2.638   0.613   7.362 -0.1284 -0.7660 -1.6318
  160SAPE   C3617961   2.668   0.444   7.496  0.0120 -0.6068  0.1711
  160SAPE   H6X17962   2.776   0.448   7.469  0.2411  0.0459  1.1182
  160SAPE   H6Y17963   2.643   0.337   7.512  0.4304 -0.8142 -0.5274
  160SAPE   C3717964   2.647   0.511   7.631 -0.2669  0.1352 -0.0232
  160SAPE   H7X17965   2.539   0.515   7.654 -0.0836 -0.1970  0.9278
  160SAPE   H7Y17966   2.664   0.621   7.622 -1.2498  0.4580  1.6937
  160SAPE   C3817967   2.728   0.453   7.740 -0.7345  1.2723 -1.1788
  160SAPE   H8X17968   2.830   0.432   7.701 -2.0024 -1.7336 -3.2732
  160SAPE   H8Y17969   2.681   0.357   7.772 -1.7026  2.9038  3.0468
  160SAPE   C3917970   2.737   0.541   7.867  0.5686  0.1685  0.1368
  160SAPE   H9X17971   2.791   0.633   7.834 -1.8566  1.3421 -0.7841
  160SAPE   H9Y17972   2.789   0.481   7.945 -0.8945  0.6190  1.5268
  160SAPE  C31017973   2.608   0.591   7.927 -0.6288 -0.5243  0.4049
  160SAPE  H10X17974   2.551   0.505   7.968  0.3379 -0.3743  2.1707
  160SAPE  H10Y17975   2.547   0.655   7.861 -0.8570 -0.4599  0.6742
  160SAPE  C31117976   2.638   0.686   8.044  0.1604  0.5114 -0.5308
  160SAPE  H11X17977   2.697   0.762   7.988  1.2006 -1.4550 -2.2123
  160SAPE  H11Y17978   2.702   0.646   8.126  0.5366 -0.4915 -1.3093
  160SAPE  C31217979   2.519   0.754   8.108  0.1183  0.8458 -0.0970
  160SAPE  H12X17980   2.473   0.679   8.175 -0.9838  1.1105 -0.5230
  160SAPE  H12Y17981   2.450   0.777   8.023 -0.2585 -0.5174 -0.1717
  160SAPE  C31317982   2.544   0.884   8.178 -0.6271 -0.6279 -0.8351
  160SAPE  H13X17983   2.598   0.947   8.105 -0.6315 -0.3989 -0.6412
  160SAPE  H13Y17984   2.598   0.856   8.270  2.0726 -1.9205 -2.6853
  160SAPE  C31417985   2.405   0.952   8.219  0.5678  0.0400  0.3276
  160SAPE  H14X17986   2.347   0.948   8.124  1.7496  2.0529 -0.5406
  160SAPE  H14Y17987   2.432   1.055   8.248 -1.4155  0.6140  0.2620
  160SAPE  C31517988   2.332   0.876   8.330 -0.5604 -0.0406  0.4885
  160SAPE  H15X17989   2.411   0.810   8.372  1.6769  2.1927  0.0396
  160SAPE  H15Y17990   2.254   0.809   8.288 -0.4523  1.0721 -1.6001
  160SAPE  C31617991   2.281   0.957   8.447 -0.8182  0.4885  0.7876
  160SAPE  H16X17992   2.202   1.027   8.415 -1.3137 -0.7751 -0.8969
  160SAPE  H16Y17993   2.358   1.021   8.494 -0.1402 -0.7450  1.4131
  160SAPE  C31717994   2.212   0.867   8.560 -0.4095  0.4551  1.1514
  160SAPE  H17X17995   2.287   0.794   8.598 -1.5901 -1.5295 -0.1730
  160SAPE  H17Y17996   2.136   0.808   8.505  1.2120 -0.6372  0.0012
  160SAPE  C31817997   2.150   0.952   8.667  0.7203  0.2021  0.3194
  160SAPE  H18X17998   2.081   1.030   8.627  0.4223 -0.0557  0.3353
  160SAPE  H18Y17999   2.233   1.006   8.719  0.7963  0.6941 -0.2842
  160SAPE  H18Z18000   2.102   0.887   8.742 -0.7614  0.9242  0.0359
  161SAPE     N18001   5.029   5.284   6.705  0.4281  0.0439 -0.6602
  161SAPE   HN118002   5.083   5.250   6.786 -1.1781 -1.6242 -0.2119
  161SAPE   HN218003   5.077   5.355   6.647  0.1882  0.3156 -0.5272
  161SAPE   HN318004   4.945   5.332   6.742  1.2262  0.0652  1.1925
  161SAPE   C1218005   4.973   5.166   6.631 -1.0309 -0.1752  0.1342
  161SAPE  H12A18006   4.919   5.214   6.546  0.2802  0.0111 -0.6172
  161SAPE  H12B18007   4.904   5.115   6.703 -1.5956  0.5125  0.1005
  161SAPE   C1118008   5.087   5.084   6.582  0.1531  0.5628  0.6751
  161SAPE  H11A18009   5.149   5.125   6.500  0.1467 -0.0759  0.3417
  161SAPE  H11B18010   5.040   4.993   6.538  0.6430 -0.5146  2.2990
  161SAPE     P18011   5.310   4.989   6.690  0.0209  0.4539  0.1510
  161SAPE   O1318012   5.362   4.942   6.557 -0.0189 -0.2135 -0.2760
  161SAPE   O1418013   5.391   5.095   6.750  0.4263 -0.5553  0.3871
  161SAPE   O1218014   5.155   5.027   6.693 -0.0291 -0.5185  0.1064
  161SAPE   O1118015   5.323   4.872   6.791  0.6093 -0.2410 -0.4846
  161SAPE    C118016   5.229   4.768   6.820 -0.0357 -0.0266  0.2569
  161SAPE    HA18017   5.172   4.741   6.729  0.9118 -2.5248  0.3337
  161SAPE    HB18018   5.281   4.673   6.845 -0.2857 -0.8417 -2.0197
  161SAPE    C218019   5.141   4.813   6.935  0.5790  0.0392  0.3049
  161SAPE    HS18020   5.104   4.917   6.918 -1.2245 -0.6948 -0.5532
  161SAPE   O2118021   5.212   4.800   7.055 -0.5715  0.5758 -0.4530
  161SAPE   C2118022   5.200   4.906   7.145  0.0201 -0.3465 -0.5254
  161SAPE   O2218023   5.146   5.011   7.114  0.2679 -0.2516 -0.4363
  161SAPE   C2218024   5.258   4.880   7.287  1.1773  0.8349 -0.1533
  161SAPE   H2R18025   5.201   4.797   7.334  0.2275  2.5309  1.8296
  161SAPE   H2S18026   5.362   4.846   7.267  1.5480  1.3077  0.9302
  161SAPE    C318027   5.016   4.715   6.938  0.4317 -0.0695  0.0820
  161SAPE    HX18028   5.061   4.615   6.947  2.1679  0.6762  0.0162
  161SAPE    HY18029   4.965   4.723   6.839 -0.9129  0.4780  0.7856
  161SAPE   O3118030   4.932   4.735   7.059 -0.2984 -0.0549 -0.5544
  161SAPE   C3118031   4.855   4.834   7.044  0.2430  0.1562 -0.4838
  161SAPE   O3218032   4.848   4.905   6.945  0.0926  0.6953  0.1010
  161SAPE   C3218033   4.768   4.852   7.172 -0.7032 -0.1064  0.2727
  161SAPE   H2X18034   4.830   4.820   7.259  1.3025 -0.1396 -1.1224
  161SAPE   H2Y18035   4.679   4.790   7.148 -0.1871 -0.4904 -0.6643
  161SAPE   C2318036   5.255   4.997   7.391  0.0590  0.1241 -0.0547
  161SAPE   H3R18037   5.293   5.090   7.344 -1.3940  0.4439 -0.6390
  161SAPE   H3S18038   5.312   4.970   7.482  1.1240  0.9223 -0.4646
  161SAPE   C2418039   5.117   5.033   7.439  0.7665  0.1126  0.0914
  161SAPE   H4R18040   5.054   5.044   7.347 -0.7706 -0.8266  0.9878
  161SAPE   H4S18041   5.112   5.122   7.505  0.3085 -0.5477  0.9596
  161SAPE   C2518042   5.050   4.915   7.513 -0.5208  0.2885  0.4079
  161SAPE   H5R18043   5.016   4.831   7.452 -2.1351  1.5254 -0.4849
  161SAPE   C2618044   5.043   4.897   7.645  0.3009 -0.1515 -0.9092
  161SAPE   H6R18045   4.998   4.809   7.693 -0.0378 -0.3481 -1.5765
  161SAPE   C2718046   5.098   4.998   7.744  0.3901  0.8139  0.3664
  161SAPE   H7R18047   5.175   5.060   7.694  0.0168  0.8515 -0.1767
  161SAPE   H7S18048   5.153   4.943   7.824 -1.5033 -2.0546 -0.1431
  161SAPE   C2818049   4.984   5.073   7.803  0.7930 -0.1478 -0.2361
  161SAPE   H8R18050   4.936   5.155   7.749 -1.6566 -1.8525 -0.8315
  161SAPE   C2918051   4.928   5.045   7.921 -0.1367  0.8770 -0.3750
  161SAPE   H9R18052   4.834   5.095   7.949 -0.0744  1.7287 -1.6008
  161SAPE  C21018053   4.970   4.939   8.026  0.1169 -0.4872 -0.4394
  161SAPE  H10R18054   5.035   4.860   7.980  2.4821  1.4624 -0.6597
  161SAPE  H10S18055   4.879   4.881   8.052  0.6408 -0.8577  0.6290
  161SAPE  C21118056   5.017   4.993   8.154  0.3262 -0.6491 -0.7669
  161SAPE  H11R18057   5.125   5.000   8.174  0.1005  0.1856  0.2334
  161SAPE  C21218058   4.935   5.010   8.263 -0.1212  0.0001  1.1727
  161SAPE  H12R18059   4.986   5.051   8.352  2.4497 -0.4935  0.0072
  161SAPE  C21318060   4.785   4.984   8.280 -0.0021 -0.4825 -0.2289
  161SAPE  H13R18061   4.770   4.925   8.373 -1.8589  1.0543  0.5003
  161SAPE  H13S18062   4.742   4.921   8.200 -1.0242  1.0025 -0.9003
  161SAPE  C21418063   4.704   5.117   8.287 -0.9773 -0.7623 -0.7816
  161SAPE  H14R18064   4.683   5.170   8.193  2.3995  2.1877 -0.0938
  161SAPE  C21518065   4.660   5.166   8.403  0.8619 -0.2569 -0.8947
  161SAPE  H15R18066   4.610   5.264   8.400 -3.3061 -2.0394  1.8629
  161SAPE  C21618067   4.678   5.103   8.547  0.3436 -0.4780 -0.0392
  161SAPE  H16R18068   4.701   5.190   8.611  1.8515 -1.5970  1.0149
  161SAPE  H16S18069   4.760   5.028   8.546  0.0065 -0.8775  0.8918
  161SAPE  C21718070   4.548   5.040   8.601 -0.5933  0.1355  0.4927
  161SAPE  H17R18071   4.458   5.105   8.611 -0.5358  0.2660  0.1692
  161SAPE  H17S18072   4.574   5.012   8.705 -1.7407 -0.2559  0.6928
  161SAPE  C21818073   4.517   4.901   8.540  0.4606  0.5053  0.0371
  161SAPE  H18R18074   4.605   4.836   8.553  2.0048  2.1603 -1.4697
  161SAPE  H18S18075   4.490   4.909   8.432 -0.9772 -0.2955  0.3196
  161SAPE  C21918076   4.389   4.851   8.611 -0.4598  0.2444 -0.1949
  161SAPE  H19R18077   4.316   4.930   8.581  0.7073  0.0031 -4.2637
  161SAPE  H19S18078   4.410   4.850   8.720 -0.1208  0.1951 -0.2603
  161SAPE  C22018079   4.352   4.711   8.569 -0.2655 -0.0262 -0.0076
  161SAPE  H20R18080   4.332   4.730   8.461  0.2673  2.8403  0.3216
  161SAPE  H20S18081   4.258   4.666   8.607  0.0685 -1.3104 -0.6364
  161SAPE  H20T18082   4.435   4.639   8.588  1.4282  1.5610 -1.0207
  161SAPE   C3318083   4.724   4.993   7.198  0.1207  0.3096  0.3486
  161SAPE   H3X18084   4.666   5.038   7.114 -0.5352 -0.4648  0.3745
  161SAPE   H3Y18085   4.813   5.059   7.197 -0.6433  1.3773 -0.5538
  161SAPE   C3418086   4.639   5.002   7.329 -0.4540  0.7044  0.1186
  161SAPE   H4X18087   4.706   4.974   7.413  1.3758 -0.0887 -1.5006
  161SAPE   H4Y18088   4.548   4.939   7.321 -0.1669  0.3163 -0.1865
  161SAPE   C3518089   4.590   5.139   7.359 -0.3326 -0.6050 -1.1309
  161SAPE   H5X18090   4.533   5.187   7.277 -0.5243  2.0134  0.4040
  161SAPE   H5Y18091   4.666   5.210   7.398 -2.7291  0.7604  1.4709
  161SAPE   C3618092   4.507   5.158   7.499  0.5075 -0.4325  0.2642
  161SAPE   H6X18093   4.410   5.107   7.483  1.5231 -2.4359  0.1742
  161SAPE   H6Y18094   4.497   5.268   7.501  1.3765 -0.3552  0.9730
  161SAPE   C3718095   4.580   5.099   7.625 -0.1532  0.7491 -0.4168
  161SAPE   H7X18096   4.688   5.123   7.619  0.1372 -0.3162  0.2758
  161SAPE   H7Y18097   4.574   4.988   7.614  0.6994  0.4305  1.8335
  161SAPE   C3818098   4.522   5.149   7.753  0.1505  0.0069 -0.3571
  161SAPE   H8X18099   4.562   5.251   7.769 -1.8914  0.7394  0.4168
  161SAPE   H8Y18100   4.567   5.091   7.837  1.9554  0.3287 -1.0584
  161SAPE   C3918101   4.371   5.149   7.758 -0.2182 -0.3972  0.0937
  161SAPE   H9X18102   4.329   5.053   7.720 -0.5122 -0.1502 -0.2045
  161SAPE   H9Y18103   4.347   5.233   7.690  3.2700 -1.4584 -2.7052
  161SAPE  C31018104   4.314   5.187   7.900 -0.6954 -0.8016  0.6132
  161SAPE  H10X18105   4.216   5.237   7.882  0.7181  1.6243 -0.8124
  161SAPE  H10Y18106   4.386   5.262   7.937  0.8408 -2.2182  0.6373
  161SAPE  C31118107   4.315   5.072   7.993 -0.3880  0.0660  0.0007
  161SAPE  H11X18108   4.418   5.038   8.016  0.1883  1.3715 -0.5358
  161SAPE  H11Y18109   4.266   4.984   7.946 -2.8873 -0.0138  2.4293
  161SAPE  C31218110   4.261   5.101   8.132  0.0678 -0.0415 -0.2050
  161SAPE  H12X18111   4.151   5.110   8.117  0.2340  0.4618 -1.2082
  161SAPE  H12Y18112   4.309   5.198   8.160 -1.0413  0.1302  1.2221
  161SAPE  C31318113   4.270   5.009   8.250  0.4724 -0.6812 -1.0476
  161SAPE  H13X18114   4.370   5.017   8.299 -0.5978 -0.6516  1.2896
  161SAPE  H13Y18115   4.250   4.904   8.220  0.7619 -0.7590 -0.9783
  161SAPE  C31418116   4.167   5.044   8.363  0.6963 -0.2377  0.5952
  161SAPE  H14X18117   4.173   4.960   8.436  3.1006  0.6132  1.5095
  161SAPE  H14Y18118   4.065   5.053   8.321  0.8558  1.9129  0.5781
  161SAPE  C31518119   4.202   5.169   8.436 -0.7228  0.1064 -0.2912
  161SAPE  H15X18120   4.255   5.236   8.364 -2.8502  0.4342 -1.6517
  161SAPE  H15Y18121   4.257   5.153   8.530  1.6567 -2.6976 -2.0069
  161SAPE  C31618122   4.074   5.249   8.477 -1.0072 -0.1153  0.5327
  161SAPE  H16X18123   4.010   5.203   8.555  1.2558 -1.9475  1.4497
  161SAPE  H16Y18124   4.019   5.275   8.384  2.1055  1.0886 -1.1335
  161SAPE  C31718125   4.106   5.387   8.532  0.1663 -0.0996  0.1277
  161SAPE  H17X18126   4.186   5.438   8.473 -1.3293 -0.4694 -2.3650
  161SAPE  H17Y18127   4.150   5.367   8.632 -1.4742 -1.5704  0.6049
  161SAPE  C31818128   3.994   5.496   8.538  0.2447  0.2975 -0.8335
  161SAPE  H18X18129   4.038   5.589   8.580 -0.2782  0.5608 -0.8604
  161SAPE  H18Y18130   3.919   5.458   8.611  1.1929 -1.9772 -0.9609
  161SAPE  H18Z18131   3.945   5.510   8.439  0.5317  0.2884 -0.9798
  162SAPE     N18132   3.870   2.112   6.110  0.2020  0.4718  0.0674
  162SAPE   HN118133   3.896   2.013   6.130  0.4232  0.5296  0.0639
  162SAPE   HN218134   3.790   2.141   6.170 -1.6933 -2.1737 -0.9532
  162SAPE   HN318135   3.840   2.123   6.011 -0.3211  1.1571  0.2938
  162SAPE   C1218136   3.996   2.187   6.137 -0.6430 -0.1163 -0.4969
  162SAPE  H12A18137   3.989   2.223   6.241 -1.8595 -1.3856 -0.1220
  162SAPE  H12B18138   4.006   2.271   6.065 -0.5025 -0.3046 -0.6993
  162SAPE   C1118139   4.116   2.095   6.112  0.8025 -0.4701 -0.2364
  162SAPE  H11A18140   4.205   2.156   6.142  1.5541 -1.0389 -1.2433
  162SAPE  H11B18141   4.129   2.080   6.003 -0.0730  1.4966 -0.6686
  162SAPE     P18142   4.198   1.860   6.179 -0.2388  0.1249  0.0207
  162SAPE   O1318143   4.151   1.762   6.282 -0.8257 -0.6744 -0.1472
  162SAPE   O1418144   4.209   1.819   6.041 -1.0377 -0.0519 -0.1349
  162SAPE   O1218145   4.096   1.979   6.184  0.1802 -0.8912  0.0808
  162SAPE   O1118146   4.330   1.933   6.226  0.4939  0.3396 -0.1374
  162SAPE    C118147   4.314   2.012   6.346 -0.0988 -0.2222 -0.0631
  162SAPE    HA18148   4.368   2.107   6.322 -2.0534  0.6756 -1.0905
  162SAPE    HB18149   4.214   2.047   6.379  0.5007  2.4800 -0.8690
  162SAPE    C218150   4.375   1.943   6.472  0.3575  0.3098 -0.0653
  162SAPE    HS18151   4.295   1.916   6.544  1.4667  1.5037  1.6834
  162SAPE   O2118152   4.475   2.034   6.524  0.8180  0.0168  0.0228
  162SAPE   C2118153   4.417   2.123   6.616  1.1742  0.5065 -0.1642
  162SAPE   O2218154   4.296   2.132   6.635  0.0987  0.4630  0.7910
  162SAPE   C2218155   4.528   2.212   6.669 -1.0274  0.3812 -0.6282
  162SAPE   H2R18156   4.591   2.251   6.586  0.1611  0.1024  0.1198
  162SAPE   H2S18157   4.474   2.296   6.716 -0.8732 -0.6346  1.4724
  162SAPE    C318158   4.446   1.800   6.445 -0.0269 -1.2374  0.5269
  162SAPE    HX18159   4.531   1.809   6.374 -1.0485 -0.4626 -0.6395
  162SAPE    HY18160   4.366   1.745   6.392 -1.7124  1.2967  0.2533
  162SAPE   O3118161   4.475   1.732   6.571 -0.2740  0.3574 -0.5335
  162SAPE   C3118162   4.597   1.726   6.613  0.2781  0.6946 -0.3407
  162SAPE   O3218163   4.696   1.774   6.553 -0.1921  0.3542 -0.0514
  162SAPE   C3218164   4.596   1.649   6.749  0.1710 -0.1188 -0.5059
  162SAPE   H2X18165   4.566   1.545   6.721 -0.4797  0.3358 -1.5811
  162SAPE   H2Y18166   4.512   1.692   6.807  0.0088  3.0144 -2.8002
  162SAPE   C2318167   4.608   2.141   6.784  0.7820  0.0345  0.0951
  162SAPE   H3R18168   4.687   2.210   6.820 -0.9021  1.0815  1.9364
  162SAPE   H3S18169   4.655   2.059   6.724 -0.6222  2.3830 -4.6618
  162SAPE   C2418170   4.518   2.086   6.900  0.0934 -0.0636  0.7487
  162SAPE   H4R18171   4.447   2.012   6.858  0.9085  0.2480 -1.3004
  162SAPE   H4S18172   4.462   2.174   6.937 -0.8118 -1.2757  2.3653
  162SAPE   C2518173   4.588   2.012   7.018  0.5609 -0.0888  0.7122
  162SAPE   H5R18174   4.673   1.946   6.994  0.2525 -0.5684  0.9243
  162SAPE   C2618175   4.541   1.999   7.143  1.0246 -0.0367  0.3101
  162SAPE   H6R18176   4.606   1.945   7.213  1.6974 -2.5156 -2.0593
  162SAPE   C2718177   4.418   2.068   7.197 -0.4462  0.0149  0.7778
  162SAPE   H7R18178   4.383   2.136   7.116 -1.6943  0.6093  1.7648
  162SAPE   H7S18179   4.452   2.136   7.279 -2.0589 -1.3547  2.6821
  162SAPE   C2818180   4.316   1.967   7.256  0.1553 -0.3654 -0.8908
  162SAPE   H8R18181   4.233   1.937   7.191 -0.7016 -2.7537  1.1677
  162SAPE   C2918182   4.319   1.911   7.379  0.6254  0.2266  0.2156
  162SAPE   H9R18183   4.231   1.849   7.402  0.2800  1.5655  2.8085
  162SAPE  C21018184   4.420   1.945   7.482 -0.0787 -0.3090 -0.3711
  162SAPE  H10R18185   4.369   2.022   7.544 -1.3899  0.3204 -2.1580
  162SAPE  H10S18186   4.518   1.983   7.446  0.2073  1.9918  2.4498
  162SAPE  C21118187   4.448   1.819   7.564  0.5005 -0.4869  0.2209
  162SAPE  H11R18188   4.536   1.763   7.529  1.2630 -0.9613  2.6963
  162SAPE  C21218189   4.384   1.780   7.676 -0.0645 -0.6007  0.3374
  162SAPE  H12R18190   4.410   1.682   7.718 -0.2618 -0.6857  0.2638
  162SAPE  C21318191   4.278   1.859   7.756 -0.1316  0.0294 -0.4361
  162SAPE  H13R18192   4.268   1.967   7.732  0.5366  0.2598  0.2955
  162SAPE  H13S18193   4.319   1.864   7.860 -0.5722  2.4183 -0.3210
  162SAPE  C21418194   4.149   1.784   7.768 -0.1126  0.7206 -0.3688
  162SAPE  H14R18195   4.067   1.829   7.709 -0.2302  0.5782 -0.3138
  162SAPE  C21518196   4.110   1.681   7.844 -0.3751  0.6886 -0.2863
  162SAPE  H15R18197   4.011   1.636   7.828 -0.0737  0.1664 -0.7155
  162SAPE  C21618198   4.197   1.608   7.940  0.3695  0.0430 -0.2958
  162SAPE  H16R18199   4.154   1.642   8.037 -0.4930  0.9730 -0.9804
  162SAPE  H16S18200   4.303   1.641   7.934 -0.5218  3.5438  0.5829
  162SAPE  C21718201   4.162   1.456   7.942 -0.1467  0.0180  0.1566
  162SAPE  H17R18202   4.245   1.396   7.986  0.5571  0.4877 -0.5142
  162SAPE  H17S18203   4.144   1.423   7.837 -0.2693 -1.3081  0.5715
  162SAPE  C21818204   4.019   1.437   8.008  0.5014  0.1719  0.0864
  162SAPE  H18R18205   3.954   1.515   7.963  1.4957  2.3185  2.1381
  162SAPE  H18S18206   4.038   1.456   8.116 -0.5167 -1.4392  0.5891
  162SAPE  C21918207   3.956   1.296   7.999 -0.2056 -0.3910  0.7603
  162SAPE  H19R18208   3.939   1.275   7.891 -1.9687  1.5809  0.5751
  162SAPE  H19S18209   3.854   1.299   8.043 -0.1336  0.0481  0.9011
  162SAPE  C22018210   4.045   1.194   8.074  0.1156 -0.0530  0.3295
  162SAPE  H20R18211   3.973   1.120   8.115 -0.1233  1.0355  1.9759
  162SAPE  H20S18212   4.085   1.235   8.169  0.4907 -0.5929  0.4108
  162SAPE  H20T18213   4.124   1.158   8.005 -0.5955  3.8730 -2.9027
  162SAPE   C3318214   4.722   1.662   6.832  0.2264  0.0506 -0.1413
  162SAPE   H3X18215   4.745   1.770   6.850  1.7622 -0.2850  0.0822
  162SAPE   H3Y18216   4.815   1.627   6.783  0.0547  0.1459 -0.5379
  162SAPE   C3418217   4.705   1.606   6.974 -0.3142  0.0545  0.7630
  162SAPE   H4X18218   4.690   1.496   6.972 -0.6510  0.0690 -2.4861
  162SAPE   H4Y18219   4.605   1.641   7.008 -1.4751 -1.8606 -0.4855
  162SAPE   C3518220   4.799   1.658   7.085 -0.4037  0.5222  0.3440
  162SAPE   H5X18221   4.790   1.768   7.099  2.4684  1.0066 -0.9705
  162SAPE   H5Y18222   4.905   1.636   7.063 -1.1140 -2.9295 -0.1233
  162SAPE   C3618223   4.758   1.592   7.214 -0.7442  0.3330 -0.6605
  162SAPE   H6X18224   4.797   1.488   7.213  0.1261  0.5821  1.5421
  162SAPE   H6Y18225   4.649   1.608   7.228 -0.5065 -0.1371  2.1443
  162SAPE   C3718226   4.820   1.666   7.341  0.0483  0.1421 -0.6616
  162SAPE   H7X18227   4.778   1.769   7.341 -0.6689 -0.1445 -0.5582
  162SAPE   H7Y18228   4.931   1.668   7.337  0.1816 -2.7745 -0.4647
  162SAPE   C3818229   4.782   1.596   7.474 -0.0193  0.4934  0.2127
  162SAPE   H8X18230   4.822   1.493   7.462  0.2325  0.5480  0.5655
  162SAPE   H8Y18231   4.673   1.583   7.493 -0.0081  1.3776  0.9577
  162SAPE   C3918232   4.839   1.655   7.607  0.1119 -0.0668 -0.6222
  162SAPE   H9X18233   4.816   1.764   7.606  0.2261 -0.0441 -1.5656
  162SAPE   H9Y18234   4.949   1.642   7.601  0.2514  1.0869 -0.7927
  162SAPE  C31018235   4.773   1.583   7.726 -0.4980  0.1842  0.0787
  162SAPE  H10X18236   4.817   1.481   7.722  0.2701  0.4896  0.6228
  162SAPE  H10Y18237   4.664   1.568   7.708 -1.5775  1.4527  4.4399
  162SAPE  C31118238   4.799   1.647   7.857 -0.0052  0.4725 -0.0866
  162SAPE  H11X18239   4.909   1.652   7.875  0.1326 -1.4300 -0.2729
  162SAPE  H11Y18240   4.751   1.581   7.932 -2.5140  1.3153 -0.8564
  162SAPE  C31218241   4.736   1.785   7.866  0.0716 -1.4161 -0.1608
  162SAPE  H12X18242   4.630   1.782   7.832 -0.5120 -0.2187  1.4298
  162SAPE  H12Y18243   4.789   1.847   7.791 -1.2474 -0.8369 -0.6471
  162SAPE  C31318244   4.741   1.855   8.000  0.3920  0.7843  0.7607
  162SAPE  H13X18245   4.847   1.873   8.030  1.8295 -2.7900 -1.5250
  162SAPE  H13Y18246   4.697   1.802   8.087  1.5931  0.0067  0.9136
  162SAPE  C31418247   4.656   1.984   7.980 -0.0593  0.0948  1.0482
  162SAPE  H14X18248   4.551   1.965   7.949 -0.0205  1.6180 -0.1434
  162SAPE  H14Y18249   4.711   2.024   7.892  1.4987 -2.1459  0.9280
  162SAPE  C31518250   4.660   2.098   8.079  0.5022 -0.7626  0.7283
  162SAPE  H15X18251   4.603   2.184   8.038 -1.4936 -1.6538  1.5189
  162SAPE  H15Y18252   4.764   2.137   8.086 -0.4154  1.8050  0.9165
  162SAPE  C31618253   4.611   2.063   8.220  0.2188 -0.0460  0.7337
  162SAPE  H16X18254   4.692   2.005   8.270  1.0827  1.2129  0.8238
  162SAPE  H16Y18255   4.519   2.002   8.209  0.2214  0.0910 -0.0860
  162SAPE  C31718256   4.577   2.180   8.311  0.9427  0.7675 -0.0421
  162SAPE  H17X18257   4.528   2.143   8.403  1.5283 -1.8126 -0.6800
  162SAPE  H17Y18258   4.500   2.236   8.253 -0.5315 -0.4804  0.6501
  162SAPE  C31818259   4.684   2.274   8.348  0.7599  0.7442  0.0800
  162SAPE  H18X18260   4.757   2.227   8.417  1.6417 -0.4940 -1.6333
  162SAPE  H18Y18261   4.645   2.368   8.394 -1.0582  0.2388 -0.3620
  162SAPE  H18Z18262   4.741   2.299   8.257 -0.0494 -0.7232 -0.8698
  163SAPE     N18263   2.278   5.681   6.397 -0.5076  0.0152  0.3300
  163SAPE   HN118264   2.380   5.697   6.394 -0.7074  1.2388 -0.4119
  163SAPE   HN218265   2.242   5.622   6.475 -0.0245 -1.2169 -0.3404
  163SAPE   HN318266   2.250   5.618   6.319 -1.7038 -0.1136  0.8299
  163SAPE   C1218267   2.206   5.818   6.398  0.2515  0.6060 -0.3716
  163SAPE  H12A18268   2.212   5.859   6.295  2.3231 -0.6990 -0.8363
  163SAPE  H12B18269   2.263   5.882   6.468  1.1805 -3.5475  3.1044
  163SAPE   C1118270   2.056   5.785   6.431  0.4116 -0.4276 -0.0783
  163SAPE  H11A18271   2.019   5.713   6.356 -1.4992 -0.2771  0.6780
  163SAPE  H11B18272   1.997   5.877   6.413  1.6648  0.1276 -1.4896
  163SAPE     P18273   1.916   5.770   6.649 -0.1998 -0.1122 -0.1354
  163SAPE   O1318274   1.800   5.777   6.556  0.1120 -0.0642 -0.0146
  163SAPE   O1418275   1.897   5.680   6.761 -0.0244  0.6735  0.3613
  163SAPE   O1218276   2.048   5.735   6.568 -0.4482  0.6413 -0.2718
  163SAPE   O1118277   1.940   5.909   6.703 -0.0533  0.3018  0.2787
  163SAPE    C118278   2.062   5.978   6.703  0.2320  0.6045  0.0494
  163SAPE    HA18279   2.144   5.905   6.690  0.7060  1.5149 -2.9109
  163SAPE    HB18280   2.063   6.043   6.612 -1.4769 -1.7801 -1.8092
  163SAPE    C218281   2.094   6.068   6.827 -0.0266 -0.2546 -0.3614
  163SAPE    HS18282   2.197   6.107   6.816  0.6775 -1.9758 -0.0444
  163SAPE   O2118283   2.089   6.001   6.959  0.3382  0.2882 -0.5369
  163SAPE   C2118284   2.166   5.898   6.978  0.0520 -0.5146 -0.0334
  163SAPE   O2218285   2.261   5.868   6.905  0.3298  0.5492  0.1444
  163SAPE   C2218286   2.112   5.822   7.103 -0.0440  0.1548 -0.0513
  163SAPE   H2R18287   2.006   5.852   7.117  0.1741  0.2682  1.4902
  163SAPE   H2S18288   2.122   5.715   7.077 -0.1107  0.1184  0.0742
  163SAPE    C318289   2.002   6.199   6.829 -0.2798  0.0839  0.7701
  163SAPE    HX18290   1.898   6.162   6.842 -0.5135  0.8963  1.3176
  163SAPE    HY18291   1.998   6.252   6.731 -0.8368 -0.1292  0.6738
  163SAPE   O3118292   2.049   6.288   6.937 -0.2758 -0.3973  0.0426
  163SAPE   C3118293   1.957   6.355   7.013 -0.2456  0.3433  0.7254
  163SAPE   O3218294   1.836   6.347   7.001  0.2154 -0.5403 -0.0317
  163SAPE   C3218295   2.028   6.425   7.132  0.6117  0.3501 -0.0368
  163SAPE   H2X18296   2.040   6.534   7.116  1.5440  0.1317 -0.9022
  163SAPE   H2Y18297   2.126   6.372   7.133  0.9356  0.9314 -0.9052
  163SAPE   C2318298   2.197   5.852   7.227 -0.2114 -0.1865  0.1507
  163SAPE   H3R18299   2.189   5.961   7.248 -2.8814  0.3875 -2.9355
  163SAPE   H3S18300   2.300   5.834   7.189  1.0505  0.9445  2.8020
  163SAPE   C2418301   2.157   5.759   7.339 -0.8257 -0.6222 -0.1438
  163SAPE   H4R18302   2.222   5.769   7.429 -2.4765  0.0417  1.0349
  163SAPE   H4S18303   2.195   5.661   7.304  0.9779  0.0706 -0.1822
  163SAPE   C2518304   2.013   5.759   7.381  0.6899  0.0083  0.2746
  163SAPE   H5R18305   1.938   5.732   7.306  2.5737  1.4232 -2.3005
  163SAPE   C2618306   1.966   5.764   7.511  0.8814 -0.5491 -0.2047
  163SAPE   H6R18307   1.856   5.760   7.523  0.9550  1.4106  1.7930
  163SAPE   C2718308   2.026   5.789   7.644 -0.1517 -0.3198  0.5708
  163SAPE   H7R18309   2.087   5.703   7.680  0.4110  1.5444  4.6586
  163SAPE   H7S18310   1.948   5.807   7.722  2.1544  3.3248  2.2630
  163SAPE   C2818311   2.116   5.904   7.649 -0.5707  0.0584 -0.8022
  163SAPE   H8R18312   2.172   5.931   7.558 -0.9235  0.0094 -1.0347
  163SAPE   C2918313   2.167   5.969   7.760 -0.2757  0.0584 -0.1425
  163SAPE   H9R18314   2.235   6.054   7.752  0.3256 -0.4590 -0.6155
  163SAPE  C21018315   2.113   5.934   7.902  0.2552 -0.5813 -0.6510
  163SAPE  H10R18316   2.002   5.927   7.909  0.3440 -0.5761  1.0395
  163SAPE  H10S18317   2.138   6.014   7.974  0.0548 -0.6716 -0.4807
  163SAPE  C21118318   2.171   5.805   7.962  0.4713  1.0938  0.4972
  163SAPE  H11R18319   2.109   5.720   7.931 -1.2578  1.9946  1.2971
  163SAPE  C21218320   2.279   5.798   8.045 -0.1903  0.1120 -0.6984
  163SAPE  H12R18321   2.305   5.698   8.082 -0.9070 -0.0112 -0.5074
  163SAPE  C21318322   2.364   5.918   8.097  0.4331 -0.0623  0.7869
  163SAPE  H13R18323   2.334   6.006   8.037 -0.1122 -0.4425  0.4958
  163SAPE  H13S18324   2.474   5.904   8.089  0.2452 -2.0663  1.1337
  163SAPE  C21418325   2.319   5.955   8.239  0.1039 -0.4016 -0.2013
  163SAPE  H14R18326   2.211   5.970   8.243  0.3361  1.5480 -0.3101
  163SAPE  C21518327   2.398   5.965   8.348  0.4248 -0.0404  0.4702
  163SAPE  H15R18328   2.338   5.980   8.440 -2.4109 -2.2607 -0.8527
  163SAPE  C21618329   2.540   5.941   8.373  0.0067 -0.0765 -0.2201
  163SAPE  H16R18330   2.587   6.022   8.433  1.5434 -0.2902 -1.0920
  163SAPE  H16S18331   2.601   5.939   8.281  0.5468  2.6501 -0.0108
  163SAPE  C21718332   2.576   5.798   8.441  0.3196 -0.5222  0.1589
  163SAPE  H17R18333   2.557   5.812   8.549 -1.1439 -1.0988 -0.0020
  163SAPE  H17S18334   2.687   5.799   8.432  0.2716  0.0042 -0.4873
  163SAPE  C21818335   2.527   5.675   8.375  0.4133  0.2186  0.2187
  163SAPE  H18R18336   2.589   5.664   8.283  1.1776 -3.3490  1.0004
  163SAPE  H18S18337   2.419   5.689   8.352  0.3054 -1.1631 -0.2084
  163SAPE  C21918338   2.539   5.551   8.460  0.0616  0.7210 -0.4237
  163SAPE  H19R18339   2.625   5.559   8.529 -0.1885  1.4851 -0.2029
  163SAPE  H19S18340   2.592   5.473   8.400  2.4717  0.8290  1.3956
  163SAPE  C22018341   2.409   5.484   8.516  0.3847 -0.2605 -0.0565
  163SAPE  H20R18342   2.352   5.424   8.442  0.9029  0.0820 -0.7522
  163SAPE  H20S18343   2.344   5.550   8.578 -0.6387  0.5828 -1.9251
  163SAPE  H20T18344   2.430   5.406   8.592 -1.7696  0.8551  1.7919
  163SAPE   C3318345   1.948   6.390   7.259 -0.4801 -0.8555 -0.3360
  163SAPE   H3X18346   1.938   6.280   7.274 -0.9622 -0.5750  1.5644
  163SAPE   H3Y18347   1.843   6.426   7.251 -0.0748  0.5584  0.4171
  163SAPE   C3418348   2.018   6.455   7.376 -0.0361 -0.2359  0.6371
  163SAPE   H4X18349   2.048   6.558   7.345 -0.7671 -0.4127 -0.7178
  163SAPE   H4Y18350   2.113   6.401   7.397  0.4443 -1.4315 -3.7421
  163SAPE   C3518351   1.932   6.454   7.504  0.8099 -0.0042  0.3698
  163SAPE   H5X18352   1.906   6.348   7.527 -0.0483  0.5190  1.9245
  163SAPE   H5Y18353   1.836   6.506   7.487 -0.2298 -2.4449 -2.1129
  163SAPE   C3618354   1.997   6.527   7.624  0.4520  0.1219  0.6443
  163SAPE   H6X18355   2.000   6.635   7.600  0.3249 -0.1865 -0.8500
  163SAPE   H6Y18356   2.098   6.481   7.629  1.0432  0.9882 -1.8722
  163SAPE   C3718357   1.930   6.508   7.757 -0.6690  0.3536  0.5577
  163SAPE   H7X18358   1.922   6.397   7.765 -1.0640  0.3694  0.3961
  163SAPE   H7Y18359   1.832   6.560   7.764 -0.3467  0.8069  1.8403
  163SAPE   C3818360   2.007   6.553   7.878 -0.1382 -0.1417 -0.2095
  163SAPE   H8X18361   1.946   6.531   7.968  1.5636 -0.9286  0.7869
  163SAPE   H8Y18362   2.039   6.659   7.877  3.1383 -0.9121  3.3867
  163SAPE   C3918363   2.140   6.484   7.900 -0.9959  0.0811  0.5005
  163SAPE   H9X18364   2.221   6.517   7.831 -0.1411 -0.2543  1.3092
  163SAPE   H9Y18365   2.145   6.377   7.871  0.3856 -0.3077  2.0015
  163SAPE  C31018366   2.198   6.498   8.034 -0.1818 -0.1201 -0.1489
  163SAPE  H10X18367   2.178   6.604   8.061  0.7957  1.0989 -3.5882
  163SAPE  H10Y18368   2.309   6.488   8.025  0.0503  1.8504  0.1510
  163SAPE  C31118369   2.151   6.392   8.128  0.0666  0.1658  0.3763
  163SAPE  H11X18370   2.173   6.288   8.095 -0.4322  0.1342  0.1399
  163SAPE  H11Y18371   2.041   6.398   8.145  0.0390  1.5109 -0.2118
  163SAPE  C31218372   2.224   6.416   8.264 -0.5486  0.4444 -0.5433
  163SAPE  H12X18373   2.191   6.512   8.310 -0.7998 -0.3578  1.0139
  163SAPE  H12Y18374   2.334   6.413   8.247 -0.4695  0.4942 -0.0689
  163SAPE  C31318375   2.195   6.315   8.380 -0.1005  0.5364 -0.6376
  163SAPE  H13X18376   2.183   6.208   8.353  0.0801  0.8506 -2.0552
  163SAPE  H13Y18377   2.100   6.341   8.431 -0.4000  3.1508 -2.3807
  163SAPE  C31418378   2.289   6.325   8.505 -0.3503  0.2954 -0.5756
  163SAPE  H14X18379   2.299   6.434   8.519  2.0332  0.1356 -0.6873
  163SAPE  H14Y18380   2.385   6.283   8.468  0.0155  1.6475 -1.1962
  163SAPE  C31518381   2.236   6.244   8.630 -0.3304 -0.3342 -0.2121
  163SAPE  H15X18382   2.264   6.137   8.620 -2.1603 -1.2003  2.6033
  163SAPE  H15Y18383   2.127   6.250   8.654 -0.0466 -0.7397  1.3010
  163SAPE  C31618384   2.300   6.295   8.755 -0.4398 -0.2391 -0.3053
  163SAPE  H16X18385   2.247   6.390   8.778  0.7778  0.2547  0.5511
  163SAPE  H16Y18386   2.410   6.305   8.747 -0.1646 -2.7963 -0.5683
  163SAPE  C31718387   2.269   6.201   8.872 -0.9897  0.2361 -0.3907
  163SAPE  H17X18388   2.323   6.104   8.862 -1.0698 -0.0037  1.2824
  163SAPE  H17Y18389   2.162   6.182   8.890 -0.5194 -0.3377  2.2224
  163SAPE  C31818390   2.323   6.248   9.007  0.6881  0.1433 -0.0189
  163SAPE  H18X18391   2.321   6.160   9.075 -0.8923 -0.4959 -0.8358
  163SAPE  H18Y18392   2.247   6.321   9.042 -0.4057 -0.3945 -1.2040
  163SAPE  H18Z18393   2.430   6.273   8.989  1.5985 -4.1335 -1.7491
  164SAPE     N18394   4.862   1.895   6.351  0.4521  0.0161  0.1891
  164SAPE   HN118395   4.806   1.981   6.335  0.5072  0.4695  2.1450
  164SAPE   HN218396   4.828   1.846   6.437  0.3517  1.4615  0.9935
  164SAPE   HN318397   4.958   1.925   6.377  0.0157  2.5168 -0.9002
  164SAPE   C1218398   4.870   1.789   6.238  0.2890 -0.1457  0.3482
  164SAPE  H12A18399   4.767   1.747   6.226  0.3917  0.2206 -2.4282
  164SAPE  H12B18400   4.943   1.713   6.272  0.6168 -0.6487 -1.4067
  164SAPE   C1118401   4.897   1.851   6.098 -0.2828  0.5354 -0.0579
  164SAPE  H11A18402   4.842   1.946   6.083 -1.8581 -0.5805 -1.8257
  164SAPE  H11B18403   4.861   1.777   6.023  0.9700 -0.4315  0.2630
  164SAPE     P18404   5.106   2.008   6.076 -0.2557 -0.1720  0.2112
  164SAPE   O1318405   5.246   1.991   6.044 -0.9112  0.0932 -0.6696
  164SAPE   O1418406   5.038   2.095   5.971  0.1896  0.6563 -0.2170
  164SAPE   O1218407   5.042   1.864   6.078  0.7354 -0.7378 -0.5466
  164SAPE   O1118408   5.082   2.086   6.217  0.3946 -0.3861 -0.3808
  164SAPE    C118409   5.186   2.060   6.313 -0.4099 -0.7279 -1.1345
  164SAPE    HA18410   5.191   1.950   6.331  0.7267 -0.6909 -1.2028
  164SAPE    HB18411   5.288   2.088   6.282  0.9405 -2.1571  1.6322
  164SAPE    C218412   5.154   2.131   6.452 -0.3085 -0.0482 -0.1517
  164SAPE    HS18413   5.249   2.144   6.508 -0.4601  2.0474 -0.3103
  164SAPE   O2118414   5.053   2.061   6.528  0.4852 -0.4159 -0.1696
  164SAPE   C2118415   5.094   2.012   6.639  0.3659  0.7080  0.6578
  164SAPE   O2218416   5.204   1.995   6.673 -0.7789 -0.0853 -0.4675
  164SAPE   C2218417   4.974   1.970   6.725 -0.7981  0.2158 -0.2063
  164SAPE   H2R18418   4.904   2.054   6.744 -1.0885 -0.1681  0.4373
  164SAPE   H2S18419   4.910   1.909   6.659 -0.5785 -0.2926  0.0458
  164SAPE    C318420   5.092   2.270   6.423  0.4633 -0.6269 -0.3036
  164SAPE    HX18421   4.991   2.253   6.380 -0.0918  1.5886  0.0227
  164SAPE    HY18422   5.155   2.322   6.348  0.0964 -0.4061 -0.4599
  164SAPE   O3118423   5.089   2.345   6.542 -0.2302  0.1215 -0.4148
  164SAPE   C3118424   4.978   2.345   6.612 -0.0086 -0.0874 -0.3644
  164SAPE   O3218425   4.876   2.282   6.590 -0.6557  1.0068 -0.7322
  164SAPE   C3218426   5.000   2.430   6.736  0.1770 -0.0585  0.1834
  164SAPE   H2X18427   4.911   2.421   6.801  0.1128  0.9254  0.2429
  164SAPE   H2Y18428   4.997   2.533   6.695  0.2298  0.3331  1.1517
  164SAPE   C2318429   5.017   1.905   6.858  0.1080  0.7831  0.0422
  164SAPE   H3R18430   5.105   1.843   6.828  0.6085  0.4831  2.0172
  164SAPE   H3S18431   4.943   1.832   6.896 -0.2995 -0.6270 -3.0781
  164SAPE   C2418432   5.058   2.003   6.966  0.3038  0.0919  0.3025
  164SAPE   H4R18433   5.147   2.063   6.935  0.1864  1.2516  2.0738
  164SAPE   H4S18434   5.096   1.934   7.043  0.7461 -1.2694 -1.0830
  164SAPE   C2518435   4.941   2.088   7.017  0.2400 -0.6417  0.5692
  164SAPE   H5R18436   4.879   2.126   6.935 -1.6483  0.2581  2.3117
  164SAPE   C2618437   4.907   2.106   7.150 -0.2330 -0.2784 -0.8442
  164SAPE   H6R18438   4.831   2.179   7.183  2.6832  2.1416  1.0703
  164SAPE   C2718439   4.989   2.051   7.265 -0.3623  0.0865 -0.0186
  164SAPE   H7R18440   5.066   1.978   7.231 -1.4895  0.1346 -3.0174
  164SAPE   H7S18441   4.912   1.998   7.325 -0.8181 -1.0313 -1.5137
  164SAPE   C2818442   5.044   2.165   7.346  0.1048  0.1943 -0.4793
  164SAPE   H8R18443   5.032   2.267   7.305 -2.6866  1.2899  2.6011
  164SAPE   C2918444   5.113   2.160   7.461 -0.0522  0.4138  0.0301
  164SAPE   H9R18445   5.140   2.256   7.508  0.5806  0.1649  0.1863
  164SAPE  C21018446   5.151   2.040   7.540  0.1000  0.2581  0.2279
  164SAPE  H10R18447   5.122   1.944   7.492  0.6013 -0.7052  1.7718
  164SAPE  H10S18448   5.097   2.044   7.637  1.2181  2.2506  0.8283
  164SAPE  C21118449   5.295   2.020   7.579 -0.4602 -0.1551 -0.3147
  164SAPE  H11R18450   5.364   1.984   7.502 -0.6324  0.3336 -0.6982
  164SAPE  C21218451   5.353   2.052   7.698 -0.5306 -0.8070  0.3008
  164SAPE  H12R18452   5.462   2.041   7.712  0.1460  1.0515 -2.6686
  164SAPE  C21318453   5.295   2.120   7.821 -0.2597  0.3668 -0.4101
  164SAPE  H13R18454   5.188   2.136   7.796 -0.3814 -0.4997 -0.4767
  164SAPE  H13S18455   5.350   2.216   7.833  2.9421 -1.4445  0.5244
  164SAPE  C21418456   5.307   2.047   7.958 -0.0795  0.2790  0.0140
  164SAPE  H14R18457   5.382   1.967   7.953 -1.6299 -1.2038 -0.6240
  164SAPE  C21518458   5.212   2.045   8.052  0.6457  0.1065  0.4675
  164SAPE  H15R18459   5.231   1.985   8.142 -1.1137  0.2142  0.9593
  164SAPE  C21618460   5.077   2.126   8.065 -0.1813  0.2066  1.0695
  164SAPE  H16R18461   5.002   2.054   8.025  0.3978 -0.6310  1.4703
  164SAPE  H16S18462   5.078   2.214   7.998 -0.1134 -0.6023 -0.0270
  164SAPE  C21718463   5.040   2.168   8.211 -0.2115 -0.3671  0.2003
  164SAPE  H17R18464   5.047   2.082   8.281 -0.5325  0.3797  1.1646
  164SAPE  H17S18465   4.934   2.197   8.223 -0.0091  0.9911 -1.0485
  164SAPE  C21818466   5.123   2.290   8.244 -0.7334 -0.9213 -0.9608
  164SAPE  H18R18467   5.230   2.263   8.258 -0.0243  2.0382  0.1368
  164SAPE  H18S18468   5.095   2.324   8.346  0.0281  1.2650 -1.4202
  164SAPE  C21918469   5.109   2.420   8.164  0.2343  0.9698 -0.0956
  164SAPE  H19R18470   5.144   2.397   8.062 -0.4351  0.9809 -0.3338
  164SAPE  H19S18471   5.149   2.513   8.211 -1.1606  0.7196  1.6788
  164SAPE  C22018472   4.964   2.458   8.160  0.4289  0.1046 -0.2960
  164SAPE  H20R18473   4.910   2.446   8.256  0.4645 -1.3634 -0.4368
  164SAPE  H20S18474   4.909   2.406   8.079  0.3259  0.0420 -0.1850
  164SAPE  H20T18475   4.957   2.566   8.132 -0.3211  0.1809  0.1737
  164SAPE   C3318476   5.127   2.383   6.814  0.6469  0.0470 -0.2534
  164SAPE   H3X18477   5.215   2.364   6.749  0.5188  0.2475 -0.4923
  164SAPE   H3Y18478   5.121   2.292   6.877 -0.7301  0.6251  0.5083
  164SAPE   C3418479   5.173   2.491   6.898  0.2252  0.8251 -0.4402
  164SAPE   H4X18480   5.170   2.589   6.846 -1.8240  0.4766 -1.0715
  164SAPE   H4Y18481   5.277   2.466   6.926  0.0997 -1.2953 -1.6651
  164SAPE   C3518482   5.093   2.496   7.029  0.7276 -0.1080  0.6666
  164SAPE   H5X18483   5.089   2.394   7.075  1.1881 -0.6576 -0.4717
  164SAPE   H5Y18484   4.986   2.517   7.007  0.1499  0.0498  3.3015
  164SAPE   C3618485   5.155   2.591   7.129  0.5641 -0.3012  0.3607
  164SAPE   H6X18486   5.071   2.631   7.191  1.5865  2.5125  0.0942
  164SAPE   H6Y18487   5.192   2.685   7.083 -0.7355  0.2198  0.3225
  164SAPE   C3718488   5.257   2.542   7.233  0.3843  0.0687 -0.2940
  164SAPE   H7X18489   5.357   2.521   7.188  1.9304  1.0945  2.4513
  164SAPE   H7Y18490   5.220   2.445   7.272  1.2845 -0.2827 -0.2992
  164SAPE   C3818491   5.266   2.639   7.355 -0.4230 -0.5381  0.0832
  164SAPE   H8X18492   5.234   2.740   7.321  0.7555  0.2507  1.2280
  164SAPE   H8Y18493   5.371   2.644   7.389 -0.2767  3.4490 -0.4350
  164SAPE   C3918494   5.164   2.602   7.462  0.3396 -1.3348  0.1643
  164SAPE   H9X18495   5.192   2.499   7.493 -0.2995 -2.4311 -2.5726
  164SAPE   H9Y18496   5.061   2.601   7.419 -0.3387  4.1101  1.0514
  164SAPE  C31018497   5.152   2.698   7.590  0.1063  0.6205  0.3552
  164SAPE  H10X18498   5.056   2.674   7.642  0.3062  2.2601  1.5816
  164SAPE  H10Y18499   5.138   2.804   7.558 -0.8642  0.5484  0.5067
  164SAPE  C31118500   5.271   2.683   7.681 -0.0671  0.2106 -0.4136
  164SAPE  H11X18501   5.361   2.724   7.630  0.4962 -0.8628 -0.3155
  164SAPE  H11Y18502   5.290   2.575   7.694  1.0489  0.4666  0.2292
  164SAPE  C31218503   5.256   2.748   7.819 -0.2507  0.2051  0.1407
  164SAPE  H12X18504   5.179   2.694   7.878 -0.5957  0.2707 -0.2397
  164SAPE  H12Y18505   5.211   2.849   7.818  2.0247  1.2943 -0.1896
  164SAPE  C31318506   5.384   2.758   7.901  0.0548  0.3601 -1.1578
  164SAPE  H13X18507   5.452   2.837   7.863  0.4555  0.6035  0.0406
  164SAPE  H13Y18508   5.450   2.669   7.899  1.1870  1.1763 -0.5886
  164SAPE  C31418509   5.345   2.798   8.042  0.3091 -0.6646 -0.3685
  164SAPE  H14X18510   5.265   2.731   8.079 -3.0169  1.7525 -2.6420
  164SAPE  H14Y18511   5.292   2.895   8.036 -1.2713 -1.5032 -0.5597
  164SAPE  C31518512   5.474   2.807   8.123 -0.1447  0.5466 -1.4762
  164SAPE  H15X18513   5.538   2.888   8.083  0.1958 -0.3714 -2.8526
  164SAPE  H15Y18514   5.529   2.710   8.121  0.4324  0.7488  0.8919
  164SAPE  C31618515   5.449   2.860   8.269 -0.1629  0.3388 -0.5668
  164SAPE  H16X18516   5.359   2.815   8.317  0.1429 -2.0183 -2.0539
  164SAPE  H16Y18517   5.418   2.967   8.275  0.9887  0.5861  2.7916
  164SAPE  C31718518   5.568   2.840   8.360  0.4779  1.0383 -0.8508
  164SAPE  H17X18519   5.657   2.893   8.320  1.0163  1.2124  0.5132
  164SAPE  H17Y18520   5.604   2.735   8.371  0.4971  1.2717  2.1231
  164SAPE  C31818521   5.547   2.894   8.505 -0.0400  0.1112  0.0570
  164SAPE  H18X18522   5.638   2.878   8.567 -0.3420 -1.0586  0.2272
  164SAPE  H18Y18523   5.465   2.846   8.563 -0.5065  1.0736  0.2008
  164SAPE  H18Z18524   5.536   3.004   8.499  0.3452  0.2729  1.8691
  165SAPE     N18525   4.383   5.818   6.249 -0.1093  0.0248  0.2328
  165SAPE   HN118526   4.370   5.719   6.221 -0.6007  0.1513 -0.0047
  165SAPE   HN218527   4.314   5.848   6.321 -0.1109 -1.2614  0.7859
  165SAPE   HN318528   4.365   5.865   6.158 -0.2535  0.7958  0.6456
  165SAPE   C1218529   4.520   5.828   6.301  0.1082  0.2874  0.0945
  165SAPE  H12A18530   4.589   5.783   6.227  0.6390  0.8422  0.2480
  165SAPE  H12B18531   4.531   5.771   6.395  0.4607 -1.9420 -1.2220
  165SAPE   C1118532   4.557   5.980   6.333 -0.5608 -0.2458  0.6143
  165SAPE  H11A18533   4.504   6.006   6.427 -1.9296 -2.3630  0.5003
  165SAPE  H11B18534   4.524   6.050   6.253 -0.1970 -4.1472 -3.3503
  165SAPE     P18535   4.751   6.148   6.366 -0.4338 -0.3362  0.3252
  165SAPE   O1318536   4.887   6.157   6.425 -0.0736 -0.2058  0.3003
  165SAPE   O1418537   4.742   6.205   6.232  0.4709 -0.2849 -0.1024
  165SAPE   O1218538   4.696   5.997   6.357  0.2303  0.3010  0.4644
  165SAPE   O1118539   4.643   6.213   6.466 -0.3990 -0.2019 -0.8682
  165SAPE    C118540   4.621   6.166   6.602 -0.6758  0.5911  0.8335
  165SAPE    HA18541   4.516   6.191   6.629 -0.1052  1.4149  2.3979
  165SAPE    HB18542   4.631   6.056   6.604 -1.1119  0.5156 -0.3585
  165SAPE    C218543   4.701   6.245   6.708  0.0739  0.0021  0.4447
  165SAPE    HS18544   4.809   6.217   6.707  0.0649 -0.0529 -0.5092
  165SAPE   O2118545   4.647   6.221   6.842  0.0800  0.0278  0.0293
  165SAPE   C2118546   4.659   6.094   6.889  0.6015 -0.0558 -1.0140
  165SAPE   O2218547   4.723   6.009   6.836  0.1848 -0.2269 -0.3564
  165SAPE   C2218548   4.588   6.082   7.026 -0.0528  0.4364 -0.5870
  165SAPE   H2R18549   4.634   6.160   7.090 -1.7472 -0.0170  1.2981
  165SAPE   H2S18550   4.480   6.107   7.016 -0.4485 -1.5286 -1.7282
  165SAPE    C318551   4.692   6.404   6.685  0.0867  0.1182  0.5244
  165SAPE    HX18552   4.585   6.426   6.703  0.1428  0.7420  0.1296
  165SAPE    HY18553   4.715   6.420   6.578 -0.9034  0.5582  0.3709
  165SAPE   O3118554   4.772   6.476   6.780  0.1013 -0.0160 -0.0269
  165SAPE   C3118555   4.903   6.488   6.762 -0.2429  0.7401 -0.0101
  165SAPE   O3218556   4.965   6.437   6.669 -0.3954 -0.3126 -0.1239
  165SAPE   C3218557   4.968   6.593   6.854 -0.2492 -0.1855 -0.3137
  165SAPE   H2X18558   4.886   6.653   6.899 -1.9262 -1.3839 -1.6292
  165SAPE   H2Y18559   5.033   6.656   6.791  0.9412 -0.1995  0.8607
  165SAPE   C2318560   4.591   5.939   7.100  0.0047  0.7068  0.0193
  165SAPE   H3R18561   4.551   5.857   7.037  1.6833 -0.8353  0.8269
  165SAPE   H3S18562   4.536   5.934   7.196 -0.8621 -0.8402 -0.5249
  165SAPE   C2418563   4.735   5.890   7.139 -0.1167 -0.0493 -0.2793
  165SAPE   H4R18564   4.796   5.862   7.050 -0.9473 -3.6831  0.1421
  165SAPE   H4S18565   4.721   5.801   7.203 -1.4220  0.1083 -0.3126
  165SAPE   C2518566   4.815   5.993   7.217 -0.5849  0.0801  0.1998
  165SAPE   H5R18567   4.874   6.064   7.157 -1.4483 -0.1878 -1.0086
  165SAPE   C2618568   4.799   6.019   7.350  0.4832 -0.2066 -0.7639
  165SAPE   H6R18569   4.837   6.111   7.397  0.5548 -1.4484  1.7648
  165SAPE   C2718570   4.699   5.958   7.448  0.2069 -0.1878  0.2340
  165SAPE   H7R18571   4.645   5.872   7.404 -0.7535  1.5162 -2.1319
  165SAPE   H7S18572   4.624   6.039   7.460  1.4154  0.8265  1.3648
  165SAPE   C2818573   4.737   5.903   7.584 -0.9702 -0.4044  0.3463
  165SAPE   H8R18574   4.837   5.857   7.585 -0.7732  0.0051 -0.1005
  165SAPE   C2918575   4.667   5.907   7.699  0.0803  0.2052 -0.6885
  165SAPE   H9R18576   4.713   5.842   7.775  2.4403  1.8689 -0.5491
  165SAPE  C21018577   4.532   5.965   7.710  0.0693 -0.5033  0.3824
  165SAPE  H10R18578   4.469   5.908   7.781 -0.0901 -2.0936 -0.9715
  165SAPE  H10S18579   4.469   5.948   7.620 -0.2919 -0.5475  0.6445
  165SAPE  C21118580   4.532   6.111   7.753  0.1365  0.0411  0.1190
  165SAPE  H11R18581   4.574   6.180   7.679 -0.4340 -0.8961 -1.1138
  165SAPE  C21218582   4.484   6.166   7.865  0.0810  0.0421 -0.5377
  165SAPE  H12R18583   4.493   6.275   7.868  1.1652 -0.0494  1.5196
  165SAPE  C21318584   4.426   6.087   7.978  0.2077  0.4674  0.0473
  165SAPE  H13R18585   4.502   6.008   7.996 -0.6635 -0.7670 -1.4679
  165SAPE  H13S18586   4.339   6.030   7.939 -0.2504  1.8123 -0.9784
  165SAPE  C21418587   4.389   6.170   8.104  0.2232  0.1722 -0.1808
  165SAPE  H14R18588   4.375   6.279   8.092 -3.2107 -0.0194  1.0034
  165SAPE  C21518589   4.391   6.142   8.233  0.2937  0.8535  0.7136
  165SAPE  H15R18590   4.345   6.218   8.299  0.1219  1.1500  0.2586
  165SAPE  C21618591   4.424   6.005   8.299 -0.4035 -0.5676  0.3617
  165SAPE  H16R18592   4.525   6.005   8.344 -0.1761  0.0956 -0.1342
  165SAPE  H16S18593   4.416   5.921   8.228  0.3751 -0.0618 -0.3437
  165SAPE  C21718594   4.319   5.973   8.403 -0.9592  0.3696 -0.4818
  165SAPE  H17R18595   4.321   6.054   8.479  1.9344 -0.1161  0.1047
  165SAPE  H17S18596   4.352   5.884   8.461 -0.7914  0.3276 -0.6408
  165SAPE  C21818597   4.183   5.933   8.358 -0.1623 -0.2350  0.4762
  165SAPE  H18R18598   4.198   5.849   8.288 -2.1607 -2.4867  2.5679
  165SAPE  H18S18599   4.135   6.019   8.305 -0.8360 -0.7263  0.2821
  165SAPE  C21918600   4.093   5.882   8.469  0.2866  0.2649  0.0408
  165SAPE  H19R18601   4.070   5.959   8.546 -1.9617 -1.3810  1.1529
  165SAPE  H19S18602   4.148   5.796   8.515  0.1241 -0.1414 -0.5145
  165SAPE  C22018603   3.964   5.828   8.418  0.7851 -0.0894  0.3870
  165SAPE  H20R18604   3.912   5.903   8.354 -1.2632 -2.8681 -1.3974
  165SAPE  H20S18605   3.900   5.778   8.494  0.8427 -1.9692 -0.7505
  165SAPE  H20T18606   3.987   5.747   8.346 -0.3199 -0.9579  0.9810
  165SAPE   C3318607   5.056   6.525   6.964 -0.3223  0.4021 -0.1014
  165SAPE   H3X18608   5.145   6.585   6.993 -0.5604  0.2491  0.9752
  165SAPE   H3Y18609   5.101   6.441   6.907 -1.6388  0.2109 -0.8884
  165SAPE   C3418610   4.987   6.477   7.094  0.3189  0.3033  0.0551
  165SAPE   H4X18611   4.893   6.420   7.082  0.7386 -0.8635  1.8990
  165SAPE   H4Y18612   4.962   6.569   7.150 -1.0795  0.4366 -0.7436
  165SAPE   C3518613   5.073   6.389   7.190 -0.6170  0.0782  0.1182
  165SAPE   H5X18614   5.158   6.450   7.226 -1.3691  1.5974 -0.5604
  165SAPE   H5Y18615   5.119   6.303   7.136 -0.2916  0.4283 -0.1756
  165SAPE   C3618616   4.981   6.335   7.299  0.1462 -0.3843 -0.1064
  165SAPE   H6X18617   5.042   6.264   7.359  1.6353  0.5287 -0.4996
  165SAPE   H6Y18618   4.883   6.290   7.274 -0.1595 -0.1884  0.6949
  165SAPE   C3718619   4.945   6.452   7.398  0.7319  0.2836  0.3475
  165SAPE   H7X18620   4.848   6.495   7.364  1.7760  1.0939 -1.7430
  165SAPE   H7Y18621   5.025   6.529   7.391  1.7737 -0.7278  0.8143
  165SAPE   C3818622   4.928   6.407   7.548  0.5351  0.1505 -0.2198
  165SAPE   H8X18623   4.871   6.313   7.535 -1.0445  1.4494 -4.3077
  165SAPE   H8Y18624   4.871   6.480   7.610  0.5539  1.2399 -1.4452
  165SAPE   C3918625   5.053   6.375   7.618 -0.2053 -0.2465 -0.7484
  165SAPE   H9X18626   5.108   6.469   7.637 -0.2780 -0.5309  1.0432
  165SAPE   H9Y18627   5.104   6.302   7.552 -0.9343 -2.1001  0.6453
  165SAPE  C31018628   5.047   6.307   7.757 -0.2213  0.4260 -0.4584
  165SAPE  H10X18629   5.152   6.308   7.793 -0.7146  2.9256  1.1195
  165SAPE  H10Y18630   5.026   6.199   7.743  2.6467 -0.0996 -1.5189
  165SAPE  C31118631   4.956   6.366   7.861 -0.9345 -0.3303 -0.4541
  165SAPE  H11X18632   4.847   6.349   7.851 -1.4304  2.2401 -0.1001
  165SAPE  H11Y18633   4.972   6.474   7.884 -1.1560 -0.1930 -0.9374
  165SAPE  C31218634   4.997   6.299   7.995  0.1924 -0.0736  0.6280
  165SAPE  H12X18635   5.103   6.319   8.019  0.4422 -1.1632  0.4622
  165SAPE  H12Y18636   4.994   6.189   7.980  0.7624 -0.1056  0.7422
  165SAPE  C31318637   4.904   6.330   8.109 -0.3569  0.2778 -0.5245
  165SAPE  H13X18638   4.802   6.316   8.067  0.2448 -0.9835 -1.6426
  165SAPE  H13Y18639   4.920   6.436   8.137 -1.1656  0.7667 -1.8115
  165SAPE  C31418640   4.910   6.243   8.237  0.2458  0.2736  0.3130
  165SAPE  H14X18641   5.014   6.261   8.272  0.9729  1.1146 -2.0824
  165SAPE  H14Y18642   4.904   6.136   8.205  1.1059  0.8954 -2.1778
  165SAPE  C31518643   4.789   6.280   8.329  0.9298 -0.8469  0.1675
  165SAPE  H15X18644   4.700   6.271   8.265  1.8890 -1.5702 -1.1108
  165SAPE  H15Y18645   4.793   6.390   8.348  2.0320  0.0349 -4.1106
  165SAPE  C31618646   4.773   6.200   8.461 -0.5381  0.7503 -0.3545
  165SAPE  H16X18647   4.874   6.202   8.507  0.6328 -2.0077 -2.5065
  165SAPE  H16Y18648   4.753   6.092   8.444  2.0488 -0.1357  1.4800
  165SAPE  C31718649   4.663   6.246   8.562 -0.4514  0.0516  0.2715
  165SAPE  H17X18650   4.564   6.261   8.513 -0.5159 -0.9366  0.0698
  165SAPE  H17Y18651   4.687   6.349   8.594 -0.2879 -0.1639  0.8500
  165SAPE  C31818652   4.656   6.154   8.690 -0.0300  0.6667  0.2874
  165SAPE  H18X18653   4.594   6.066   8.663  0.7746  0.3933 -0.7627
  165SAPE  H18Y18654   4.618   6.208   8.779  1.5109  0.2452  1.2425
  165SAPE  H18Z18655   4.750   6.105   8.725 -0.5463 -1.6880 -1.3464
  166SAPE     N18656   3.419   2.257   5.611 -0.3897  0.0194  0.5941
  166SAPE   HN118657   3.337   2.208   5.569 -0.4756  0.4169  0.2920
  166SAPE   HN218658   3.496   2.242   5.543 -2.1860 -0.5880 -1.4386
  166SAPE   HN318659   3.443   2.207   5.699  1.8843 -1.8844 -0.9700
  166SAPE   C1218660   3.380   2.399   5.651  0.1517 -0.0003 -0.2587
  166SAPE  H12A18661   3.278   2.393   5.694  0.1291  0.3547 -0.2594
  166SAPE  H12B18662   3.366   2.455   5.556  1.1379 -1.4446 -1.2975
  166SAPE   C1118663   3.475   2.472   5.747  0.2580  0.5196  0.0398
  166SAPE  H11A18664   3.440   2.576   5.765  2.1552  1.1548  0.2765
  166SAPE  H11B18665   3.577   2.470   5.702 -1.2467 -1.6199 -3.8003
  166SAPE     P18666   3.475   2.458   6.005  0.1108  0.0365  0.4634
  166SAPE   O1318667   3.608   2.489   6.060  0.1234  0.3097 -0.1621
  166SAPE   O1418668   3.385   2.577   5.999 -0.1053  0.1478  0.2657
  166SAPE   O1218669   3.487   2.394   5.865  0.1798 -0.6023 -0.3348
  166SAPE   O1118670   3.411   2.355   6.101 -0.5346 -0.4049  0.8509
  166SAPE    C118671   3.473   2.241   6.149  0.3219 -0.3856 -0.7385
  166SAPE    HA18672   3.420   2.155   6.103  1.1440 -0.2711 -1.9481
  166SAPE    HB18673   3.578   2.234   6.111  0.4014  3.4466 -1.6203
  166SAPE    C218674   3.454   2.242   6.300  0.5446 -0.0788 -0.3040
  166SAPE    HS18675   3.352   2.283   6.314  1.2709  1.8263 -0.2933
  166SAPE   O2118676   3.546   2.325   6.374 -0.1049  0.1428  0.3103
  166SAPE   C2118677   3.677   2.289   6.372 -0.0131 -0.3405 -0.7910
  166SAPE   O2218678   3.735   2.200   6.314  0.0258 -0.3881  0.2155
  166SAPE   C2218679   3.743   2.385   6.483  0.8661 -0.1713  0.7577
  166SAPE   H2R18680   3.771   2.474   6.423  2.9708 -0.9418  0.4934
  166SAPE   H2S18681   3.668   2.408   6.561 -0.6050  1.9445 -1.1354
  166SAPE    C318682   3.453   2.105   6.372  0.2709 -0.3018  0.0851
  166SAPE    HX18683   3.541   2.050   6.333  2.1030  1.6275  1.2830
  166SAPE    HY18684   3.373   2.038   6.332 -1.5787  2.8350 -1.8521
  166SAPE   O3118685   3.457   2.109   6.517 -0.4546  0.2877  0.0652
  166SAPE   C3118686   3.353   2.147   6.580 -0.5946 -0.4717 -0.5426
  166SAPE   O3218687   3.248   2.173   6.528  0.2610  0.2871  0.0337
  166SAPE   C3218688   3.392   2.171   6.729 -0.4257  0.1357  0.3053
  166SAPE   H2X18689   3.370   2.076   6.782 -1.9424 -1.1045 -2.3175
  166SAPE   H2Y18690   3.314   2.241   6.767  1.0700  0.7887  2.2911
  166SAPE   C2318691   3.858   2.324   6.544 -0.7785  1.0107 -0.9816
  166SAPE   H3R18692   3.939   2.291   6.476 -0.3508  1.1851 -0.5607
  166SAPE   H3S18693   3.822   2.237   6.604  1.3206  0.1430 -0.8794
  166SAPE   C2418694   3.929   2.418   6.645 -0.1384  0.3180  0.6666
  166SAPE   H4R18695   3.858   2.451   6.724 -0.9257  2.7968 -0.9891
  166SAPE   H4S18696   3.965   2.503   6.584 -1.1290  0.3211  0.0656
  166SAPE   C2518697   4.047   2.340   6.713  0.8364 -0.2839  0.0121
  166SAPE   H5R18698   4.055   2.232   6.691 -0.2215 -0.5019  0.6432
  166SAPE   C2618699   4.141   2.400   6.792 -0.4899 -0.2515  0.7039
  166SAPE   H6R18700   4.213   2.343   6.851 -1.9854 -3.5788 -0.4701
  166SAPE   C2718701   4.146   2.546   6.818 -0.2438 -0.3050 -0.3664
  166SAPE   H7R18702   4.064   2.611   6.780  0.4064  0.6161 -0.2539
  166SAPE   H7S18703   4.239   2.583   6.768  0.4841 -3.0353 -1.1846
  166SAPE   C2818704   4.163   2.586   6.961  0.4353  0.4233 -0.0201
  166SAPE   H8R18705   4.066   2.601   7.011  0.8315  0.1313  0.8675
  166SAPE   C2918706   4.274   2.615   7.028 -0.7626 -0.0103  0.3152
  166SAPE   H9R18707   4.268   2.652   7.132 -0.8817  0.6348  0.0811
  166SAPE  C21018708   4.418   2.611   6.970  0.6901  0.0290 -0.0141
  166SAPE  H10R18709   4.480   2.678   7.035  1.1036 -1.7621  1.5187
  166SAPE  H10S18710   4.416   2.668   6.875 -1.3155  1.4623  0.8134
  166SAPE  C21118711   4.480   2.474   6.962 -0.5462 -0.3492 -0.0117
  166SAPE  H11R18712   4.463   2.420   6.868  2.2967  0.9097 -1.3824
  166SAPE  C21218713   4.531   2.409   7.068 -0.9065 -0.0260 -0.0001
  166SAPE  H12R18714   4.580   2.312   7.060 -0.2621  0.4118 -2.2464
  166SAPE  C21318715   4.553   2.472   7.205 -0.2478 -0.5084 -0.6256
  166SAPE  H13R18716   4.542   2.393   7.282  1.1488 -1.2084 -1.0946
  166SAPE  H13S18717   4.472   2.545   7.225  0.6834  0.0866  1.1762
  166SAPE  C21418718   4.678   2.556   7.230 -0.3166 -0.1399  0.1197
  166SAPE  H14R18719   4.698   2.642   7.163  0.2197 -2.0927 -2.3673
  166SAPE  C21518720   4.766   2.526   7.326  0.3687 -0.5830  0.6044
  166SAPE  H15R18721   4.839   2.602   7.357 -0.0728 -0.0993  0.4594
  166SAPE  C21618722   4.756   2.408   7.419  0.8163 -0.1391 -0.4420
  166SAPE  H16R18723   4.861   2.391   7.453  0.5801  1.3515  1.2081
  166SAPE  H16S18724   4.725   2.311   7.377 -0.2332 -0.3112  0.6818
  166SAPE  C21718725   4.691   2.434   7.550  0.4643 -0.1263 -0.3309
  166SAPE  H17R18726   4.587   2.463   7.523  0.9411  3.1272  0.9242
  166SAPE  H17S18727   4.742   2.512   7.609 -0.3698 -0.7359  1.2603
  166SAPE  C21818728   4.679   2.322   7.652  0.2382  1.4442  0.1971
  166SAPE  H18R18729   4.635   2.233   7.601  3.1161  1.3956 -2.5079
  166SAPE  H18S18730   4.605   2.352   7.729 -1.3489 -0.4739 -0.4727
  166SAPE  C21918731   4.820   2.287   7.716  0.0481  0.0272 -0.1484
  166SAPE  H19R18732   4.886   2.249   7.635  1.0982  0.7878  0.3321
  166SAPE  H19S18733   4.792   2.207   7.788  0.7469 -0.2235 -0.1485
  166SAPE  C22018734   4.888   2.395   7.788 -0.1837 -0.6349 -0.7094
  166SAPE  H20R18735   4.953   2.351   7.867 -1.1079  0.5719  0.7835
  166SAPE  H20S18736   4.808   2.460   7.829  0.9059 -0.3008  0.9878
  166SAPE  H20T18737   4.945   2.453   7.713  0.3467  0.5044  0.5317
  166SAPE   C3318738   3.534   2.229   6.752  0.9324 -0.0588  0.1111
  166SAPE   H3X18739   3.542   2.330   6.707 -1.1576 -0.3149 -0.9635
  166SAPE   H3Y18740   3.607   2.168   6.695  0.3394  0.3073 -1.0725
  166SAPE   C3418741   3.576   2.222   6.898  0.6653 -0.2105 -0.0547
  166SAPE   H4X18742   3.588   2.114   6.920 -1.8247 -0.2318  1.5806
  166SAPE   H4Y18743   3.493   2.263   6.960  1.4101  0.0256  0.8071
  166SAPE   C3518744   3.714   2.277   6.926  0.3232 -0.5307 -0.0928
  166SAPE   H5X18745   3.702   2.388   6.934 -1.4346 -0.7041  0.2325
  166SAPE   H5Y18746   3.785   2.243   6.848 -1.2294  0.4491 -2.0232
  166SAPE   C3618747   3.767   2.240   7.068  0.5121 -0.2395  0.5913
  166SAPE   H6X18748   3.774   2.129   7.076 -0.8411 -0.3032  1.1149
  166SAPE   H6Y18749   3.678   2.265   7.130  0.3733 -0.8697  0.6533
  166SAPE   C3718750   3.890   2.317   7.113 -0.0930  0.9590 -0.1006
  166SAPE   H7X18751   3.876   2.425   7.091  0.8335  1.5708  2.0646
  166SAPE   H7Y18752   3.969   2.275   7.047 -0.1214 -2.6625  1.9626
  166SAPE   C3818753   3.925   2.289   7.257  0.1265 -0.2799  0.1432
  166SAPE   H8X18754   3.888   2.196   7.304  1.9801 -1.4647 -0.6448
  166SAPE   H8Y18755   3.866   2.369   7.307 -3.0774 -1.9397 -0.6703
  166SAPE   C3918756   4.077   2.299   7.292  1.1014 -0.1796  0.2818
  166SAPE   H9X18757   4.126   2.383   7.240  0.9357 -0.5308 -0.4554
  166SAPE   H9Y18758   4.115   2.198   7.264 -0.7174 -0.8751  0.1499
  166SAPE  C31018759   4.108   2.317   7.435  0.5345 -0.5683 -0.6484
  166SAPE  H10X18760   4.048   2.250   7.499 -1.8177  1.4563 -0.5586
  166SAPE  H10Y18761   4.060   2.410   7.474 -1.1292 -2.7219  2.9181
  166SAPE  C31118762   4.257   2.311   7.464 -0.1671  0.1528 -0.4527
  166SAPE  H11X18763   4.318   2.368   7.391  1.1123  0.2871  0.6776
  166SAPE  H11Y18764   4.287   2.204   7.454 -1.6928 -0.6464  2.4266
  166SAPE  C31218765   4.286   2.363   7.603  0.3334  0.2508  0.3187
  166SAPE  H12X18766   4.238   2.462   7.620 -0.5395 -0.3211  1.3176
  166SAPE  H12Y18767   4.395   2.380   7.614 -0.0830  3.6126  0.3988
  166SAPE  C31318768   4.239   2.270   7.714  0.2139 -0.4120  0.2812
  166SAPE  H13X18769   4.277   2.166   7.705  0.1028 -0.3464 -1.0313
  166SAPE  H13Y18770   4.131   2.264   7.690  0.6997 -1.4830 -1.8018
  166SAPE  C31418771   4.268   2.321   7.855 -0.0497  0.9043 -0.6832
  166SAPE  H14X18772   4.203   2.411   7.860  0.3964  1.1687  3.5025
  166SAPE  H14Y18773   4.373   2.357   7.867  0.6323 -0.9379 -0.8617
  166SAPE  C31518774   4.239   2.209   7.965 -0.1787  0.8384 -0.3978
  166SAPE  H15X18775   4.225   2.265   8.060 -1.8765  1.1438 -0.7869
  166SAPE  H15Y18776   4.334   2.153   7.976  0.1251  1.5527  0.8502
  166SAPE  C31618777   4.112   2.128   7.952  0.6088 -0.3528  0.8679
  166SAPE  H16X18778   4.132   2.057   7.869 -2.1699 -0.8665  0.5287
  166SAPE  H16Y18779   4.034   2.202   7.923  1.5125 -0.0973 -1.0353
  166SAPE  C31718780   4.080   2.040   8.074  0.7575  0.0060  0.0516
  166SAPE  H17X18781   4.000   1.970   8.041 -0.2841 -0.1427  2.6594
  166SAPE  H17Y18782   4.045   2.104   8.158  0.8075  0.4469 -0.2620
  166SAPE  C31818783   4.202   1.973   8.135 -0.0890 -0.3894 -0.1769
  166SAPE  H18X18784   4.253   1.929   8.046  0.2097  0.9555 -0.6891
  166SAPE  H18Y18785   4.176   1.889   8.203  3.5556 -0.6624  1.1245
  166SAPE  H18Z18786   4.280   2.036   8.183 -0.2827 -0.9304  0.8797
  167SAPE     N18787   6.005   4.241   6.296 -0.0194  0.7465 -0.2969
  167SAPE   HN118788   5.902   4.253   6.304 -0.3265 -0.8401 -1.6175
  167SAPE   HN218789   6.044   4.337   6.284  0.3603  0.5188 -0.8930
  167SAPE   HN318790   6.033   4.180   6.217 -0.8945 -3.1011  2.1224
  167SAPE   C1218791   6.058   4.177   6.426  0.9088  0.4595 -0.2629
  167SAPE  H12A18792   6.033   4.249   6.507  0.5874  1.1278 -0.9418
  167SAPE  H12B18793   6.168   4.176   6.410  0.6190 -0.9265 -2.7641
  167SAPE   C1118794   5.989   4.036   6.451  0.3476  0.2236 -0.1180
  167SAPE  H11A18795   5.880   4.054   6.458  0.7889  3.0955  1.0220
  167SAPE  H11B18796   6.013   4.006   6.556 -0.8878 -0.5821 -0.0489
  167SAPE     P18797   6.170   3.870   6.343 -0.0700 -0.1757  0.2194
  167SAPE   O1318798   6.184   3.755   6.248 -0.0059 -0.2848  0.3024
  167SAPE   O1418799   6.267   3.978   6.314 -0.3379 -0.3298  0.6869
  167SAPE   O1218800   6.029   3.942   6.348  0.4475 -0.0427 -0.7458
  167SAPE   O1118801   6.197   3.823   6.488  0.2467 -0.2120  0.2879
  167SAPE    C118802   6.123   3.732   6.563 -0.5444  0.0952  0.1725
  167SAPE    HA18803   6.037   3.783   6.612 -1.8765  0.0851 -1.9976
  167SAPE    HB18804   6.081   3.656   6.494 -1.1122  2.4608 -2.2410
  167SAPE    C218805   6.208   3.663   6.664 -0.1611  0.2719 -0.2139
  167SAPE    HS18806   6.147   3.581   6.708  0.8265  0.2623  1.2433
  167SAPE   O2118807   6.248   3.764   6.767  0.0148 -0.3128 -0.2060
  167SAPE   C2118808   6.262   3.716   6.890 -0.3499  0.4305 -0.0635
  167SAPE   O2218809   6.227   3.611   6.938 -0.8728  0.1537 -0.0164
  167SAPE   C2218810   6.332   3.821   6.976 -0.8099  0.0220  0.7074
  167SAPE   H2R18811   6.442   3.824   6.959 -0.6338  0.6651  1.8922
  167SAPE   H2S18812   6.290   3.916   6.936 -0.2893  0.1215  0.3854
  167SAPE    C318813   6.331   3.605   6.593 -0.7422 -0.9010  0.0602
  167SAPE    HX18814   6.387   3.700   6.580 -0.8117 -0.9850 -0.9996
  167SAPE    HY18815   6.296   3.557   6.499 -3.7846 -1.2462  1.2587
  167SAPE   O3118816   6.405   3.515   6.677 -0.0730 -0.2952  0.7251
  167SAPE   C3118817   6.371   3.390   6.677 -0.3933  0.3848  0.6162
  167SAPE   O3218818   6.295   3.340   6.596 -0.0032  0.0408  0.1097
  167SAPE   C3218819   6.454   3.320   6.778  0.7293  0.4594  0.3103
  167SAPE   H2X18820   6.473   3.383   6.867 -1.1390  1.3184  0.1421
  167SAPE   H2Y18821   6.555   3.307   6.734 -0.3623 -2.1989 -1.7023
  167SAPE   C2318822   6.319   3.798   7.132  0.1325  0.1039  0.1537
  167SAPE   H3R18823   6.377   3.709   7.163 -0.5562 -0.4644 -0.1472
  167SAPE   H3S18824   6.211   3.780   7.151  0.6288 -2.5987  0.9047
  167SAPE   C2418825   6.353   3.926   7.211 -0.3466  0.4174  0.0302
  167SAPE   H4R18826   6.460   3.944   7.186  0.3093  0.3662  2.5362
  167SAPE   H4S18827   6.344   3.895   7.317  2.2309 -2.3758 -0.4212
  167SAPE   C2518828   6.263   4.042   7.170 -0.2933 -0.2032 -0.1199
  167SAPE   H5R18829   6.187   4.017   7.094 -0.5802 -0.6416  0.2988
  167SAPE   C2618830   6.282   4.168   7.211  0.1988  0.0484 -0.4261
  167SAPE   H6R18831   6.207   4.242   7.180 -0.7796 -0.1449  1.3006
  167SAPE   C2718832   6.381   4.223   7.311 -0.8846 -0.0336 -0.0143
  167SAPE   H7R18833   6.485   4.212   7.276 -0.9877 -1.5495  0.0709
  167SAPE   H7S18834   6.381   4.160   7.403  1.2192  0.2406  0.2170
  167SAPE   C2818835   6.359   4.365   7.364  0.5331  0.0990  0.2852
  167SAPE   H8R18836   6.423   4.448   7.332 -0.6680  1.9992  2.5765
  167SAPE   C2918837   6.271   4.405   7.456 -0.0547 -0.2290  0.1023
  167SAPE   H9R18838   6.257   4.513   7.471  0.4543  0.3652 -3.0113
  167SAPE  C21018839   6.177   4.301   7.517 -0.2895  0.2790 -0.2571
  167SAPE  H10R18840   6.219   4.261   7.612 -1.0967  1.9427  0.8422
  167SAPE  H10S18841   6.148   4.216   7.452  0.7001 -0.9378  0.8329
  167SAPE  C21118842   6.063   4.381   7.571 -0.0936  0.6541 -0.1062
  167SAPE  H11R18843   5.993   4.419   7.494 -0.6878 -0.6763 -0.2502
  167SAPE  C21218844   6.027   4.399   7.707 -0.1895 -0.5220 -0.1668
  167SAPE  H12R18845   5.944   4.463   7.739 -1.6829 -1.6393 -1.6454
  167SAPE  C21318846   6.098   4.349   7.828  0.2782  0.4553 -0.3758
  167SAPE  H13R18847   6.161   4.260   7.808  1.3604  1.3062 -0.8887
  167SAPE  H13S18848   6.026   4.317   7.907  0.4737 -0.7993 -0.6842
  167SAPE  C21418849   6.178   4.463   7.884 -0.5132  0.9647  0.1138
  167SAPE  H14R18850   6.282   4.469   7.849 -0.3716 -3.3780 -0.7028
  167SAPE  C21518851   6.138   4.533   7.992 -0.4018  0.7067 -0.4921
  167SAPE  H15R18852   6.203   4.619   8.015  1.2988 -0.6839  0.1346
  167SAPE  C21618853   6.004   4.536   8.069  0.1998  0.0696 -1.2004
  167SAPE  H16R18854   5.907   4.531   8.015 -0.9977 -2.4277  0.9449
  167SAPE  H16S18855   5.986   4.640   8.104  0.6794 -0.3636  0.4369
  167SAPE  C21718856   5.997   4.439   8.184 -0.2843  0.0607 -0.3851
  167SAPE  H17R18857   6.033   4.341   8.147  0.2798  0.7853 -1.8403
  167SAPE  H17S18858   5.895   4.417   8.222 -0.0157 -0.3456  0.0936
  167SAPE  C21818859   6.097   4.477   8.298  1.0445  0.1641  0.0999
  167SAPE  H18R18860   6.095   4.587   8.314  0.0892 -0.0505  1.6195
  167SAPE  H18S18861   6.200   4.455   8.264  0.1482 -0.2735 -2.5676
  167SAPE  C21918862   6.079   4.421   8.441  0.1243 -0.5494 -0.2961
  167SAPE  H19R18863   6.171   4.457   8.494  0.5449 -1.7157 -0.1979
  167SAPE  H19S18864   6.076   4.310   8.447 -2.3430 -0.4689  2.0347
  167SAPE  C22018865   5.960   4.485   8.516 -0.4808 -0.5085 -0.4795
  167SAPE  H20R18866   5.967   4.595   8.504  1.0210 -0.6157 -0.8484
  167SAPE  H20S18867   5.971   4.453   8.622  2.4941  1.1696 -0.1558
  167SAPE  H20T18868   5.860   4.451   8.482 -0.8181 -0.8426  0.8067
  167SAPE   C3318869   6.397   3.182   6.813 -0.3436 -0.0711 -0.6080
  167SAPE   H3X18870   6.404   3.115   6.725 -2.2130 -1.5296  0.2686
  167SAPE   H3Y18871   6.294   3.189   6.854  0.5570 -0.0849  1.8222
  167SAPE   C3418872   6.482   3.118   6.931  0.8078  0.3477 -0.1465
  167SAPE   H4X18873   6.450   3.012   6.938 -2.6797  1.2700 -0.2839
  167SAPE   H4Y18874   6.459   3.158   7.032  0.9066 -3.6802  1.6787
  167SAPE   C3518875   6.639   3.112   6.925 -0.0591  0.3348 -0.6899
  167SAPE   H5X18876   6.679   3.213   6.899 -1.6098  1.3946  0.8386
  167SAPE   H5Y18877   6.674   3.046   6.842 -0.6128 -0.0537 -0.6151
  167SAPE   C3618878   6.710   3.058   7.053 -0.3302 -0.4010  0.1180
  167SAPE   H6X18879   6.816   3.040   7.025 -0.5639  0.5237 -1.5180
  167SAPE   H6Y18880   6.665   2.958   7.069 -2.4719  0.7557  1.9499
  167SAPE   C3718881   6.704   3.152   7.173  0.1184  0.5091  0.1318
  167SAPE   H7X18882   6.603   3.195   7.193 -0.7613 -0.5759 -1.7216
  167SAPE   H7Y18883   6.765   3.242   7.151  1.0678 -0.5685 -1.9076
  167SAPE   C3818884   6.767   3.089   7.304  0.2181 -0.3464  0.5449
  167SAPE   H8X18885   6.777   3.178   7.369 -0.3641  2.5497 -2.9940
  167SAPE   H8Y18886   6.865   3.046   7.273  0.3042  0.7247 -0.7680
  167SAPE   C3918887   6.673   2.989   7.379 -0.0183  0.3945 -0.2573
  167SAPE   H9X18888   6.639   2.919   7.300  1.4595 -1.1096  0.3866
  167SAPE   H9Y18889   6.579   3.036   7.416  0.9859  0.6823  2.1296
  167SAPE  C31018890   6.745   2.921   7.495  0.3774 -0.3139 -0.0602
  167SAPE  H10X18891   6.838   2.864   7.470 -1.4744 -1.9219 -4.1841
  167SAPE  H10Y18892   6.677   2.842   7.533  0.7496 -1.1821 -1.1160
  167SAPE  C31118893   6.769   3.019   7.606 -0.2278 -0.4031 -0.2421
  167SAPE  H11X18894   6.669   3.061   7.629 -0.1511 -0.1564 -0.3594
  167SAPE  H11Y18895   6.846   3.097   7.590 -0.2224 -0.3158  0.1992
  167SAPE  C31218896   6.806   2.939   7.737 -0.0611 -0.4138 -0.1132
  167SAPE  H12X18897   6.887   2.866   7.717  0.6022  0.7181 -1.7185
  167SAPE  H12Y18898   6.715   2.886   7.774 -0.1902 -0.6904 -0.8141
  167SAPE  C31318899   6.879   3.034   7.838  0.1182 -0.2940 -0.5857
  167SAPE  H13X18900   6.808   3.116   7.860  0.0158 -0.1016 -1.5874
  167SAPE  H13Y18901   6.968   3.083   7.793  0.2255  0.2884  0.2442
  167SAPE  C31418902   6.916   2.954   7.966  0.6453  0.5620  0.0821
  167SAPE  H14X18903   7.003   2.888   7.946 -1.6216 -1.7064 -3.4299
  167SAPE  H14Y18904   6.833   2.891   8.007  0.8578 -1.0844 -1.8407
  167SAPE  C31518905   6.948   3.042   8.085  0.2737  0.2611 -0.1841
  167SAPE  H15X18906   6.863   3.114   8.088  0.9634  1.1885 -1.7482
  167SAPE  H15Y18907   7.047   3.093   8.085  0.8628 -0.8328  0.4132
  167SAPE  C31618908   6.955   2.958   8.221 -0.9571  1.0945  0.0207
  167SAPE  H16X18909   6.873   2.883   8.215 -1.4666  1.7294 -1.7406
  167SAPE  H16Y18910   6.929   3.014   8.313  2.1105  0.5816  1.3606
  167SAPE  C31718911   7.087   2.880   8.245 -0.0213 -0.7032  0.0774
  167SAPE  H17X18912   7.158   2.944   8.302  1.1113 -1.0256 -0.9302
  167SAPE  H17Y18913   7.141   2.850   8.152 -0.9542 -3.5866  0.3727
  167SAPE  C31818914   7.057   2.756   8.330 -0.5251 -0.4131  0.1184
  167SAPE  H18X18915   7.019   2.667   8.275  1.7866 -0.9793 -0.6375
  167SAPE  H18Y18916   6.992   2.779   8.418 -1.2826  1.1438 -0.7964
  167SAPE  H18Z18917   7.150   2.717   8.376  1.0158  1.6094 -1.1333
  168SAPE     N18918   0.252   5.190   6.391  0.3178  0.7054 -0.0232
  168SAPE   HN118919   0.298   5.228   6.476  0.0344  1.4552 -0.2016
  168SAPE   HN218920   0.173   5.252   6.366 -1.0086 -0.4936  0.9925
  168SAPE   HN318921   0.202   5.104   6.421 -2.1363  2.2342  0.5439
  168SAPE   C1218922   0.349   5.179   6.273 -0.1222 -0.5113  0.0274
  168SAPE  H12A18923   0.373   5.279   6.230  2.0607 -1.0439 -0.1015
  168SAPE  H12B18924   0.293   5.121   6.196 -0.1693  0.1013 -0.4053
  168SAPE   C1118925   0.487   5.133   6.322 -0.0396 -0.3549  0.7085
  168SAPE  H11A18926   0.553   5.107   6.237 -0.8232 -0.6676  0.1804
  168SAPE  H11B18927   0.461   5.041   6.379  1.5633  0.0346  2.1431
  168SAPE     P18928   0.631   5.354   6.372 -0.2646  0.2066 -0.1197
  168SAPE   O1318929   0.663   5.354   6.231 -0.6589 -0.3180 -0.1547
  168SAPE   O1418930   0.570   5.474   6.428  0.1991 -0.5754  0.2974
  168SAPE   O1218931   0.551   5.221   6.412  0.4975 -0.2435  0.5245
  168SAPE   O1118932   0.765   5.322   6.452  0.0359 -0.2572  0.7193
  168SAPE    C118933   0.819   5.186   6.454  0.0442 -0.1971  0.0368
  168SAPE    HA18934   0.809   5.119   6.366  2.8924  1.4762 -1.7421
  168SAPE    HB18935   0.928   5.202   6.466 -0.0610 -0.8795  2.2283
  168SAPE    C218936   0.770   5.104   6.575 -0.3033 -0.1185  0.1795
  168SAPE    HS18937   0.672   5.067   6.536  0.6541 -0.4265 -2.1194
  168SAPE   O2118938   0.763   5.195   6.689  0.6595 -0.5517 -0.0496
  168SAPE   C2118939   0.654   5.195   6.770  0.0008 -0.3286  0.1931
  168SAPE   O2218940   0.551   5.136   6.751  0.8060 -0.0498  0.1669
  168SAPE   C2218941   0.689   5.263   6.897 -0.4667  0.5544  0.4791
  168SAPE   H2R18942   0.790   5.222   6.917 -0.5861 -1.7836 -2.7808
  168SAPE   H2S18943   0.672   5.373   6.893  1.2160  0.9322  2.1697
  168SAPE    C318944   0.846   4.978   6.607 -0.4564 -0.0882 -0.2733
  168SAPE    HX18945   0.949   5.001   6.641 -0.5026  0.6664 -0.6198
  168SAPE    HY18946   0.873   4.927   6.512  1.6956 -0.1354  0.3189
  168SAPE   O3118947   0.773   4.877   6.686 -0.0836  0.1298 -0.0247
  168SAPE   C3118948   0.799   4.882   6.821  0.3448  0.1857  0.2765
  168SAPE   O3218949   0.880   4.954   6.870  0.5829 -0.0605  0.3154
  168SAPE   C3218950   0.708   4.780   6.897 -0.5108 -1.8487  0.3196
  168SAPE   H2X18951   0.712   4.677   6.856  2.1665 -1.7085  0.0438
  168SAPE   H2Y18952   0.602   4.812   6.903  0.1421  0.3959  1.2864
  168SAPE   C2318953   0.603   5.208   7.012 -0.3422 -0.2881  0.5483
  168SAPE   H3R18954   0.619   5.100   7.031  2.6981 -0.3168 -1.4547
  168SAPE   H3S18955   0.495   5.203   6.986 -1.2083 -2.4439  3.8672
  168SAPE   C2418956   0.622   5.283   7.144 -0.2672 -0.3219 -0.1571
  168SAPE   H4R18957   0.527   5.262   7.197 -1.6340  0.5120 -2.1298
  168SAPE   H4S18958   0.633   5.390   7.116  2.6156 -0.6332 -0.4429
  168SAPE   C2518959   0.752   5.236   7.212 -0.5673  0.3741 -0.6343
  168SAPE   H5R18960   0.843   5.264   7.158  0.5231  1.1757  1.5028
  168SAPE   C2618961   0.763   5.168   7.327 -0.1226  0.2702 -0.3851
  168SAPE   H6R18962   0.862   5.153   7.371 -0.1729 -0.8651 -0.6145
  168SAPE   C2718963   0.652   5.128   7.419  1.3143 -0.1046  0.3505
  168SAPE   H7R18964   0.651   5.020   7.446 -1.2240 -0.7186 -1.7256
  168SAPE   H7S18965   0.552   5.142   7.371  2.0263 -1.4450 -1.6638
  168SAPE   C2818966   0.644   5.216   7.539  0.2156 -0.7152 -0.1594
  168SAPE   H8R18967   0.613   5.320   7.523  1.1494 -0.2984  0.6641
  168SAPE   C2918968   0.663   5.180   7.668 -0.7258 -0.0444 -0.6604
  168SAPE   H9R18969   0.672   5.254   7.748  2.3200 -2.6001  1.6026
  168SAPE  C21018970   0.694   5.037   7.701 -0.1196  0.7153 -0.1903
  168SAPE  H10R18971   0.765   5.020   7.785  0.2626 -2.3352 -1.0027
  168SAPE  H10S18972   0.737   4.986   7.612  0.7488  0.9240  0.0996
  168SAPE  C21118973   0.564   4.964   7.735 -0.0909 -0.2006  0.3189
  168SAPE  H11R18974   0.497   4.942   7.650  0.1653  0.3854 -0.0467
  168SAPE  C21218975   0.522   4.915   7.855 -0.6449  1.0190 -0.3087
  168SAPE  H12R18976   0.424   4.866   7.848 -0.3954  0.7189 -1.9606
  168SAPE  C21318977   0.600   4.916   7.990 -0.6964  0.2627  0.9822
  168SAPE  H13R18978   0.705   4.881   7.986 -1.0959 -0.8656 -1.5257
  168SAPE  H13S18979   0.569   4.840   8.065 -0.8825  0.6465  1.2952
  168SAPE  C21418980   0.599   5.055   8.049 -0.6251 -0.5863  0.5144
  168SAPE  H14R18981   0.609   5.141   7.981 -1.0232  1.1830  2.5650
  168SAPE  C21518982   0.587   5.089   8.175  0.5800 -0.4823  0.0122
  168SAPE  H15R18983   0.581   5.196   8.200 -0.0982 -0.9613  2.0971
  168SAPE  C21618984   0.580   5.002   8.292  0.0756 -0.2173 -0.0947
  168SAPE  H16R18985   0.525   4.908   8.268 -0.9603  0.2175  0.4912
  168SAPE  H16S18986   0.538   5.051   8.382  1.4613 -1.5375  1.3386
  168SAPE  C21718987   0.728   4.969   8.331 -0.9648 -0.0530 -0.3439
  168SAPE  H17R18988   0.792   4.967   8.240 -1.3620 -0.4365 -0.6202
  168SAPE  H17S18989   0.712   4.864   8.366 -0.1104 -0.4368 -1.0706
  168SAPE  C21818990   0.792   5.049   8.447  0.4203 -0.7691 -0.7351
  168SAPE  H18R18991   0.725   5.055   8.536  3.2460  0.2436  1.4846
  168SAPE  H18S18992   0.813   5.151   8.407  0.4669 -0.9802 -1.2472
  168SAPE  C21918993   0.922   4.986   8.490 -0.1756 -0.3518  0.0001
  168SAPE  H19R18994   0.979   4.979   8.394 -1.4852  1.1591 -0.9293
  168SAPE  H19S18995   0.903   4.886   8.536  1.0871 -0.7755 -0.3484
  168SAPE  C22018996   1.002   5.069   8.596 -0.3617  0.2398  0.4703
  168SAPE  H20R18997   1.109   5.042   8.584 -0.3330 -0.5554  2.2734
  168SAPE  H20S18998   0.963   5.053   8.699 -2.8341  0.3285 -0.3825
  168SAPE  H20T18999   0.990   5.178   8.577 -1.3247 -0.3932 -3.2395
  168SAPE   C3319000   0.747   4.769   7.050 -0.5888  0.0511  0.0885
  168SAPE   H3X19001   0.765   4.874   7.084  1.0364 -0.4181  0.7728
  168SAPE   H3Y19002   0.838   4.705   7.053 -0.5646 -0.0275 -1.6587
  168SAPE   C3419003   0.650   4.682   7.133 -0.6148 -0.3714 -0.7736
  168SAPE   H4X19004   0.669   4.576   7.104  1.0319 -0.3081 -0.0413
  168SAPE   H4Y19005   0.548   4.721   7.112 -0.1667  0.2547 -1.8589
  168SAPE   C3519006   0.678   4.704   7.284 -0.1185 -0.1191  0.4410
  168SAPE   H5X19007   0.682   4.813   7.303 -1.5690 -0.0283  0.3873
  168SAPE   H5Y19008   0.780   4.667   7.305  2.7438  6.1732 -0.2695
  168SAPE   C3619009   0.573   4.637   7.380  0.2061 -0.1106 -0.2428
  168SAPE   H6X19010   0.542   4.539   7.338 -0.2128 -0.0530 -0.0729
  168SAPE   H6Y19011   0.481   4.699   7.388  1.9965  3.2402 -2.9096
  168SAPE   C3719012   0.634   4.607   7.515  0.5236  0.3732  0.7722
  168SAPE   H7X19013   0.673   4.701   7.558 -0.4901  1.5356 -0.7180
  168SAPE   H7Y19014   0.715   4.541   7.478  0.0536  1.6365 -2.9333
  168SAPE   C3819015   0.532   4.532   7.601  0.3380 -0.0964  0.2742
  168SAPE   H8X19016   0.516   4.423   7.594 -1.2417  0.1341 -0.1059
  168SAPE   H8Y19017   0.433   4.582   7.606  1.1346  1.9260 -2.1500
  168SAPE   C3919018   0.580   4.555   7.747 -0.0395 -0.0057  0.1208
  168SAPE   H9X19019   0.575   4.666   7.753  1.3892  0.0093  1.9572
  168SAPE   H9Y19020   0.687   4.529   7.762  0.2463  0.3016 -1.1978
  168SAPE  C31019021   0.472   4.505   7.839  0.3290 -1.2265  0.7321
  168SAPE  H10X19022   0.447   4.398   7.826  0.6210 -1.1066 -1.0344
  168SAPE  H10Y19023   0.374   4.551   7.816  0.7960  0.1901  1.4394
  168SAPE  C31119024   0.521   4.524   7.978 -0.1529  0.3547  0.4145
  168SAPE  H11X19025   0.581   4.616   7.996 -0.1716  0.7758 -1.5232
  168SAPE  H11Y19026   0.608   4.457   7.995  0.0982  1.1316  2.5996
  168SAPE  C31219027   0.424   4.492   8.089 -0.2723 -0.4430  0.0091
  168SAPE  H12X19028   0.368   4.400   8.062 -2.4025  0.4028  1.2993
  168SAPE  H12Y19029   0.350   4.574   8.086  1.1524  0.8872  0.0221
  168SAPE  C31319030   0.483   4.474   8.234  0.4602 -0.1977 -0.4260
  168SAPE  H13X19031   0.527   4.570   8.268 -1.6349  0.4287  0.6628
  168SAPE  H13Y19032   0.567   4.402   8.227  1.1683  0.6603 -1.0558
  168SAPE  C31419033   0.381   4.416   8.328  0.4528 -0.1493  0.6357
  168SAPE  H14X19034   0.435   4.406   8.424  1.3114  0.0929  0.1908
  168SAPE  H14Y19035   0.349   4.314   8.298 -0.8118  0.2133  0.6671
  168SAPE  C31519036   0.256   4.510   8.358 -1.3696 -0.3678  0.6594
  168SAPE  H15X19037   0.191   4.516   8.268 -2.1407  0.1162  1.2360
  168SAPE  H15Y19038   0.290   4.612   8.387 -1.1024 -0.3808  0.3959
  168SAPE  C31619039   0.167   4.448   8.466 -0.4951  0.3066  0.4456
  168SAPE  H16X19040   0.239   4.422   8.545 -1.0485 -2.5490  0.1065
  168SAPE  H16Y19041   0.123   4.355   8.423  0.5104  0.5628 -1.2280
  168SAPE  C31719042   0.056   4.537   8.498 -0.1164  0.1988  0.0855
  168SAPE  H17X19043   0.086   4.644   8.493 -0.5417  0.2854 -0.9778
  168SAPE  H17Y19044   0.018   4.512   8.599  0.7381 -1.0155  0.1299
  168SAPE  C31819045  -0.069   4.512   8.405  0.1394  0.6281  1.6699
  168SAPE  H18X19046  -0.028   4.530   8.303  0.5385 -2.1644  1.2397
  168SAPE  H18Y19047  -0.155   4.576   8.432 -0.0892  1.8668 -1.4966
  168SAPE  H18Z19048  -0.102   4.406   8.411  0.8379  0.2183 -0.6698
  169SAPE     N19049   5.094   6.332   6.464 -0.0042  0.2316  0.2573
  169SAPE   HN119050   5.180   6.323   6.521  0.7102  0.2542 -0.7865
  169SAPE   HN219051   5.017   6.368   6.524 -0.6355  0.6035 -0.7494
  169SAPE   HN319052   5.062   6.243   6.421 -3.2156 -0.3499  3.3872
  169SAPE   C1219053   5.118   6.449   6.377 -0.0578  0.0807  0.2896
  169SAPE  H12A19054   5.213   6.428   6.324 -1.0230 -2.2321 -0.6704
  169SAPE  H12B19055   5.139   6.534   6.445 -0.5292 -0.1122  0.6840
  169SAPE   C1119056   4.998   6.484   6.287 -0.6480  0.7105  0.8372
  169SAPE  H11A19057   4.967   6.411   6.209 -1.3302 -0.3452  2.0672
  169SAPE  H11B19058   5.030   6.583   6.248  0.7385  0.0989  0.3624
  169SAPE     P19059   4.782   6.623   6.336  0.1369 -0.3117  0.5139
  169SAPE   O1319060   4.751   6.634   6.185 -0.0455 -0.3150 -0.1240
  169SAPE   O1419061   4.665   6.624   6.433 -0.0334 -0.4197 -0.5536
  169SAPE   O1219062   4.883   6.502   6.363  0.1814 -0.2802  0.9153
  169SAPE   O1119063   4.877   6.740   6.352  0.4638  0.3358 -0.0104
  169SAPE    C119064   4.918   6.771   6.487 -0.2219 -0.1241 -0.0467
  169SAPE    HA19065   4.841   6.819   6.551  0.0108 -0.1342  0.2407
  169SAPE    HB19066   4.958   6.681   6.540  2.6276  0.6937 -0.6101
  169SAPE    C219067   5.038   6.874   6.492  0.1909 -0.2369  0.6375
  169SAPE    HS19068   5.097   6.858   6.400  0.4710  1.1206  0.5506
  169SAPE   O2119069   5.117   6.842   6.604  0.3694  0.0432  0.1247
  169SAPE   C2119070   5.237   6.892   6.605 -0.5404 -0.1268 -0.1932
  169SAPE   O2219071   5.288   6.953   6.510  0.4273 -0.0281 -0.7356
  169SAPE   C2219072   5.302   6.875   6.742  0.1462  0.3556  0.1903
  169SAPE   H2R19073   5.246   6.928   6.823 -1.6763 -1.4771  0.2353
  169SAPE   H2S19074   5.291   6.767   6.763 -0.3188 -0.4152 -3.4195
  169SAPE    C319075   4.991   7.016   6.494  0.8203 -0.4120 -0.2900
  169SAPE    HX19076   4.929   7.021   6.402  1.9739 -2.7537 -1.2622
  169SAPE    HY19077   5.070   7.091   6.471  0.7525 -0.1132  0.4264
  169SAPE   O3119078   4.910   7.049   6.608 -0.0426 -0.1570  0.2391
  169SAPE   C3119079   4.979   7.102   6.712 -0.8878  0.3324 -0.1649
  169SAPE   O3219080   5.102   7.119   6.710 -0.0780  0.5395  0.3812
  169SAPE   C3219081   4.877   7.145   6.813 -0.4709 -0.8761 -0.6410
  169SAPE   H2X19082   4.784   7.084   6.813 -0.5799 -0.7223 -1.5206
  169SAPE   H2Y19083   4.843   7.246   6.779 -3.9762 -1.1822  1.4363
  169SAPE   C2319084   5.442   6.933   6.749 -0.0243  0.0334 -0.9764
  169SAPE   H3R19085   5.448   7.041   6.726 -2.0623  0.3151 -0.3120
  169SAPE   H3S19086   5.506   6.876   6.678  0.0000 -0.7363 -0.3476
  169SAPE   C2419087   5.514   6.921   6.888  0.6039 -0.9762 -0.7630
  169SAPE   H4R19088   5.620   6.947   6.867  0.2241  2.6643  0.9401
  169SAPE   H4S19089   5.503   6.814   6.915 -3.3350 -0.6772 -0.6700
  169SAPE   C2519090   5.469   7.024   6.997 -0.1022  0.0877  0.3818
  169SAPE   H5R19091   5.390   7.087   6.952  0.4084 -0.0348 -0.7074
  169SAPE   C2619092   5.497   7.026   7.130 -0.1641  0.9644 -0.0313
  169SAPE   H6R19093   5.453   7.099   7.201 -0.5507 -0.2080  0.9590
  169SAPE   C2719094   5.587   6.918   7.189 -0.2785  0.2353 -0.6187
  169SAPE   H7R19095   5.687   6.946   7.151 -1.1692  2.5253 -1.4540
  169SAPE   H7S19096   5.549   6.825   7.141 -0.1319 -0.2536  0.1901
  169SAPE   C2819097   5.583   6.905   7.340 -0.7335  0.4861 -0.7849
  169SAPE   H8R19098   5.585   6.995   7.402 -0.7936 -0.7197  1.0492
  169SAPE   C2919099   5.585   6.791   7.408  0.7157 -0.3821  0.4319
  169SAPE   H9R19100   5.576   6.797   7.517  0.0544 -1.1730  0.4377
  169SAPE  C21019101   5.585   6.652   7.354  0.8856 -0.4490  0.1205
  169SAPE  H10R19102   5.658   6.609   7.426 -0.7512  1.6117  3.2200
  169SAPE  H10S19103   5.626   6.643   7.251  0.3741 -1.1449 -0.0319
  169SAPE  C21119104   5.445   6.587   7.353 -0.1049  0.2677  0.3409
  169SAPE  H11R19105   5.365   6.647   7.307 -0.7151 -0.5999  0.2451
  169SAPE  C21219106   5.396   6.469   7.400 -0.2898  0.4242  0.0363
  169SAPE  H12R19107   5.288   6.451   7.395 -0.6810  2.4240  0.4366
  169SAPE  C21319108   5.472   6.360   7.480 -0.2687 -0.3039  0.2763
  169SAPE  H13R19109   5.577   6.390   7.501 -0.5091  0.6504  0.1983
  169SAPE  H13S19110   5.487   6.275   7.411  0.9105  0.7403 -0.8040
  169SAPE  C21419111   5.411   6.323   7.611 -0.9038 -0.5123  0.1748
  169SAPE  H14R19112   5.384   6.217   7.621 -0.6554 -0.4595  1.5310
  169SAPE  C21519113   5.398   6.405   7.718  1.0339 -0.2985 -0.0461
  169SAPE  H15R19114   5.365   6.357   7.812 -0.0722  0.4962 -0.0185
  169SAPE  C21619115   5.421   6.557   7.738 -0.0928  0.0169 -1.3996
  169SAPE  H16R19116   5.335   6.626   7.720  0.1763  1.2224  1.3914
  169SAPE  H16S19117   5.511   6.589   7.680  0.5960 -0.4242 -0.6002
  169SAPE  C21719118   5.458   6.591   7.882 -0.4261  0.3068  0.0189
  169SAPE  H17R19119   5.486   6.698   7.884  0.8856 -0.0234  0.7756
  169SAPE  H17S19120   5.544   6.527   7.910  0.0442  0.8535 -0.1842
  169SAPE  C21819121   5.343   6.574   7.981 -0.1874  0.1982 -0.8469
  169SAPE  H18R19122   5.320   6.465   7.977  0.0241  0.1607 -1.0280
  169SAPE  H18S19123   5.253   6.629   7.944 -2.1029 -1.1188  1.5072
  169SAPE  C21919124   5.376   6.613   8.126 -0.3232  0.9680 -0.0424
  169SAPE  H19R19125   5.405   6.720   8.120 -0.5755  1.0450  0.0901
  169SAPE  H19S19126   5.457   6.547   8.164 -0.1531  1.8140  1.1010
  169SAPE  C22019127   5.254   6.602   8.225 -1.1104 -0.2716 -0.3455
  169SAPE  H20R19128   5.292   6.658   8.313 -0.4488  0.0304 -0.8169
  169SAPE  H20S19129   5.229   6.496   8.249 -3.3900  0.0560 -1.0194
  169SAPE  H20T19130   5.164   6.651   8.182 -0.4162  1.3112 -0.0429
  169SAPE   C3319131   4.924   7.157   6.962 -0.8532 -0.5107  0.3408
  169SAPE   H3X19132   4.845   7.174   7.038 -0.0008  2.1332  0.7276
  169SAPE   H3Y19133   5.006   7.227   6.985 -1.0435 -0.0725 -0.2738
  169SAPE   C3419134   4.999   7.025   6.990 -0.5764  0.2343 -0.0072
  169SAPE   H4X19135   5.091   7.032   6.928 -1.6381  0.8718 -1.5776
  169SAPE   H4Y19136   4.949   6.931   6.960 -1.5303  0.7901 -0.2020
  169SAPE   C3519137   5.026   7.017   7.144 -0.0172 -0.4949  0.3785
  169SAPE   H5X19138   4.927   6.988   7.187 -0.9495  0.6278 -0.9196
  169SAPE   H5Y19139   5.058   7.112   7.191  0.0117  0.1416 -0.9137
  169SAPE   C3619140   5.133   6.903   7.173  0.9200  0.2469  0.7722
  169SAPE   H6X19141   5.236   6.943   7.161  1.0568  0.3816  2.2689
  169SAPE   H6Y19142   5.110   6.827   7.095 -2.5416  2.8522 -1.0494
  169SAPE   C3719143   5.119   6.850   7.314 -0.0583 -0.3712 -0.7475
  169SAPE   H7X19144   5.206   6.782   7.328 -0.1058 -0.4321 -0.7485
  169SAPE   H7Y19145   5.022   6.797   7.320  1.0369 -2.4790 -0.6075
  169SAPE   C3819146   5.131   6.964   7.418 -0.9090  0.1600  0.1393
  169SAPE   H8X19147   5.032   6.993   7.461 -2.0611 -2.4533 -0.5785
  169SAPE   H8Y19148   5.180   7.058   7.384 -1.3814 -0.4113 -2.3061
  169SAPE   C3919149   5.222   6.914   7.533 -1.1634  0.2235  0.5112
  169SAPE   H9X19150   5.317   6.875   7.492 -0.4236 -1.0902  3.2700
  169SAPE   H9Y19151   5.170   6.825   7.574  0.2671 -1.0195 -0.3058
  169SAPE  C31019152   5.268   7.018   7.633 -0.2532  0.3033 -0.1251
  169SAPE  H10X19153   5.186   7.043   7.702  1.2417  2.4825  0.9776
  169SAPE  H10Y19154   5.303   7.108   7.578 -0.4776  0.7665  0.4778
  169SAPE  C31119155   5.387   6.978   7.715 -0.4744 -0.8317  0.0092
  169SAPE  H11X19156   5.463   6.944   7.641  1.1963 -1.2742  1.8507
  169SAPE  H11Y19157   5.365   6.899   7.789 -1.3123 -1.5914 -1.0210
  169SAPE  C31219158   5.449   7.090   7.802  0.1311 -0.0060  0.9512
  169SAPE  H12X19159   5.379   7.131   7.877  1.6314 -0.3336  2.6092
  169SAPE  H12Y19160   5.474   7.180   7.742 -1.4533 -0.1943 -0.0373
  169SAPE  C31319161   5.577   7.048   7.867 -0.8020  0.4070 -0.4860
  169SAPE  H13X19162   5.557   6.984   7.956  0.3500 -0.5629 -0.8894
  169SAPE  H13Y19163   5.617   7.135   7.922 -0.3872 -0.6510  0.9483
  169SAPE  C31419164   5.682   6.996   7.770  0.8632  0.4674  0.5466
  169SAPE  H14X19165   5.671   7.053   7.675 -0.8316  1.5296  1.3485
  169SAPE  H14Y19166   5.669   6.887   7.751  0.1636  0.6521 -0.0362
  169SAPE  C31519167   5.824   7.005   7.831 -0.7337  0.5743  0.4142
  169SAPE  H15X19168   5.842   7.113   7.851  2.5344  0.4161 -1.0654
  169SAPE  H15Y19169   5.897   6.988   7.749  1.0107  0.1284  1.9783
  169SAPE  C31619170   5.863   6.905   7.946  0.4899 -0.2569 -0.1271
  169SAPE  H16X19171   5.827   6.810   7.901  3.0300 -0.8058 -1.1659
  169SAPE  H16Y19172   5.795   6.928   8.031 -1.0211 -0.1778 -1.3030
  169SAPE  C31719173   6.014   6.885   7.969  0.0262 -0.2491 -0.0100
  169SAPE  H17X19174   6.034   6.980   8.024  2.4239 -0.6069 -0.1677
  169SAPE  H17Y19175   6.055   6.880   7.866  1.0973 -1.4372  0.4395
  169SAPE  C31819176   6.046   6.753   8.048  0.1670 -0.0753 -0.0715
  169SAPE  H18X19177   6.154   6.731   8.065 -0.1963 -1.5821  0.3709
  169SAPE  H18Y19178   6.003   6.669   7.991 -0.5440 -0.3482  0.8441
  169SAPE  H18Z19179   5.981   6.766   8.137 -0.9628  1.2558 -1.0472
  170SAPE     N19180   0.011   3.290   5.747 -0.0614 -0.1521  0.1867
  170SAPE   HN119181  -0.005   3.276   5.645  0.6655 -1.7471  0.2599
  170SAPE   HN219182   0.020   3.192   5.780 -2.1562  0.5476  3.1627
  170SAPE   HN319183  -0.075   3.328   5.791  0.8850  1.2640  0.8759
  170SAPE   C1219184   0.115   3.377   5.793  0.2235  0.7014 -0.3523
  170SAPE  H12A19185   0.071   3.478   5.807  0.9084  1.2150 -1.7585
  170SAPE  H12B19186   0.194   3.370   5.715  0.1978 -2.3873 -0.2180
  170SAPE   C1119187   0.176   3.328   5.931  0.2346  0.1709  0.0756
  170SAPE  H11A19188   0.095   3.351   6.003 -1.5901  0.1465 -1.8697
  170SAPE  H11B19189   0.263   3.394   5.950  0.4183 -0.6781  2.3703
  170SAPE     P19190   0.162   3.085   6.043  0.0137 -0.1529 -0.1866
  170SAPE   O1319191   0.016   3.085   6.049 -0.3713 -0.2126 -0.2443
  170SAPE   O1419192   0.231   2.953   6.024  0.2065  0.3126 -0.2762
  170SAPE   O1219193   0.215   3.190   5.931  0.3536  0.0651  0.4206
  170SAPE   O1119194   0.213   3.141   6.187 -0.8801  0.0922  0.3030
  170SAPE    C119195   0.355   3.162   6.198  1.1717  0.1725 -0.4481
  170SAPE    HA19196   0.406   3.072   6.155  1.3296  0.7383 -1.4741
  170SAPE    HB19197   0.387   3.252   6.142 -0.6141  1.1175 -0.0047
  170SAPE    C219198   0.386   3.190   6.348 -0.0216  1.7977  0.4238
  170SAPE    HS19199   0.495   3.180   6.363 -0.3966  0.1225  2.5417
  170SAPE   O2119200   0.321   3.091   6.429  0.1350 -0.4616 -0.2529
  170SAPE   C2119201   0.384   2.977   6.438  0.1244  0.0479 -0.3670
  170SAPE   O2219202   0.487   2.944   6.381  0.3088 -0.4203 -0.3923
  170SAPE   C2219203   0.303   2.891   6.537  0.4200 -0.0487  0.1913
  170SAPE   H2R19204   0.194   2.899   6.519  0.1704 -1.6045  0.9262
  170SAPE   H2S19205   0.329   2.784   6.523  0.0334  0.1316 -2.4400
  170SAPE    C319206   0.339   3.332   6.384  0.7313 -0.2344  0.0884
  170SAPE    HX19207   0.230   3.332   6.364  0.5935  0.2822  0.7858
  170SAPE    HY19208   0.384   3.406   6.314  0.5515  0.7092  0.9521
  170SAPE   O3119209   0.378   3.374   6.512 -0.5725 -0.8132  0.5226
  170SAPE   C3119210   0.300   3.340   6.608  0.3364 -0.2570  0.2716
  170SAPE   O3219211   0.185   3.293   6.590 -0.1826  0.5431 -0.5412
  170SAPE   C3219212   0.373   3.372   6.741  0.2142 -0.0758  0.3238
  170SAPE   H2X19213   0.431   3.464   6.722  1.6704 -1.0159  0.0307
  170SAPE   H2Y19214   0.450   3.294   6.762 -0.0998 -0.9759 -1.6315
  170SAPE   C2319215   0.303   2.929   6.691  0.0998  0.0292  0.7042
  170SAPE   H3R19216   0.218   2.876   6.740 -1.1927 -0.7506 -2.1069
  170SAPE   H3S19217   0.281   3.037   6.700 -1.3698 -0.1673 -0.1035
  170SAPE   C2419218   0.436   2.894   6.759 -0.3752 -1.0034 -0.0580
  170SAPE   H4R19219   0.440   2.950   6.855  1.8687 -0.0140 -0.6698
  170SAPE   H4S19220   0.519   2.945   6.706 -1.2888  2.0817  1.2529
  170SAPE   C2519221   0.448   2.750   6.796  0.0557  0.5964  0.7942
  170SAPE   H5R19222   0.368   2.690   6.751  0.3566  1.4267 -0.8979
  170SAPE   C2619223   0.549   2.705   6.883  0.3649  0.0346  0.5061
  170SAPE   H6R19224   0.548   2.600   6.916 -0.7617  0.4654  1.9472
  170SAPE   C2719225   0.648   2.792   6.953 -0.2834  0.6688 -1.0988
  170SAPE   H7R19226   0.676   2.876   6.886 -1.2958  1.8943 -0.0257
  170SAPE   H7S19227   0.735   2.727   6.977 -2.0198 -0.6472  2.3492
  170SAPE   C2819228   0.601   2.854   7.082 -0.2081 -0.4816 -0.1394
  170SAPE   H8R19229   0.495   2.882   7.075  0.1820  1.2824  0.3938
  170SAPE   C2919230   0.663   2.872   7.193  0.6283 -0.1295  0.4063
  170SAPE   H9R19231   0.605   2.915   7.276 -0.0689 -0.2614 -0.0072
  170SAPE  C21019232   0.808   2.837   7.222 -0.2625 -0.4043  0.4253
  170SAPE  H10R19233   0.856   2.800   7.129 -1.4739  0.3689 -0.5422
  170SAPE  H10S19234   0.813   2.746   7.285 -3.5458  0.5792  2.3633
  170SAPE  C21119235   0.902   2.945   7.265  0.1951 -0.5746  0.0101
  170SAPE  H11R19236   0.973   2.994   7.197  0.5557  2.3909  2.2971
  170SAPE  C21219237   0.903   3.009   7.382  0.3833  0.3550  0.2108
  170SAPE  H12R19238   0.973   3.094   7.390  0.0260  0.7714 -0.8835
  170SAPE  C21319239   0.815   2.969   7.505 -0.5327  0.0869 -0.4953
  170SAPE  H13R19240   0.762   2.871   7.497 -0.7046 -0.0377  1.7251
  170SAPE  H13S19241   0.725   3.034   7.513  0.2127  1.1817 -0.7884
  170SAPE  C21419242   0.879   2.964   7.645 -0.2897  0.0962 -0.1307
  170SAPE  H14R19243   0.821   3.019   7.721 -0.1072 -2.5327  2.0822
  170SAPE  C21519244   0.970   2.866   7.682 -0.0574  0.6689 -0.2111
  170SAPE  H15R19245   1.021   2.870   7.780 -0.2956 -1.1189  0.0202
  170SAPE  C21619246   1.018   2.762   7.587  0.7868 -0.7792  0.6488
  170SAPE  H16R19247   1.121   2.788   7.555  0.5941 -0.1234  0.5587
  170SAPE  H16S19248   0.953   2.748   7.498  1.3323 -0.7594  0.2483
  170SAPE  C21719249   1.021   2.619   7.648  0.3989  0.6760  0.5329
  170SAPE  H17R19250   0.920   2.613   7.694  0.8610 -0.9891  1.4179
  170SAPE  H17S19251   1.094   2.612   7.732 -0.3946  1.9913  1.3718
  170SAPE  C21819252   1.056   2.513   7.545 -0.0588 -0.0644 -0.1587
  170SAPE  H18R19253   0.983   2.505   7.462 -0.8935 -0.5396  0.5906
  170SAPE  H18S19254   1.057   2.410   7.588 -0.9211 -1.6615 -3.6012
  170SAPE  C21919255   1.195   2.510   7.474 -0.1028  0.0235  0.3131
  170SAPE  H19R19256   1.216   2.405   7.444  0.5818  0.6078 -1.3148
  170SAPE  H19S19257   1.268   2.549   7.548 -0.2170 -0.1941  0.5463
  170SAPE  C22019258   1.204   2.598   7.348 -0.3568  0.3554  0.0681
  170SAPE  H20R19259   1.108   2.583   7.294 -0.8489 -0.0140  1.0059
  170SAPE  H20S19260   1.289   2.565   7.285 -2.5405 -2.9533 -1.4487
  170SAPE  H20T19261   1.219   2.702   7.384  1.4370  0.1393  0.0110
  170SAPE   C3319262   0.274   3.392   6.855  0.1246  0.0478 -0.4913
  170SAPE   H3X19263   0.196   3.463   6.819  0.0987 -0.7885 -2.1924
  170SAPE   H3Y19264   0.324   3.450   6.936  3.5153 -2.5523 -0.4936
  170SAPE   C3419265   0.208   3.268   6.905  0.2184  1.1830 -0.3613
  170SAPE   H4X19266   0.175   3.203   6.821  1.0737  1.7773 -1.1735
  170SAPE   H4Y19267   0.112   3.291   6.957  1.1063  0.1244  1.8430
  170SAPE   C3519268   0.304   3.184   6.996  0.4922 -0.0674 -0.1672
  170SAPE   H5X19269   0.401   3.168   6.945 -0.0635 -1.9619 -0.7141
  170SAPE   H5Y19270   0.266   3.081   7.010 -0.8555  0.2989 -0.9432
  170SAPE   C3619271   0.329   3.244   7.136  0.7843 -0.1587 -0.7343
  170SAPE   H6X19272   0.230   3.249   7.185  0.0637 -1.7514 -1.9466
  170SAPE   H6Y19273   0.385   3.340   7.133 -1.7367  1.3852 -1.6440
  170SAPE   C3719274   0.408   3.142   7.219 -0.7590 -0.0462 -0.1485
  170SAPE   H7X19275   0.494   3.120   7.153  0.0601 -2.1936  1.4847
  170SAPE   H7Y19276   0.341   3.053   7.228 -0.6429 -0.0294  1.1771
  170SAPE   C3819277   0.462   3.179   7.360  0.0062  0.5613  0.3173
  170SAPE   H8X19278   0.551   3.245   7.354  0.1153  0.2951 -1.5377
  170SAPE   H8Y19279   0.489   3.083   7.408 -1.6929  0.0461  0.3087
  170SAPE   C3919280   0.353   3.244   7.455 -0.9736 -0.3374 -0.0062
  170SAPE   H9X19281   0.252   3.208   7.424 -1.3533 -0.0243  0.8382
  170SAPE   H9Y19282   0.351   3.353   7.436 -0.6677 -0.3433 -0.0697
  170SAPE  C31019283   0.382   3.225   7.598 -0.0437  0.3811  0.1224
  170SAPE  H10X19284   0.358   3.120   7.627  1.1439  0.5384  1.8885
  170SAPE  H10Y19285   0.316   3.293   7.657  0.6440 -0.7476  2.3076
  170SAPE  C31119286   0.529   3.272   7.623  0.8062  0.4835 -0.2679
  170SAPE  H11X19287   0.553   3.369   7.573 -1.4111  2.4694  2.1917
  170SAPE  H11Y19288   0.591   3.194   7.575 -0.4262 -1.2673  0.8805
  170SAPE  C31219289   0.549   3.296   7.775 -0.0783  0.8071 -0.5908
  170SAPE  H12X19290   0.451   3.329   7.816  0.8628  5.0275 -1.2300
  170SAPE  H12Y19291   0.603   3.390   7.801 -0.6775  1.1370 -0.5273
  170SAPE  C31319292   0.605   3.176   7.852 -0.3612  0.2134 -0.8456
  170SAPE  H13X19293   0.715   3.169   7.838 -0.4623 -0.5063 -1.3307
  170SAPE  H13Y19294   0.555   3.083   7.818 -1.2454  0.0469  0.7853
  170SAPE  C31419295   0.577   3.188   8.002  0.1238  0.0582 -0.1086
  170SAPE  H14X19296   0.477   3.141   8.013 -0.1946  0.7528  0.0315
  170SAPE  H14Y19297   0.574   3.295   8.031 -1.2365 -0.1838  0.7727
  170SAPE  C31519298   0.686   3.106   8.085  0.0697 -0.2653 -0.1309
  170SAPE  H15X19299   0.787   3.141   8.055  0.2556 -1.3834 -0.8949
  170SAPE  H15Y19300   0.685   2.999   8.054  1.5386  0.2349 -2.0686
  170SAPE  C31619301   0.657   3.113   8.233  0.1950 -0.2162  0.4284
  170SAPE  H16X19302   0.546   3.102   8.227 -0.0110  1.6054  0.4891
  170SAPE  H16Y19303   0.677   3.215   8.270 -0.5644  0.2782 -0.4755
  170SAPE  C31719304   0.716   3.007   8.323  0.1947  0.2047 -0.7680
  170SAPE  H17X19305   0.827   3.010   8.313  0.2440 -0.9361 -0.7648
  170SAPE  H17Y19306   0.678   2.913   8.276 -0.9809  0.2656  0.0448
  170SAPE  C31819307   0.672   3.021   8.463  0.8303  0.4088  0.7548
  170SAPE  H18X19308   0.734   3.094   8.520  0.2141  2.0495 -0.5779
  170SAPE  H18Y19309   0.678   2.923   8.515 -0.6437 -0.6860 -1.0342
  170SAPE  H18Z19310   0.566   3.050   8.476 -0.4037 -2.5774 -1.5443
  171SAPE     N19311   2.930   3.920   6.463  0.1418  0.3450  0.2494
  171SAPE   HN119312   3.031   3.911   6.487  0.1968 -0.0052 -0.1005
  171SAPE   HN219313   2.894   3.832   6.422  1.8152 -0.6080  0.7692
  171SAPE   HN319314   2.917   3.995   6.392 -0.9293 -0.3906 -0.3586
  171SAPE   C1219315   2.849   3.952   6.587  0.2430  0.3766  0.6170
  171SAPE  H12A19316   2.886   4.048   6.628 -0.0985  0.7935 -0.0184
  171SAPE  H12B19317   2.855   3.863   6.653 -0.7185  0.0636  0.2992
  171SAPE   C1119318   2.701   3.957   6.550  1.0241 -0.8175  0.6075
  171SAPE  H11A19319   2.677   4.055   6.503 -0.0557 -0.0857  2.5734
  171SAPE  H11B19320   2.644   3.953   6.645  2.9825 -2.0371  1.7865
  171SAPE     P19321   2.505   3.812   6.443  0.4608  0.0901 -0.1734
  171SAPE   O1319322   2.436   3.940   6.417 -0.1000  0.2410  0.2094
  171SAPE   O1419323   2.485   3.693   6.357  0.2813  0.3430 -0.8369
  171SAPE   O1219324   2.662   3.849   6.463  0.6675 -0.6677  0.6062
  171SAPE   O1119325   2.472   3.764   6.591  0.0489 -0.7157  0.1686
  171SAPE    C119326   2.520   3.626   6.618  0.4852 -0.5529  0.4036
  171SAPE    HA19327   2.441   3.550   6.605  0.3613 -0.7427  2.0589
  171SAPE    HB19328   2.625   3.609   6.584  1.5402  2.6270  1.6363
  171SAPE    C219329   2.532   3.608   6.770  0.5975  0.3779 -0.7460
  171SAPE    HS19330   2.439   3.654   6.811 -1.2327 -3.0298 -0.6635
  171SAPE   O2119331   2.645   3.682   6.824  0.1469  0.1622  0.0939
  171SAPE   C2119332   2.629   3.727   6.947 -0.8349  0.0141 -0.1764
  171SAPE   O2219333   2.534   3.696   7.018 -0.6570 -0.1347  0.3144
  171SAPE   C2219334   2.742   3.816   6.980 -0.9796 -0.2819 -0.8545
  171SAPE   H2R19335   2.817   3.760   7.040  0.0505  2.0915  0.2010
  171SAPE   H2S19336   2.794   3.863   6.893 -0.3973  0.0876 -0.3134
  171SAPE    C319337   2.542   3.459   6.812  0.3447 -1.0812 -0.3128
  171SAPE    HX19338   2.640   3.413   6.788 -0.5032 -2.0333 -2.1670
  171SAPE    HY19339   2.477   3.405   6.740 -2.0592  1.8664 -0.5777
  171SAPE   O3119340   2.516   3.436   6.949 -0.6463 -0.0709  0.5157
  171SAPE   C3119341   2.400   3.430   7.005  0.4387 -0.2385  0.4887
  171SAPE   O3219342   2.295   3.446   6.944 -0.1541  0.2112 -0.1862
  171SAPE   C3219343   2.418   3.434   7.164  0.6285  0.1124  0.2997
  171SAPE   H2X19344   2.489   3.518   7.181  0.5960  1.1497 -3.7872
  171SAPE   H2Y19345   2.463   3.336   7.190  0.0098 -0.2705 -0.0362
  171SAPE   C2319346   2.706   3.934   7.073 -0.4192  0.0444  0.5450
  171SAPE   H3R19347   2.647   3.897   7.160 -1.6492  0.9996  0.1501
  171SAPE   H3S19348   2.634   3.994   7.014 -0.8855 -1.4152 -0.4519
  171SAPE   C2419349   2.831   4.024   7.110  0.2630  0.4104  0.1393
  171SAPE   H4R19350   2.867   4.063   7.013 -1.0591  1.8447  0.1902
  171SAPE   H4S19351   2.907   3.949   7.143 -0.4849 -0.2797  0.3140
  171SAPE   C2519352   2.801   4.132   7.208  0.6538 -0.0419 -0.6549
  171SAPE   H5R19353   2.771   4.229   7.165 -2.3676 -0.0573  1.1622
  171SAPE   C2619354   2.827   4.126   7.334  0.8323 -0.1893 -0.4189
  171SAPE   H6R19355   2.801   4.209   7.402 -3.4771 -0.9349 -0.8614
  171SAPE   C2719356   2.892   4.004   7.406  0.1808 -0.3725 -0.1669
  171SAPE   H7R19357   3.002   4.017   7.409 -0.0519  1.6642  2.2815
  171SAPE   H7S19358   2.873   3.913   7.344  0.4737 -2.1145  2.1600
  171SAPE   C2819359   2.830   3.968   7.540 -0.7276 -0.6958 -0.3636
  171SAPE   H8R19360   2.720   3.969   7.541 -0.7335 -1.3997  0.5938
  171SAPE   C2919361   2.887   3.970   7.659 -0.1142  0.1703  0.3387
  171SAPE   H9R19362   2.821   3.941   7.743 -0.9387  0.9947  0.0076
  171SAPE  C21019363   3.035   3.995   7.686 -0.2972  1.1141  0.3538
  171SAPE  H10R19364   3.042   4.057   7.778 -1.1045  4.7553 -1.8356
  171SAPE  H10S19365   3.079   4.059   7.606 -0.4780  1.7284  0.7386
  171SAPE  C21119366   3.119   3.866   7.681 -0.2028 -0.1490 -0.7242
  171SAPE  H11R19367   3.089   3.793   7.606  0.1141 -0.8365 -0.1919
  171SAPE  C21219368   3.226   3.830   7.757 -0.0375 -0.1584 -0.4079
  171SAPE  H12R19369   3.269   3.730   7.740  2.1658  0.7965 -0.8796
  171SAPE  C21319370   3.288   3.917   7.864  0.2513 -0.0780 -0.8736
  171SAPE  H13R19371   3.256   4.020   7.840 -1.3747 -0.2807  0.3063
  171SAPE  H13S19372   3.399   3.922   7.855  0.1444  0.7248 -1.9824
  171SAPE  C21419373   3.254   3.876   8.004  0.2717 -0.9008 -0.6996
  171SAPE  H14R19374   3.225   3.771   8.020 -2.4222 -0.1970 -0.5683
  171SAPE  C21519375   3.253   3.964   8.102  0.2239 -1.0301  0.3303
  171SAPE  H15R19376   3.236   3.920   8.201 -2.3301 -0.7001  0.0984
  171SAPE  C21619377   3.302   4.108   8.091  0.3463  0.9889 -0.2608
  171SAPE  H16R19378   3.369   4.125   8.004  2.0532  0.7036  0.9489
  171SAPE  H16S19379   3.363   4.125   8.182  1.0382  3.5736 -1.1241
  171SAPE  C21719380   3.180   4.203   8.077  0.0350 -0.2803 -0.5060
  171SAPE  H17R19381   3.122   4.164   7.991  0.5783 -0.7266 -0.6772
  171SAPE  H17S19382   3.215   4.308   8.063 -0.3646 -0.1460 -0.5070
  171SAPE  C21819383   3.101   4.197   8.210  0.3887 -0.5796  0.7561
  171SAPE  H18R19384   3.174   4.217   8.292  2.6165 -1.2736 -0.9557
  171SAPE  H18S19385   3.057   4.096   8.218 -1.0109  0.0641  1.5055
  171SAPE  C21919386   2.985   4.300   8.209 -0.2012  0.0587 -0.6974
  171SAPE  H19R19387   2.933   4.285   8.306  1.4650 -3.0309 -0.1397
  171SAPE  H19S19388   2.923   4.266   8.123  0.3248  0.1354 -1.1103
  171SAPE  C22019389   3.019   4.445   8.205 -0.1736 -0.1536 -0.3265
  171SAPE  H20R19390   3.085   4.477   8.289 -2.0390  0.3958  0.9858
  171SAPE  H20S19391   2.927   4.506   8.212  0.4549  1.0427 -1.9005
  171SAPE  H20T19392   3.062   4.476   8.107 -0.9039  2.6101  0.1437
  171SAPE   C3319393   2.279   3.464   7.231 -0.7583 -0.0013 -0.0491
  171SAPE   H3X19394   2.227   3.367   7.219  1.5610 -1.1217 -1.9674
  171SAPE   H3Y19395   2.224   3.539   7.170 -0.8749 -0.0444  0.0034
  171SAPE   C3419396   2.276   3.504   7.379 -0.2580  0.2360  0.5427
  171SAPE   H4X19397   2.262   3.614   7.383  0.7842  0.4887 -1.2301
  171SAPE   H4Y19398   2.377   3.487   7.421 -1.5625 -0.5126  3.6721
  171SAPE   C3519399   2.170   3.431   7.472 -0.2541  0.0953  0.8667
  171SAPE   H5X19400   2.187   3.322   7.470  0.7968  0.2606  0.3922
  171SAPE   H5Y19401   2.066   3.455   7.441 -0.0186 -1.0109 -0.8666
  171SAPE   C3619402   2.192   3.462   7.622 -0.8684 -0.5802  0.5670
  171SAPE   H6X19403   2.103   3.446   7.687 -0.4983 -1.3626  0.9029
  171SAPE   H6Y19404   2.227   3.568   7.623 -1.4837 -0.3747  0.1632
  171SAPE   C3719405   2.304   3.374   7.678 -0.1523 -0.4109  0.0272
  171SAPE   H7X19406   2.394   3.382   7.614  1.0516 -0.9467  1.6043
  171SAPE   H7Y19407   2.263   3.271   7.674  0.5647 -0.6769 -0.6227
  171SAPE   C3819408   2.343   3.402   7.820  1.0477  0.1991 -0.1600
  171SAPE   H8X19409   2.251   3.424   7.878  2.3183  2.1323  1.2527
  171SAPE   H8Y19410   2.396   3.499   7.826  0.4894  0.4924  0.1357
  171SAPE   C3919411   2.419   3.294   7.891 -0.2432  0.6459 -0.8264
  171SAPE   H9X19412   2.381   3.196   7.856 -0.8949 -0.3611  2.4509
  171SAPE   H9Y19413   2.401   3.300   8.000  0.7377 -1.3779 -0.5269
  171SAPE  C31019414   2.571   3.292   7.864  0.8133  0.0277 -0.3489
  171SAPE  H10X19415   2.602   3.385   7.812 -0.0986  0.1972 -0.6149
  171SAPE  H10Y19416   2.579   3.207   7.793 -1.2557 -0.5614  0.0232
  171SAPE  C31119417   2.655   3.253   7.991 -0.2371  1.3201 -0.1733
  171SAPE  H11X19418   2.762   3.252   7.959  0.9624  1.8573  3.4397
  171SAPE  H11Y19419   2.628   3.146   8.005  3.4214  0.1011 -1.1148
  171SAPE  C31219420   2.641   3.333   8.114 -0.2126 -0.2919 -0.5593
  171SAPE  H12X19421   2.728   3.302   8.176 -0.9227 -1.2611 -0.0214
  171SAPE  H12Y19422   2.558   3.295   8.177  0.3521 -1.9194 -0.7701
  171SAPE  C31319423   2.630   3.488   8.094 -0.2231  0.5334  0.1494
  171SAPE  H13X19424   2.613   3.535   8.193  1.0706 -0.3795  0.8280
  171SAPE  H13Y19425   2.534   3.504   8.040 -0.0633  1.8986  0.2198
  171SAPE  C31419426   2.743   3.562   8.025  0.1970 -0.1170  0.2370
  171SAPE  H14X19427   2.766   3.517   7.926  1.1008 -1.8827  1.1928
  171SAPE  H14Y19428   2.835   3.559   8.089 -0.8337 -1.1841  1.7418
  171SAPE  C31519429   2.715   3.719   8.025 -0.0435 -0.0344 -0.5212
  171SAPE  H15X19430   2.679   3.751   8.125 -2.5607 -3.6904 -0.0793
  171SAPE  H15Y19431   2.641   3.741   7.945  0.8240  0.9639 -1.0952
  171SAPE  C31619432   2.848   3.801   7.986 -0.5457  0.3436  0.6992
  171SAPE  H16X19433   2.865   3.775   7.879  2.2349 -1.7549  1.5090
  171SAPE  H16Y19434   2.933   3.757   8.043 -1.0945 -1.4597  0.2108
  171SAPE  C31719435   2.835   3.948   8.019 -0.4055  0.1918 -0.0094
  171SAPE  H17X19436   2.757   3.993   7.953 -0.7839 -1.3105 -0.6221
  171SAPE  H17Y19437   2.929   3.996   7.983 -1.0793 -0.2557 -2.5938
  171SAPE  C31819438   2.804   3.974   8.167  0.3084 -0.6932 -0.7336
  171SAPE  H18X19439   2.878   3.914   8.225 -0.2357 -1.3962 -0.7509
  171SAPE  H18Y19440   2.702   3.940   8.194  0.8453 -1.6986  0.0667
  171SAPE  H18Z19441   2.820   4.083   8.175  0.6776 -0.7549 -0.6116
  172SAPE     N19442   1.507   3.188   6.461 -0.0773 -0.2515  0.2791
  172SAPE   HN119443   1.442   3.122   6.508  1.3869 -2.1235 -0.1736
  172SAPE   HN219444   1.595   3.213   6.511  1.9853 -1.4811 -2.4529
  172SAPE   HN319445   1.447   3.266   6.429  0.1387 -0.8513 -1.7606
  172SAPE   C1219446   1.555   3.097   6.345  0.2685 -0.4909 -0.6467
  172SAPE  H12A19447   1.657   3.133   6.319  0.2604  1.2997  1.5095
  172SAPE  H12B19448   1.483   3.112   6.262 -1.6886 -0.2801  1.0157
  172SAPE   C1119449   1.564   2.947   6.390  0.1842  0.0450  0.1658
  172SAPE  H11A19450   1.614   2.938   6.489 -0.2599  0.6111  0.4483
  172SAPE  H11B19451   1.631   2.897   6.317  1.4067 -0.2556  1.4638
  172SAPE     P19452   1.387   2.796   6.281  0.2556  0.2831 -0.3140
  172SAPE   O1319453   1.452   2.837   6.154 -0.5984  0.4207 -0.6203
  172SAPE   O1419454   1.402   2.657   6.331 -0.1607 -0.2990 -0.6079
  172SAPE   O1219455   1.429   2.897   6.393 -0.1122  0.2485  0.1738
  172SAPE   O1119456   1.234   2.817   6.255  0.5506 -0.1685 -0.3339
  172SAPE    C119457   1.166   2.944   6.260 -0.4645 -0.1824  0.2279
  172SAPE    HA19458   1.223   3.027   6.215 -0.7232 -1.5177 -2.8105
  172SAPE    HB19459   1.074   2.922   6.201  1.0674 -4.1178 -1.0272
  172SAPE    C219460   1.124   2.981   6.402  0.0878 -0.8420 -0.0288
  172SAPE    HS19461   1.214   3.005   6.463 -1.3183 -1.7169  2.5577
  172SAPE   O2119462   1.038   2.880   6.454  0.3015  0.0436 -0.0494
  172SAPE   C2119463   1.068   2.842   6.579  0.2849  0.4267  0.0694
  172SAPE   O2219464   1.157   2.897   6.645  0.7270 -0.0477 -0.3128
  172SAPE   C2219465   0.986   2.729   6.634  0.7669 -0.7362 -0.4217
  172SAPE   H2R19466   0.879   2.755   6.620  1.3283  1.3567 -1.2166
  172SAPE   H2S19467   1.006   2.626   6.597 -0.6036 -0.4639 -2.0479
  172SAPE    C319468   1.040   3.114   6.399  0.1009  0.9071  0.5386
  172SAPE    HX19469   0.952   3.099   6.334 -0.3248 -0.9615  1.4838
  172SAPE    HY19470   1.105   3.188   6.347 -1.3361  1.8198 -0.0078
  172SAPE   O3119471   1.006   3.166   6.527  0.6627 -0.6240 -0.0817
  172SAPE   C3119472   0.889   3.119   6.571 -0.4792 -0.8798  0.0491
  172SAPE   O3219473   0.809   3.053   6.507  0.0334 -0.1241 -0.0315
  172SAPE   C3219474   0.877   3.160   6.719  0.0483  0.3724  0.3647
  172SAPE   H2X19475   0.945   3.248   6.726 -0.2506  0.4840  2.5345
  172SAPE   H2Y19476   0.924   3.090   6.791 -2.7337  0.0532  2.0322
  172SAPE   C2319477   1.009   2.712   6.788 -0.2194 -0.6818 -0.0822
  172SAPE   H3R19478   0.961   2.802   6.833 -0.4577 -1.4571  1.2583
  172SAPE   H3S19479   1.117   2.713   6.811 -0.0426  0.8714 -0.8370
  172SAPE   C2419480   0.963   2.576   6.845 -0.4450  0.8101 -0.7174
  172SAPE   H4R19481   0.854   2.576   6.824 -0.6942 -0.9297  0.3663
  172SAPE   H4S19482   0.980   2.578   6.955 -1.0635 -0.4259 -0.5803
  172SAPE   C2519483   1.008   2.442   6.784 -0.0407 -0.5396 -0.0715
  172SAPE   H5R19484   0.980   2.427   6.679 -1.3156 -0.1581  0.1923
  172SAPE   C2619485   1.086   2.344   6.841 -0.1612  0.3371 -0.0612
  172SAPE   H6R19486   1.121   2.263   6.776  0.9937 -0.7624  1.8356
  172SAPE   C2719487   1.147   2.357   6.979  0.4092 -0.1735  0.0470
  172SAPE   H7R19488   1.172   2.254   7.012 -1.4171 -0.9433 -0.8568
  172SAPE   H7S19489   1.080   2.406   7.053 -0.4697  2.3342 -2.2292
  172SAPE   C2819490   1.270   2.445   6.965  0.4125  0.1255  0.2010
  172SAPE   H8R19491   1.249   2.550   6.941 -1.3799  0.0936  1.4134
  172SAPE   C2919492   1.396   2.406   6.987  0.2000  0.4502 -0.9419
  172SAPE   H9R19493   1.480   2.476   6.976  1.0717 -0.4784 -0.3112
  172SAPE  C21019494   1.432   2.268   7.035 -0.2215 -0.2552  0.0892
  172SAPE  H10R19495   1.377   2.188   6.980 -1.1108 -0.2558  0.9401
  172SAPE  H10S19496   1.396   2.269   7.140  0.0936  1.8869  0.2214
  172SAPE  C21119497   1.584   2.249   7.025 -0.2195  0.1840 -0.1311
  172SAPE  H11R19498   1.630   2.262   6.926 -0.5241 -2.5634 -0.7116
  172SAPE  C21219499   1.667   2.245   7.131 -0.2719 -0.1487 -0.2712
  172SAPE  H12R19500   1.773   2.222   7.111 -0.3253 -1.0354  0.4164
  172SAPE  C21319501   1.625   2.238   7.273  0.0460 -0.0719  0.2138
  172SAPE  H13R19502   1.692   2.172   7.332  0.0825  0.0486  0.3061
  172SAPE  H13S19503   1.525   2.190   7.270  0.0590 -0.1760  1.2528
  172SAPE  C21419504   1.605   2.377   7.331  0.1204 -0.1563  0.5962
  172SAPE  H14R19505   1.585   2.454   7.255  1.3911 -2.3964 -2.2145
  172SAPE  C21519506   1.599   2.405   7.460 -0.1404 -0.5351  0.0981
  172SAPE  H15R19507   1.586   2.508   7.497  0.0280  1.1911 -4.1186
  172SAPE  C21619508   1.615   2.300   7.568  0.1021 -0.1366 -1.0405
  172SAPE  H16R19509   1.720   2.263   7.558 -0.2090 -0.7732 -2.0735
  172SAPE  H16S19510   1.549   2.211   7.560  1.9956 -1.5707 -1.5771
  172SAPE  C21719511   1.599   2.367   7.708  0.1204 -0.0699 -0.4583
  172SAPE  H17R19512   1.669   2.454   7.705  1.6020 -1.2322 -3.0781
  172SAPE  H17S19513   1.631   2.308   7.796 -0.9735  0.1537  0.1066
  172SAPE  C21819514   1.458   2.425   7.735 -0.2082  0.1527 -0.0008
  172SAPE  H18R19515   1.377   2.357   7.701 -0.2506  0.5852 -0.7683
  172SAPE  H18S19516   1.446   2.526   7.691  0.2464 -0.6196 -2.0083
  172SAPE  C21919517   1.419   2.435   7.888  0.1380  0.3179 -0.3083
  172SAPE  H19R19518   1.407   2.329   7.922  2.3252 -0.2516 -1.1327
  172SAPE  H19S19519   1.322   2.488   7.895 -0.8348 -1.4869  0.9285
  172SAPE  C22019520   1.526   2.494   7.983  0.5032  0.1648  0.4553
  172SAPE  H20R19521   1.489   2.494   8.088 -0.9797 -2.6817  0.0267
  172SAPE  H20S19522   1.565   2.597   7.967 -0.9479  1.0216  2.0238
  172SAPE  H20T19523   1.608   2.421   7.971 -0.2055 -1.1011  2.7436
  172SAPE   C3319524   0.741   3.193   6.766  0.6216 -0.1359 -0.5723
  172SAPE   H3X19525   0.681   3.101   6.755  0.7811 -0.6477  2.2198
  172SAPE   H3Y19526   0.689   3.268   6.702 -1.5428 -0.3980  0.7782
  172SAPE   C3419527   0.731   3.246   6.913 -0.1279  0.5327 -0.2570
  172SAPE   H4X19528   0.789   3.179   6.980 -0.3093  0.4264 -0.2068
  172SAPE   H4Y19529   0.625   3.236   6.944 -0.4752  2.0483 -0.8547
  172SAPE   C3519530   0.784   3.394   6.938 -0.5266 -0.5314  0.0006
  172SAPE   H5X19531   0.734   3.459   6.863  2.5111  0.4520 -1.2946
  172SAPE   H5Y19532   0.892   3.394   6.916  0.0398 -1.1849  2.4534
  172SAPE   C3619533   0.757   3.453   7.079 -0.7403  0.7462  0.5294
  172SAPE   H6X19534   0.659   3.420   7.120  0.5764 -3.6462  0.6463
  172SAPE   H6Y19535   0.765   3.563   7.066  3.4241  0.6048  0.4269
  172SAPE   C3719536   0.860   3.398   7.188 -0.2702  0.5481  0.2462
  172SAPE   H7X19537   0.958   3.422   7.142  0.7858 -2.6696  0.5708
  172SAPE   H7Y19538   0.848   3.288   7.202  0.1533  0.6724  1.7419
  172SAPE   C3819539   0.841   3.460   7.322 -0.2495  0.2958 -0.0197
  172SAPE   H8X19540   0.739   3.437   7.360 -0.2799  0.2870 -0.1052
  172SAPE   H8Y19541   0.863   3.568   7.304 -0.4293  0.2065 -0.8082
  172SAPE   C3919542   0.936   3.382   7.420  0.1249  0.3358 -0.1246
  172SAPE   H9X19543   1.040   3.394   7.384 -0.4100  0.2943 -1.7698
  172SAPE   H9Y19544   0.904   3.275   7.417 -1.8735  0.8776  0.3680
  172SAPE  C31019545   0.923   3.427   7.565  0.2123 -0.4103  0.7691
  172SAPE  H10X19546   0.816   3.429   7.597 -0.3175 -1.2412 -0.8483
  172SAPE  H10Y19547   0.971   3.527   7.568  2.0143 -1.2523  1.7902
  172SAPE  C31119548   1.003   3.349   7.671 -0.1888  0.2477  0.4919
  172SAPE  H11X19549   1.106   3.327   7.637 -0.5315  0.8255 -0.9679
  172SAPE  H11Y19550   0.952   3.250   7.675  0.5129 -0.1815 -0.9078
  172SAPE  C31219551   1.000   3.418   7.807 -1.3604 -0.2482 -0.0959
  172SAPE  H12X19552   0.897   3.451   7.834 -0.6014  0.5637  2.0691
  172SAPE  H12Y19553   1.060   3.511   7.797  0.3346 -1.0330  1.8660
  172SAPE  C31319554   1.061   3.342   7.922  0.6218  0.4793 -0.5788
  172SAPE  H13X19555   1.165   3.319   7.891  0.2858 -0.4019 -1.0935
  172SAPE  H13Y19556   1.006   3.246   7.936  1.5453 -0.0042 -0.1213
  172SAPE  C31419557   1.062   3.407   8.063 -0.5364 -0.5050 -0.6948
  172SAPE  H14X19558   0.959   3.412   8.106 -0.5873 -1.6188 -0.6429
  172SAPE  H14Y19559   1.098   3.512   8.054 -1.1468 -0.0961  1.2237
  172SAPE  C31519560   1.160   3.337   8.168 -0.1681 -0.0165  0.0314
  172SAPE  H15X19561   1.154   3.398   8.260  1.7226  0.3074 -0.0248
  172SAPE  H15Y19562   1.265   3.333   8.132 -0.2238  0.8212 -0.2468
  172SAPE  C31619563   1.128   3.195   8.215  0.1493 -0.4682  0.0275
  172SAPE  H16X19564   1.132   3.121   8.132 -2.2127  0.4698 -1.0211
  172SAPE  H16Y19565   1.021   3.192   8.244 -0.5847 -0.3777 -2.3912
  172SAPE  C31719566   1.227   3.159   8.318  0.3969 -0.4236  0.1008
  172SAPE  H17X19567   1.215   3.226   8.405 -2.9852 -2.0367  1.0445
  172SAPE  H17Y19568   1.333   3.170   8.287  0.7820 -0.8585  1.2276
  172SAPE  C31819569   1.204   3.020   8.384 -0.2657  0.5628  0.2105
  172SAPE  H18X19570   1.291   2.994   8.447  0.6881  1.5968 -0.6385
  172SAPE  H18Y19571   1.202   2.945   8.302 -0.6818  1.1195 -0.2952
  172SAPE  H18Z19572   1.109   3.015   8.441 -0.8881  0.4536 -0.8085
  173SOPE     N19573   2.207   6.497  11.249 -0.4084  0.4036 -0.1155
  173SOPE   HN119574   2.294   6.440  11.240 -2.1652 -2.5983  0.7900
  173SOPE   HN219575   2.220   6.594  11.214 -0.1041  0.6873  0.7568
  173SOPE   HN319576   2.185   6.503  11.350 -0.1867 -0.6912  0.0055
  173SOPE   C1219577   2.099   6.422  11.184  0.7651  0.3119 -0.0770
  173SOPE  H12A19578   2.072   6.325  11.232 -4.1377  1.5666  0.2837
  173SOPE  H12B19579   2.114   6.395  11.077 -1.3901 -1.0282 -0.1267
  173SOPE   C1119580   1.966   6.501  11.187 -0.0685 -0.0198  0.0185
  173SOPE  H11A19581   1.946   6.496  11.296  2.8252  0.7308  0.6801
  173SOPE  H11B19582   1.895   6.440  11.127  0.7355 -3.6807  2.4765
  173SOPE     P19583   1.887   6.703  11.030 -0.1953 -0.3008 -0.0491
  173SOPE   O1319584   1.879   6.848  11.065 -0.2192 -0.1320  0.1965
  173SOPE   O1419585   1.760   6.634  11.018  0.1586 -0.2353  0.0987
  173SOPE   O1219586   1.980   6.632  11.139 -0.2862 -0.4505  0.8036
  173SOPE   O1119587   1.962   6.686  10.895  0.1908 -0.0030 -0.0899
  173SOPE    C119588   2.033   6.789  10.826  0.1205  0.2362  0.0229
  173SOPE    HA19589   2.139   6.778  10.858  0.0840  0.7685  0.3284
  173SOPE    HB19590   2.013   6.891  10.864 -1.5965 -0.1101  0.1220
  173SOPE    C219591   2.009   6.786  10.674  0.1372  0.2003  0.4210
  173SOPE    HS19592   2.089   6.842  10.619 -0.0592 -0.9452 -1.1107
  173SOPE   O2119593   1.873   6.820  10.653 -0.2008 -0.1080  0.2240
  173SOPE   C2119594   1.825   6.934  10.671  0.1781 -0.1214 -0.0704
  173SOPE   O2219595   1.885   7.040  10.679  0.1715  0.3208 -0.7677
  173SOPE   C2219596   1.667   6.922  10.664  0.3492 -0.3900  0.6748
  173SOPE   H2R19597   1.629   7.021  10.700 -3.9374 -1.2398 -0.9325
  173SOPE   H2S19598   1.629   6.834  10.720  0.2080 -1.7290 -1.4082
  173SOPE    C319599   2.021   6.646  10.621  0.4266  0.6747 -0.2048
  173SOPE    HX19600   1.951   6.583  10.679  0.4404 -0.1270 -1.0486
  173SOPE    HY19601   2.124   6.613  10.645  0.4311  2.0458  1.9087
  173SOPE   O3119602   1.994   6.637  10.479  0.5166 -0.0118  0.1968
  173SOPE   C3119603   1.879   6.589  10.430  0.0753 -0.4616  0.3186
  173SOPE   O3219604   1.804   6.518  10.492 -0.6392 -0.0368 -0.2281
  173SOPE   C3219605   1.866   6.634  10.278 -0.9770 -0.2259  0.3136
  173SOPE   H2X19606   1.957   6.603  10.221 -0.2582 -0.2954  1.4681
  173SOPE   H2Y19607   1.861   6.745  10.284 -3.6001 -0.2615 -0.1128
  173SOPE   C2319608   1.616   6.888  10.517  0.5118  0.3909 -0.6063
  173SOPE   H3R19609   1.506   6.881  10.527  0.4434  2.2884  0.4187
  173SOPE   H3S19610   1.657   6.786  10.498 -1.7992 -0.7450  0.1757
  173SOPE   C2419611   1.662   6.992  10.422  0.1979 -0.5466 -0.2044
  173SOPE   H4R19612   1.631   7.093  10.456  2.4905 -0.0013  0.4169
  173SOPE   H4S19613   1.773   6.997  10.413 -0.0048  2.5934 -2.7170
  173SOPE   C2519614   1.611   6.976  10.277  0.8782  0.3758 -0.2789
  173SOPE   H5R19615   1.676   6.895  10.239  2.1358  0.2784  1.9110
  173SOPE   H5S19616   1.506   6.943  10.292  0.4616  1.3453 -0.9637
  173SOPE   C2619617   1.614   7.102  10.206  0.6990 -0.8779 -0.1323
  173SOPE   H6R19618   1.583   7.182  10.276 -0.4743 -1.9099  0.5704
  173SOPE   H6S19619   1.717   7.117  10.168  0.6809 -1.8044 -0.5853
  173SOPE   C2719620   1.521   7.106  10.086 -0.3097 -0.4012  0.9708
  173SOPE   H7R19621   1.420   7.064  10.107  0.1734 -3.3855 -1.8147
  173SOPE   H7S19622   1.517   7.211  10.051  1.4666 -0.8290 -0.6996
  173SOPE   C2819623   1.585   7.033   9.962 -0.2730 -0.7057  0.7433
  173SOPE   H8R19624   1.691   7.066   9.955 -0.5381  0.2947  1.2654
  173SOPE   H8S19625   1.590   6.922   9.973  0.5799 -0.6305  1.2128
  173SOPE   C2919626   1.490   7.063   9.847 -0.3282  0.1032  0.3604
  173SOPE   H9119627   1.410   6.988   9.839 -1.0035  0.8837 -0.3876
  173SOPE  C21019628   1.508   7.147   9.744 -0.4638  0.4240  0.7427
  173SOPE  H10119629   1.435   7.162   9.663  0.4832 -3.2885 -1.0416
  173SOPE  C21119630   1.627   7.241   9.724  0.2417  0.1162 -0.2114
  173SOPE  H11R19631   1.709   7.203   9.659  1.6363 -1.3759  2.2522
  173SOPE  H11S19632   1.679   7.265   9.819  2.0254 -3.1712 -0.1830
  173SOPE  C21219633   1.579   7.380   9.678 -0.9593  0.3711  0.6318
  173SOPE  H12R19634   1.671   7.442   9.690  0.2770 -0.9165 -1.4124
  173SOPE  H12S19635   1.513   7.430   9.751  0.2729  1.4079  1.0795
  173SOPE  C21319636   1.529   7.381   9.535  0.2794 -0.2012  0.6620
  173SOPE  H13R19637   1.429   7.333   9.538  0.2475 -0.3357 -1.3645
  173SOPE  H13S19638   1.605   7.319   9.484  1.1604  0.9587  0.5253
  173SOPE  C21419639   1.529   7.528   9.484  0.2933 -0.2088 -0.2239
  173SOPE  H14R19640   1.635   7.560   9.485  0.2718 -0.1271 -0.4558
  173SOPE  H14S19641   1.475   7.589   9.559  0.7160  0.6405 -0.6020
  173SOPE  C21519642   1.462   7.564   9.353 -0.7947  0.3744 -0.3755
  173SOPE  H15R19643   1.500   7.662   9.316 -0.2765  0.5932  0.6930
  173SOPE  H15S19644   1.352   7.571   9.360 -0.7042  2.0048 -0.2988
  173SOPE  C21619645   1.505   7.455   9.256  0.0740 -0.3706 -0.1397
  173SOPE  H16R19646   1.450   7.363   9.285  0.0319 -0.7717 -1.4337
  173SOPE  H16S19647   1.613   7.430   9.261  0.2513  0.3543 -0.0963
  173SOPE  C21719648   1.474   7.485   9.103 -0.2624  0.1960 -0.2943
  173SOPE  H17R19649   1.543   7.567   9.075 -0.8175  1.0349  0.7013
  173SOPE  H17S19650   1.372   7.530   9.097 -1.1161 -1.7927 -1.4846
  173SOPE  C21819651   1.500   7.371   9.001  0.1041 -1.0135 -0.3743
  173SOPE  H18R19652   1.606   7.380   8.970  0.2122 -1.3165 -0.0992
  173SOPE  H18S19653   1.440   7.396   8.911  1.5746 -3.1550 -2.0674
  173SOPE  H18T19654   1.471   7.268   9.032  1.4181 -1.4573 -0.5494
  173SOPE   C3319655   1.727   6.595  10.215 -0.0069 -0.6859 -0.4508
  173SOPE   H3X19656   1.641   6.648  10.262 -0.0165 -1.5817  0.5776
  173SOPE   H3Y19657   1.720   6.485  10.228 -0.9016 -0.4102  1.7443
  173SOPE   C3419658   1.715   6.645  10.068 -0.0342  0.2517 -0.3274
  173SOPE   H4X19659   1.799   6.590  10.022 -0.2780 -1.5677  1.2586
  173SOPE   H4Y19660   1.734   6.753  10.053  2.8533  0.2839  2.4556
  173SOPE   C3519661   1.579   6.593  10.005  0.0401  0.3526 -0.0343
  173SOPE   H5X19662   1.487   6.639  10.048 -0.7226 -0.5906 -0.6112
  173SOPE   H5Y19663   1.562   6.484  10.019  0.6312 -0.0015 -1.8157
  173SOPE   C3619664   1.573   6.626   9.851 -0.1985 -0.4200 -0.7960
  173SOPE   H6X19665   1.656   6.576   9.797 -0.4767 -0.6486 -1.0188
  173SOPE   H6Y19666   1.578   6.737   9.841 -1.0795 -0.3901 -1.0264
  173SOPE   C3719667   1.436   6.588   9.794 -0.7402  0.0564 -0.0034
  173SOPE   H7X19668   1.357   6.625   9.863  1.2766  3.0008  0.9493
  173SOPE   H7Y19669   1.428   6.478   9.784  0.2977 -0.1031  0.7925
  173SOPE   C3819670   1.418   6.673   9.663  0.3073  0.0642 -0.0131
  173SOPE   H8X19671   1.436   6.781   9.681 -1.2715  0.3463 -0.0339
  173SOPE   H8Y19672   1.309   6.681   9.645  0.3366 -0.3686 -0.3971
  173SOPE   C3919673   1.481   6.601   9.546  0.5922 -0.4451 -0.0265
  173SOPE   H9X19674   1.451   6.494   9.547 -3.5971  0.5570 -1.1257
  173SOPE   H9Y19675   1.592   6.602   9.554  0.6575  2.3458 -0.2195
  173SOPE  C31019676   1.454   6.672   9.409 -0.6504  0.2487 -0.7344
  173SOPE  H10X19677   1.510   6.768   9.414  0.2745 -0.2779 -0.6249
  173SOPE  H10Y19678   1.345   6.689   9.397 -0.6713  0.5369 -0.1466
  173SOPE  C31119679   1.507   6.595   9.291  0.9166  0.4766  0.1858
  173SOPE  H11X19680   1.616   6.577   9.303  0.7833 -0.5658 -0.0635
  173SOPE  H11Y19681   1.494   6.666   9.206  0.2080  0.0601 -0.0613
  173SOPE  C31219682   1.430   6.461   9.266  0.4125 -0.7972  0.2315
  173SOPE  H12X19683   1.326   6.474   9.302  0.7392 -0.5695  1.1129
  173SOPE  H12Y19684   1.484   6.390   9.332 -1.1013 -1.5285  0.7178
  173SOPE  C31319685   1.443   6.411   9.120  0.5365 -0.3778  0.5774
  173SOPE  H13X19686   1.402   6.494   9.058 -0.4078 -2.5860 -1.9032
  173SOPE  H13Y19687   1.379   6.322   9.106  1.7205 -1.0871 -0.5201
  173SOPE  C31419688   1.581   6.384   9.062 -0.0082  0.4047  0.0509
  173SOPE  H14X19689   1.620   6.302   9.126  0.8702  0.3084 -0.5931
  173SOPE  H14Y19690   1.650   6.471   9.063  0.4884  0.0176  0.3758
  173SOPE  C31519691   1.594   6.353   8.915  0.4423  0.2990  0.6960
  173SOPE  H15X19692   1.533   6.429   8.862  1.8850  1.3338  0.4469
  173SOPE  H15Y19693   1.560   6.250   8.890 -1.2615  0.3916  2.3799
  173SOPE  C31619694   1.739   6.367   8.866 -0.5010  0.0383 -0.4690
  173SOPE  H16X19695   1.811   6.310   8.930 -0.1426  1.0055 -0.0008
  173SOPE  H16Y19696   1.755   6.476   8.860 -1.5618  0.1530 -1.7410
  173SOPE  C31719697   1.756   6.305   8.720  0.1089 -0.7447 -0.7875
  173SOPE  H17X19698   1.757   6.194   8.722  0.5315 -0.7817  2.2057
  173SOPE  H17Y19699   1.859   6.336   8.694  0.6058 -2.0288 -0.4124
  173SOPE  C31819700   1.654   6.365   8.615 -0.1440 -0.1081  0.4800
  173SOPE  H18X19701   1.660   6.472   8.585 -0.2140 -1.3367 -4.6690
  173SOPE  H18Y19702   1.551   6.335   8.646 -0.5923  0.4401 -0.4459
  173SOPE  H18Z19703   1.674   6.310   8.521  0.9401 -2.8423  2.1740
  174SOPE     N19704   1.547   6.525  10.901  0.2308  0.1960  0.2573
  174SOPE   HN119705   1.602   6.577  10.972 -0.5996 -0.4436  1.4053
  174SOPE   HN219706   1.456   6.572  10.884  0.9323  1.4477 -0.1767
  174SOPE   HN319707   1.527   6.436  10.952 -0.2095 -1.3572 -2.4480
  174SOPE   C1219708   1.626   6.486  10.780  0.4097 -0.9273 -0.1028
  174SOPE  H12A19709   1.655   6.586  10.741 -0.6887 -0.5054  0.1324
  174SOPE  H12B19710   1.547   6.462  10.705 -0.7563  0.7105  0.5677
  174SOPE   C1119711   1.722   6.372  10.798  0.4176 -0.3393 -0.1608
  174SOPE  H11A19712   1.792   6.394  10.881  2.2780 -2.7075 -1.0088
  174SOPE  H11B19713   1.769   6.368  10.698 -0.6548 -1.0988 -0.6614
  174SOPE     P19714   1.716   6.114  10.813 -0.2862  0.2602 -0.3837
  174SOPE   O1319715   1.637   6.006  10.869  0.2806  0.6107 -0.0280
  174SOPE   O1419716   1.846   6.132  10.887  0.1144  0.3330  0.7479
  174SOPE   O1219717   1.635   6.254  10.820 -0.0867 -0.0466  0.2886
  174SOPE   O1119718   1.748   6.088  10.658  0.6512  0.2759  0.3097
  174SOPE    C119719   1.651   6.086  10.555 -0.7467  0.3202  0.4774
  174SOPE    HA19720   1.677   6.146  10.466  1.6297 -1.2618  0.0059
  174SOPE    HB19721   1.560   6.128  10.603  0.2325 -1.1843  4.0149
  174SOPE    C219722   1.600   5.949  10.511  0.2585 -0.4250  0.3514
  174SOPE    HS19723   1.574   5.890  10.602  0.5822 -3.1143 -1.1734
  174SOPE   O2119724   1.701   5.875  10.439  0.4036  0.3452 -0.2121
  174SOPE   C2119725   1.707   5.740  10.455 -0.7710 -0.2784 -0.1420
  174SOPE   O2219726   1.645   5.671  10.536  0.3272 -0.1490 -0.4789
  174SOPE   C2219727   1.820   5.684  10.369  0.7284  0.1120  0.3935
  174SOPE   H2R19728   1.872   5.607  10.430  1.7940  0.6143  0.1477
  174SOPE   H2S19729   1.891   5.769  10.355 -0.4270  1.0699  0.1712
  174SOPE    C319730   1.465   5.944  10.425 -0.6144  0.5068 -0.1021
  174SOPE    HX19731   1.390   5.991  10.492 -0.9627 -0.3204  0.1006
  174SOPE    HY19732   1.437   5.837  10.410 -0.8870 -0.0337  3.3986
  174SOPE   O3119733   1.480   6.024  10.310  0.1722  0.2987  0.0084
  174SOPE   C3119734   1.530   5.973  10.196 -0.7903  0.3359 -0.3904
  174SOPE   O3219735   1.543   5.852  10.172  0.3883  0.5779  0.5387
  174SOPE   C3219736   1.548   6.100  10.099 -0.3300  0.3016 -0.0568
  174SOPE   H2X19737   1.657   6.111  10.077 -0.2859  0.2478  0.1370
  174SOPE   H2Y19738   1.509   6.188  10.153  1.5656  0.7548  0.6561
  174SOPE   C2319739   1.760   5.607  10.251 -0.2573  0.1947  0.6880
  174SOPE   H3R19740   1.673   5.652  10.199 -0.1353 -0.7424 -0.3682
  174SOPE   H3S19741   1.726   5.504  10.275 -0.1011 -0.2350 -0.8140
  174SOPE   C2419742   1.863   5.603  10.127 -0.0951  0.2373 -0.3059
  174SOPE   H4R19743   1.880   5.711  10.108  1.4244 -0.1424 -1.3003
  174SOPE   H4S19744   1.959   5.563  10.166  0.7941  3.5883  1.3461
  174SOPE   C2519745   1.821   5.515  10.012  0.5100 -0.0483 -0.0151
  174SOPE   H5R19746   1.789   5.419  10.059  3.4210 -0.6809  0.8267
  174SOPE   H5S19747   1.727   5.557   9.969  0.2076 -0.7456 -0.0631
  174SOPE   C2619748   1.915   5.487   9.897 -0.3696  0.2401  0.1088
  174SOPE   H6R19749   1.955   5.582   9.857 -0.4738  0.6499  0.9580
  174SOPE   H6S19750   2.004   5.435   9.938 -0.9311  1.7629  3.6998
  174SOPE   C2719751   1.846   5.413   9.780  0.2921  0.6108 -0.0771
  174SOPE   H7R19752   1.803   5.322   9.826  1.9669  0.3271  0.9952
  174SOPE   H7S19753   1.776   5.474   9.719  1.4885 -0.0283 -2.2035
  174SOPE   C2819754   1.951   5.353   9.672 -0.5478 -0.2878 -0.4697
  174SOPE   H8R19755   2.009   5.431   9.619 -1.3986 -0.2239 -1.3330
  174SOPE   H8S19756   2.018   5.288   9.733  0.1869  0.5244 -0.3966
  174SOPE   C2919757   1.865   5.278   9.574  0.1595 -0.2344  0.0542
  174SOPE   H9119758   1.818   5.193   9.625 -0.3574  0.3245  0.5354
  174SOPE  C21019759   1.832   5.304   9.446  0.5976 -0.2453  0.7221
  174SOPE  H10119760   1.767   5.234   9.393 -0.9496  3.1514 -2.3293
  174SOPE  C21119761   1.883   5.418   9.363  0.2506  0.0012 -0.4834
  174SOPE  H11R19762   1.877   5.410   9.252  0.8302  0.8008 -0.5874
  174SOPE  H11S19763   1.992   5.428   9.383 -0.1337  0.4366  1.5682
  174SOPE  C21219764   1.810   5.538   9.415 -0.7564 -0.6379  0.3133
  174SOPE  H12R19765   1.855   5.631   9.373 -1.4823  0.2950  1.5435
  174SOPE  H12S19766   1.828   5.545   9.524  0.8785 -2.8762  0.2455
  174SOPE  C21319767   1.660   5.555   9.382 -0.2178  1.0509 -0.5090
  174SOPE  H13R19768   1.612   5.628   9.450 -3.5012 -0.1296 -1.4023
  174SOPE  H13S19769   1.620   5.453   9.401  4.2158 -0.6679  0.9920
  174SOPE  C21419770   1.638   5.594   9.233  0.4932 -0.7588  0.1121
  174SOPE  H14R19771   1.542   5.552   9.197 -1.3271  2.3759  0.9785
  174SOPE  H14S19772   1.727   5.562   9.174  2.6924  1.9268  1.7160
  174SOPE  C21519773   1.611   5.746   9.216 -0.2866  0.9776  0.5934
  174SOPE  H15R19774   1.691   5.810   9.260 -1.7097  1.8918  1.9227
  174SOPE  H15S19775   1.515   5.768   9.267 -1.1641 -1.3432  0.0852
  174SOPE  C21619776   1.591   5.801   9.074  0.1685  0.4357 -0.5241
  174SOPE  H16R19777   1.558   5.908   9.080  1.0696  1.0135 -3.7264
  174SOPE  H16S19778   1.499   5.746   9.043 -1.6801  2.8149  0.4033
  174SOPE  C21719779   1.709   5.767   8.984 -0.9765 -0.2511  0.1743
  174SOPE  H17R19780   1.677   5.788   8.879 -0.2453  0.6928  0.1255
  174SOPE  H17S19781   1.729   5.658   8.973  3.0247  0.3815 -0.1106
  174SOPE  C21819782   1.846   5.832   9.020  0.1295  0.1727 -0.3178
  174SOPE  H18R19783   1.872   5.806   9.125  0.9705  1.0332 -0.2910
  174SOPE  H18S19784   1.853   5.942   9.005  2.5499  0.3214  1.3066
  174SOPE  H18T19785   1.928   5.781   8.964  2.2993  2.2524  0.7456
  174SOPE   C3319786   1.477   6.080   9.964 -0.2941  0.2478  0.9480
  174SOPE   H3X19787   1.368   6.063   9.981  0.0281 -0.2539  2.8161
  174SOPE   H3Y19788   1.523   5.996   9.909  0.9479  0.0523  2.2302
  174SOPE   C3419789   1.499   6.202   9.879 -0.4497  0.1468  0.7032
  174SOPE   H4X19790   1.602   6.237   9.902 -0.4807  0.2516  0.6784
  174SOPE   H4Y19791   1.424   6.283   9.887  0.5969  1.4114 -1.3818
  174SOPE   C3519792   1.502   6.173   9.721 -0.0428  0.2117 -0.5307
  174SOPE   H5X19793   1.584   6.105   9.689  2.1580  1.7535  1.4923
  174SOPE   H5Y19794   1.554   6.265   9.687  1.2264 -0.7517 -1.3032
  174SOPE   C3619795   1.367   6.144   9.654  0.3752 -0.4266 -0.5669
  174SOPE   H6X19796   1.292   6.222   9.675  1.5334  0.5085  0.2393
  174SOPE   H6Y19797   1.331   6.052   9.704  0.6717  0.8364  2.1597
  174SOPE   C3719798   1.382   6.126   9.506 -0.1561  0.1064 -0.0190
  174SOPE   H7X19799   1.470   6.064   9.481 -0.2994  0.5088 -1.6203
  174SOPE   H7Y19800   1.393   6.222   9.451  1.2436 -0.1477 -0.2129
  174SOPE   C3819801   1.260   6.060   9.438  0.3162 -0.3999  0.2381
  174SOPE   H8X19802   1.200   5.999   9.509  0.2628 -2.3720 -1.4069
  174SOPE   H8Y19803   1.292   6.005   9.347 -2.5066 -0.4675 -0.8102
  174SOPE   C3919804   1.150   6.163   9.392 -0.8212  0.2495  0.2524
  174SOPE   H9X19805   1.191   6.230   9.314 -0.0526 -1.1623 -0.6004
  174SOPE   H9Y19806   1.126   6.228   9.479 -0.8620 -0.9924  1.2041
  174SOPE  C31019807   1.019   6.105   9.339 -0.0238 -0.0300 -0.4167
  174SOPE  H10X19808   0.938   6.181   9.330 -0.0806 -0.2605 -2.2038
  174SOPE  H10Y19809   0.994   6.026   9.412  2.0556 -0.4854 -0.1323
  174SOPE  C31119810   1.039   6.043   9.210  0.0716  0.2921 -0.1532
  174SOPE  H11X19811   1.117   5.965   9.225  1.8141  2.3179  2.2149
  174SOPE  H11Y19812   1.069   6.134   9.154 -0.8269  0.8999  0.3346
  174SOPE  C31219813   0.906   5.992   9.158  0.6624 -0.5513  0.3467
  174SOPE  H12X19814   0.820   6.059   9.181 -0.3681 -2.4552  2.4088
  174SOPE  H12Y19815   0.869   5.902   9.212  0.0641 -0.8786 -0.5860
  174SOPE  C31319816   0.919   5.959   9.013  0.4542  0.3197  0.5515
  174SOPE  H13X19817   0.989   5.874   9.004  1.7362  1.2649  1.3168
  174SOPE  H13Y19818   0.962   6.049   8.964  0.1229  0.2748  0.1670
  174SOPE  C31419819   0.781   5.931   8.938 -0.6134 -0.9294  0.4602
  174SOPE  H14X19820   0.737   6.033   8.936  1.6051  0.0830 -0.0577
  174SOPE  H14Y19821   0.718   5.857   8.993  0.2281 -3.4511 -1.7309
  174SOPE  C31519822   0.805   5.884   8.795  0.1604  0.4079  0.4894
  174SOPE  H15X19823   0.812   5.773   8.784  2.9492  0.4929  0.7681
  174SOPE  H15Y19824   0.903   5.925   8.765  0.0103 -0.1105 -0.7579
  174SOPE  C31619825   0.695   5.914   8.691 -0.1537  0.2068  0.2849
  174SOPE  H16X19826   0.692   6.025   8.692  0.4079  0.3127 -2.2573
  174SOPE  H16Y19827   0.609   5.865   8.742  1.3457 -2.1959  0.7051
  174SOPE  C31719828   0.717   5.867   8.548  0.5607 -0.6243  0.3894
  174SOPE  H17X19829   0.624   5.887   8.491  2.1913  4.9829 -0.8619
  174SOPE  H17Y19830   0.742   5.760   8.563 -1.1502 -1.2321 -0.7061
  174SOPE  C31819831   0.816   5.942   8.466 -0.5363  0.0594 -0.1013
  174SOPE  H18X19832   0.814   5.910   8.360  0.7627 -0.5183  0.0373
  174SOPE  H18Y19833   0.924   5.940   8.493  0.1637  1.1902 -2.6130
  174SOPE  H18Z19834   0.780   6.047   8.457  0.9360  0.6132  0.1687
  175SOPE     N19835   2.897   1.577  10.843 -0.7154 -0.4963 -0.4291
  175SOPE   HN119836   2.906   1.495  10.906 -0.7564  0.9497  1.5982
  175SOPE   HN219837   2.951   1.660  10.876  0.2589 -1.1317 -0.3728
  175SOPE   HN319838   2.798   1.608  10.839 -0.7796 -0.3141  1.5951
  175SOPE   C1219839   2.943   1.536  10.712 -0.2674  0.2660  1.0531
  175SOPE  H12A19840   2.919   1.615  10.638  0.4156 -0.9658 -0.5283
  175SOPE  H12B19841   2.884   1.447  10.680 -0.8156  1.6738 -2.1865
  175SOPE   C1119842   3.094   1.498  10.707  0.0514 -0.2621 -0.2588
  175SOPE  H11A19843   3.121   1.451  10.611 -1.5887  1.4991 -1.6564
  175SOPE  H11B19844   3.114   1.438  10.799 -0.7691  0.5488  0.4808
  175SOPE     P19845   3.206   1.719  10.610 -0.0133 -0.1875  0.3482
  175SOPE   O1319846   3.354   1.715  10.594 -0.5680  0.1623  0.1159
  175SOPE   O1419847   3.139   1.848  10.647  0.2553 -0.2353  0.7316
  175SOPE   O1219848   3.167   1.619  10.723  0.1691 -0.1697  0.1294
  175SOPE   O1119849   3.135   1.655  10.478  0.4017 -0.1588 -0.4044
  175SOPE    C119850   3.212   1.594  10.375  0.5250  0.0727 -0.0177
  175SOPE    HA19851   3.252   1.498  10.414  0.1085  0.7632  2.2403
  175SOPE    HB19852   3.294   1.663  10.345  0.6674 -0.1093 -0.0480
  175SOPE    C219853   3.128   1.559  10.249  0.3891  0.6968  0.5859
  175SOPE    HS19854   3.195   1.521  10.169 -0.7970  1.1407 -0.6438
  175SOPE   O2119855   3.055   1.665  10.202  1.0392  0.0743 -0.0465
  175SOPE   C2119856   3.110   1.777  10.166  0.4479  0.5381  0.3022
  175SOPE   O2219857   3.226   1.809  10.188  0.5721  0.3500 -0.4977
  175SOPE   C2219858   3.002   1.860  10.093  0.5578 -0.0756 -0.1354
  175SOPE   H2R19859   2.912   1.863  10.158  0.4712  4.0205 -0.1839
  175SOPE   H2S19860   2.989   1.805   9.998  1.9413  1.1038 -1.0451
  175SOPE    C319861   3.027   1.443  10.276 -0.1722  0.1677  0.6619
  175SOPE    HX19862   2.932   1.493  10.303 -0.1304  0.7672 -0.2594
  175SOPE    HY19863   3.066   1.370  10.350  0.6031 -2.9244 -2.5451
  175SOPE   O3119864   3.005   1.365  10.150 -0.3847  0.2519 -0.1306
  175SOPE   C3119865   2.883   1.367  10.094  0.4077 -0.4850 -0.2437
  175SOPE   O3219866   2.784   1.417  10.142  0.1267 -0.0129  0.1374
  175SOPE   C3219867   2.888   1.319   9.957 -0.5811  0.1754 -0.2031
  175SOPE   H2X19868   2.926   1.215   9.956 -1.3253 -0.1636  1.5651
  175SOPE   H2Y19869   2.968   1.374   9.904 -1.8394  2.0262 -0.2981
  175SOPE   C2319870   3.033   2.004  10.060  0.3689  0.1050 -0.5053
  175SOPE   H3R19871   3.131   2.021  10.012  0.2144  1.1720 -0.4731
  175SOPE   H3S19872   3.039   2.051  10.160 -1.7369 -0.9901  0.1921
  175SOPE   C2419873   2.933   2.073   9.973  0.1594  0.7584 -0.3522
  175SOPE   H4R19874   2.937   2.034   9.869  0.3720  1.0620 -0.4600
  175SOPE   H4S19875   2.827   2.067  10.003 -0.0344  1.1865 -0.9209
  175SOPE   C2519876   2.950   2.222   9.944  0.0419  0.2386  0.0127
  175SOPE   H5R19877   2.946   2.272  10.043  2.3615 -0.0886  0.3232
  175SOPE   H5S19878   3.053   2.239   9.906  0.4383 -1.0539  0.4902
  175SOPE   C2619879   2.854   2.288   9.847  0.6568  0.7057  1.3838
  175SOPE   H6R19880   2.756   2.268   9.895 -0.8923  2.0017 -1.0558
  175SOPE   H6S19881   2.873   2.398   9.844 -1.2545  1.1589 -3.9572
  175SOPE   C2719882   2.878   2.247   9.695 -0.0452 -0.6451 -0.4012
  175SOPE   H7R19883   2.988   2.245   9.677  0.1444 -0.4627  0.6403
  175SOPE   H7S19884   2.845   2.142   9.687 -0.1541 -0.4525 -3.5058
  175SOPE   C2819885   2.811   2.339   9.593  0.0122  0.2942  0.4649
  175SOPE   H8R19886   2.792   2.284   9.498 -2.2246 -0.3773  1.2435
  175SOPE   H8S19887   2.707   2.355   9.627 -1.0067 -0.2677 -2.1509
  175SOPE   C2919888   2.889   2.470   9.571  0.1791 -0.5421 -0.5067
  175SOPE   H9119889   2.862   2.551   9.641 -0.0384 -2.9729  2.4083
  175SOPE  C21019890   2.979   2.495   9.478 -0.2521 -0.5600  0.0615
  175SOPE  H10119891   3.025   2.595   9.476 -3.7267  1.2117 -0.4461
  175SOPE  C21119892   3.037   2.403   9.370  0.0082 -0.5591  0.4898
  175SOPE  H11R19893   2.990   2.303   9.371 -0.3018 -0.5314 -2.4040
  175SOPE  H11S19894   3.147   2.395   9.378  0.0023 -0.1531  0.9972
  175SOPE  C21219895   2.993   2.484   9.238 -0.3891  0.1512  0.3055
  175SOPE  H12R19896   3.039   2.585   9.245  1.5516 -0.6905  0.3051
  175SOPE  H12S19897   2.882   2.488   9.234 -0.3326  0.8935 -1.2220
  175SOPE  C21319898   3.055   2.421   9.112  0.0439  0.7932 -0.2064
  175SOPE  H13R19899   3.028   2.313   9.110  0.9474  0.5746 -1.3105
  175SOPE  H13S19900   3.166   2.424   9.121  0.3365  0.7886 -2.9727
  175SOPE  C21419901   3.013   2.494   8.989  0.1508 -0.1708 -0.3644
  175SOPE  H14R19902   3.042   2.601   8.998  1.7041 -0.6184  0.3056
  175SOPE  H14S19903   2.905   2.491   8.963  0.5553 -1.4429 -2.0920
  175SOPE  C21519904   3.082   2.445   8.856 -0.4793 -0.0735 -0.4486
  175SOPE  H15R19905   3.061   2.337   8.838 -2.1729  0.1408  0.0561
  175SOPE  H15S19906   3.192   2.451   8.868 -0.6495 -0.2149  1.4925
  175SOPE  C21619907   3.035   2.523   8.737 -0.3523  0.1650 -0.0163
  175SOPE  H16R19908   3.056   2.631   8.751  0.4548 -0.0633  0.6330
  175SOPE  H16S19909   2.925   2.510   8.733 -0.2949 -0.1136 -1.2557
  175SOPE  C21719910   3.087   2.469   8.598 -0.3496  0.2217 -0.1942
  175SOPE  H17R19911   3.036   2.524   8.516  2.6567 -0.3383 -2.6231
  175SOPE  H17S19912   3.071   2.359   8.585  2.5378 -0.3517  0.3564
  175SOPE  C21819913   3.239   2.493   8.590 -0.6503 -1.1810  0.0686
  175SOPE  H18R19914   3.285   2.445   8.679 -1.4511 -0.0382  1.1249
  175SOPE  H18S19915   3.256   2.602   8.595 -1.1846 -1.0538 -0.6949
  175SOPE  H18T19916   3.272   2.460   8.489 -1.2421  0.4112 -0.6757
  175SOPE   C3319917   2.745   1.326   9.892  0.4469  0.0123 -0.1441
  175SOPE   H3X19918   2.710   1.431   9.896 -1.7090 -0.6831  0.9833
  175SOPE   H3Y19919   2.668   1.273   9.952 -1.3196  1.7775 -0.7557
  175SOPE   C3419920   2.747   1.270   9.748  0.3911 -0.4252  0.1037
  175SOPE   H4X19921   2.640   1.249   9.730  0.4324 -0.0769 -0.5841
  175SOPE   H4Y19922   2.793   1.170   9.764 -0.5145 -0.5870  1.9518
  175SOPE   C3519923   2.820   1.364   9.649 -0.5673 -0.2137  0.4884
  175SOPE   H5X19924   2.926   1.368   9.680 -0.1791 -2.2451 -0.4197
  175SOPE   H5Y19925   2.781   1.467   9.658  0.5219  0.2723 -0.2397
  175SOPE   C3619926   2.803   1.329   9.507  1.3654  0.4950  0.5183
  175SOPE   H6X19927   2.823   1.221   9.493  1.6563  0.4474  1.2869
  175SOPE   H6Y19928   2.875   1.386   9.445  0.6161 -0.3509 -1.2174
  175SOPE   C3719929   2.658   1.361   9.459  0.1260 -0.1177  0.4492
  175SOPE   H7X19930   2.620   1.459   9.494  2.4854  1.0723 -0.1372
  175SOPE   H7Y19931   2.598   1.282   9.509 -1.8723 -0.2633 -1.9959
  175SOPE   C3819932   2.635   1.351   9.309  0.1610  0.0654  0.1532
  175SOPE   H8X19933   2.689   1.430   9.253  1.1716 -0.4805  0.3190
  175SOPE   H8Y19934   2.526   1.367   9.295 -0.2763 -2.1659  0.5908
  175SOPE   C3919935   2.682   1.211   9.251 -0.7473 -0.2007  0.0963
  175SOPE   H9X19936   2.623   1.129   9.297 -0.3056 -0.2120  0.6579
  175SOPE   H9Y19937   2.789   1.198   9.280 -1.0660  1.1115  2.0310
  175SOPE  C31019938   2.677   1.194   9.100 -0.2859  0.4372  0.5104
  175SOPE  H10X19939   2.573   1.212   9.064  0.1838 -0.8879 -1.7243
  175SOPE  H10Y19940   2.703   1.090   9.070 -3.1846 -0.4985  0.8568
  175SOPE  C31119941   2.771   1.287   9.014  0.2775  0.6041 -0.5585
  175SOPE  H11X19942   2.870   1.284   9.064  0.4088  2.3016 -0.6641
  175SOPE  H11Y19943   2.738   1.393   9.014  0.8505  0.7868 -1.2267
  175SOPE  C31219944   2.785   1.244   8.866  0.4388  0.0355  0.1294
  175SOPE  H12X19945   2.799   1.134   8.866  0.6946  0.0611 -0.8718
  175SOPE  H12Y19946   2.872   1.297   8.821  0.0670  2.6698  2.2321
  175SOPE  C31319947   2.662   1.271   8.784  0.0359 -0.5059  0.4352
  175SOPE  H13X19948   2.619   1.370   8.813 -2.6402 -1.9526  1.7391
  175SOPE  H13Y19949   2.578   1.202   8.805 -1.3963  0.7256 -0.9961
  175SOPE  C31419950   2.678   1.297   8.637 -1.1208  0.4880 -0.4541
  175SOPE  H14X19951   2.685   1.200   8.582 -0.8599  1.6980 -2.6908
  175SOPE  H14Y19952   2.778   1.342   8.626 -1.1606  0.8181  0.4940
  175SOPE  C31519953   2.578   1.384   8.565  0.0473 -0.0891  0.2502
  175SOPE  H15X19954   2.607   1.398   8.459 -0.7799 -1.3060 -0.1646
  175SOPE  H15Y19955   2.565   1.484   8.611  0.2938  0.9417 -1.8051
  175SOPE  C31619956   2.437   1.319   8.576  0.0304 -0.0768 -0.1026
  175SOPE  H16X19957   2.413   1.307   8.684 -1.0906 -0.6512 -0.4030
  175SOPE  H16Y19958   2.430   1.218   8.531  0.0510  0.1165 -0.5527
  175SOPE  C31719959   2.330   1.411   8.515 -0.1766  0.1750  0.4275
  175SOPE  H17X19960   2.332   1.408   8.404  3.0734 -2.2127  0.4024
  175SOPE  H17Y19961   2.350   1.516   8.545 -0.2673  0.4406 -0.3907
  175SOPE  C31819962   2.192   1.375   8.570 -0.4046  0.0368  0.7264
  175SOPE  H18X19963   2.194   1.352   8.678  1.9077  1.8222  1.1390
  175SOPE  H18Y19964   2.151   1.299   8.499  0.9325  1.0927 -1.2950
  175SOPE  H18Z19965   2.123   1.461   8.557  0.0255  0.2565 -0.2308
  176SOPE     N19966   2.892   0.096  11.075 -0.0942 -0.4192  0.5087
  176SOPE   HN119967   2.807   0.147  11.108 -1.4514 -0.6556 -2.3263
  176SOPE   HN219968   2.867   0.072  10.977 -2.2456  0.4207  0.7908
  176SOPE   HN319969   2.910   0.005  11.122  3.4770 -0.4677 -0.6522
  176SOPE   C1219970   3.010   0.188  11.086  0.5076 -0.1967 -0.1310
  176SOPE  H12A19971   3.097   0.119  11.094 -0.3331 -1.2184  0.4507
  176SOPE  H12B19972   3.002   0.241  11.184  1.2989 -0.2835 -0.0160
  176SOPE   C1119973   3.029   0.275  10.956 -0.2478  0.5541 -0.4409
  176SOPE  H11A19974   3.039   0.213  10.864 -0.7996  2.4901 -1.8815
  176SOPE  H11B19975   3.131   0.317  10.961  0.1153 -0.2031 -1.2871
  176SOPE     P19976   2.879   0.455  10.840  0.1078 -0.1694 -0.1483
  176SOPE   O1319977   2.909   0.594  10.866  0.1785 -0.3450  0.3127
  176SOPE   O1419978   2.738   0.416  10.815  0.5046  0.4666  0.7676
  176SOPE   O1219979   2.930   0.378  10.969 -0.6052  0.5189 -0.8922
  176SOPE   O1119980   2.977   0.392  10.722 -0.0700 -0.1332  0.6356
  176SOPE    C119981   3.095   0.461  10.675 -0.0936  0.0741 -0.5185
  176SOPE    HA19982   3.158   0.393  10.614 -1.0962  0.7298 -2.3588
  176SOPE    HB19983   3.164   0.497  10.755  2.2927 -2.0604 -1.4904
  176SOPE    C219984   3.060   0.576  10.572 -0.3002  0.3516 -0.0847
  176SOPE    HS19985   2.986   0.637  10.628 -0.1452  0.6902 -0.2427
  176SOPE   O2119986   3.007   0.499  10.465  0.0250 -0.0152 -0.2394
  176SOPE   C2119987   2.897   0.551  10.411  0.0277  0.1585 -0.3508
  176SOPE   O2219988   2.850   0.659  10.442  0.5016 -0.4005 -0.0077
  176SOPE   C2219989   2.840   0.462  10.303 -0.3770  0.0416  0.1141
  176SOPE   H2R19990   2.919   0.387  10.284 -0.5438  0.1580 -1.1401
  176SOPE   H2S19991   2.836   0.529  10.215  1.4697  1.7683  1.2595
  176SOPE    C319992   3.170   0.662  10.528 -0.3045 -0.3882 -0.1763
  176SOPE    HX19993   3.262   0.599  10.526  0.3777  0.6127 -1.1493
  176SOPE    HY19994   3.184   0.738  10.608 -1.6164 -0.0658 -0.2308
  176SOPE   O3119995   3.144   0.730  10.406 -0.6356  0.3314  0.0847
  176SOPE   C3119996   3.252   0.737  10.333  0.0732  0.6341 -0.1879
  176SOPE   O3219997   3.364   0.705  10.366 -0.6312  0.2455  0.4776
  176SOPE   C3219998   3.214   0.785  10.197 -0.6528  0.1010  0.8476
  176SOPE   H2X19999   3.309   0.787  10.140  0.0455 -2.5756  1.7770
  176SOPE   H2Y20000   3.177   0.889  10.209 -0.1288  0.3996 -0.0412
  176SOPE   C2320001   2.711   0.389  10.345  0.0321  0.2472 -0.4613
  176SOPE   H3R20002   2.722   0.355  10.450 -0.6167 -0.3894 -0.5886
  176SOPE   H3S20003   2.706   0.290  10.295  2.4528  0.1271 -0.5766
  176SOPE   C2420004   2.588   0.477  10.345 -0.1877  0.1909  0.0837
  176SOPE   H4R20005   2.496   0.433  10.388  1.3862 -2.0196  1.4152
  176SOPE   H4S20006   2.613   0.572  10.397  1.7867  1.2514 -2.5579
  176SOPE   C2520007   2.550   0.507  10.193 -0.2183  0.2495  0.7835
  176SOPE   H5R20008   2.482   0.595  10.196  0.7506  1.0087  0.8972
  176SOPE   H5S20009   2.628   0.567  10.142 -1.3640 -0.6753 -2.2452
  176SOPE   C2620010   2.506   0.390  10.106 -0.0104  0.2748 -0.4581
  176SOPE   H6R20011   2.587   0.326  10.066 -0.6206 -1.1103  0.4094
  176SOPE   H6S20012   2.464   0.319  10.181  0.7629 -1.7003 -1.8062
  176SOPE   C2720013   2.403   0.415  10.001 -0.9475 -0.9010  0.2132
  176SOPE   H7R20014   2.315   0.462  10.049 -1.4780 -1.6081 -0.0535
  176SOPE   H7S20015   2.437   0.499   9.938  3.3128 -1.2384  1.7249
  176SOPE   C2820016   2.387   0.295   9.905  0.0312 -0.5548 -0.1345
  176SOPE   H8R20017   2.358   0.202   9.957  1.5944 -2.4421 -2.4304
  176SOPE   H8S20018   2.295   0.317   9.846  0.3392 -2.1150 -1.2508
  176SOPE   C2920019   2.499   0.269   9.809  0.1826  0.2542  0.2433
  176SOPE   H9120020   2.582   0.220   9.863  1.4861  2.0627 -0.0240
  176SOPE  C21020021   2.521   0.313   9.682 -0.0578  0.0359  0.0385
  176SOPE  H10120022   2.603   0.273   9.621 -0.2465 -1.5651  0.7708
  176SOPE  C21120023   2.425   0.404   9.604 -0.3966 -0.0912 -0.4249
  176SOPE  H11R20024   2.469   0.507   9.599 -0.6686  0.1809  1.7670
  176SOPE  H11S20025   2.332   0.404   9.663 -1.5085  0.1770 -2.1053
  176SOPE  C21220026   2.387   0.352   9.466  0.0166  0.3390  0.9240
  176SOPE  H12R20027   2.481   0.313   9.422 -0.1737  2.4164 -1.5318
  176SOPE  H12S20028   2.354   0.440   9.407 -1.0883  0.3665  1.5509
  176SOPE  C21320029   2.273   0.246   9.461  0.2485  0.9691 -0.9022
  176SOPE  H13R20030   2.174   0.295   9.475 -0.7550 -0.9487 -0.9488
  176SOPE  H13S20031   2.301   0.189   9.552  0.7948  0.8398 -1.1462
  176SOPE  C21420032   2.281   0.148   9.344 -0.3686 -0.1159 -0.3591
  176SOPE  H14R20033   2.211   0.063   9.352 -1.5983  1.0363  2.1214
  176SOPE  H14S20034   2.381   0.101   9.334  1.1661  2.9696 -0.8681
  176SOPE  C21520035   2.249   0.220   9.218 -0.8093 -0.7887 -0.5918
  176SOPE  H15R20036   2.315   0.309   9.205 -1.5158 -0.0601  0.6253
  176SOPE  H15S20037   2.152   0.273   9.221  1.4758  4.1702 -2.6334
  176SOPE  C21620038   2.258   0.145   9.090 -0.3113  0.0842  0.2213
  176SOPE  H16R20039   2.201   0.051   9.105  1.0090 -0.6788  0.6446
  176SOPE  H16S20040   2.365   0.120   9.071 -0.4648 -0.0196 -0.5041
  176SOPE  C21720041   2.212   0.225   8.970  0.7190  0.1530 -0.4542
  176SOPE  H17R20042   2.110   0.262   8.995 -0.5319 -2.9674 -0.5140
  176SOPE  H17S20043   2.196   0.158   8.883  0.9336 -0.2721 -0.1719
  176SOPE  C21820044   2.300   0.346   8.927 -0.8934  0.2953  0.2678
  176SOPE  H18R20045   2.404   0.309   8.917 -1.3869 -1.3942  1.0834
  176SOPE  H18S20046   2.307   0.416   9.013  0.2548 -0.1109  0.5156
  176SOPE  H18T20047   2.267   0.385   8.828 -2.2096  0.0494  0.5939
  176SOPE   C3320048   3.106   0.701  10.117  0.3532 -0.2160  0.4520
  176SOPE   H3X20049   3.015   0.708  10.179  0.0721  1.9234 -0.1367
  176SOPE   H3Y20050   3.144   0.598  10.102 -2.4868 -1.1204 -1.1994
  176SOPE   C3420051   3.068   0.758   9.978  0.1191  0.5728 -0.2967
  176SOPE   H4X20052   3.153   0.752   9.908  0.2218  0.4735 -0.1637
  176SOPE   H4Y20053   3.044   0.865   9.999 -0.5275  0.4205 -0.2359
  176SOPE   C3520054   2.937   0.697   9.920  0.0240 -1.0256  0.0625
  176SOPE   H5X20055   2.882   0.763   9.849  0.6192 -0.0672  0.4804
  176SOPE   H5Y20056   2.867   0.682  10.005  0.9972 -0.1641  1.0450
  176SOPE   C3620057   2.955   0.563   9.865 -0.1541  0.9322 -0.1071
  176SOPE   H6X20058   2.854   0.523   9.842  0.6516 -0.8708 -0.6816
  176SOPE   H6Y20059   3.001   0.486   9.930  1.4228  1.1963 -0.8562
  176SOPE   C3720060   3.040   0.556   9.736 -0.1252 -0.0603  0.5291
  176SOPE   H7X20061   3.085   0.454   9.738  0.2059 -0.1555 -3.3341
  176SOPE   H7Y20062   3.121   0.632   9.735  0.1782 -0.2595 -3.0619
  176SOPE   C3820063   2.960   0.562   9.603  0.1368 -0.0079  0.2276
  176SOPE   H8X20064   2.900   0.656   9.604 -3.8935 -2.3221 -1.6413
  176SOPE   H8Y20065   2.888   0.479   9.615 -0.5970  0.8271  2.1250
  176SOPE   C3920066   3.047   0.544   9.480 -0.2227  0.1063  0.3717
  176SOPE   H9X20067   3.078   0.438   9.474 -1.4184 -0.2331 -0.0986
  176SOPE   H9Y20068   3.138   0.608   9.484 -0.5491  0.5789  0.3217
  176SOPE  C31020069   2.963   0.575   9.350 -0.2766  0.1352 -0.5250
  176SOPE  H10X20070   3.034   0.583   9.265 -1.6484 -0.5052 -1.7682
  176SOPE  H10Y20071   2.927   0.680   9.347  3.0226  1.3948 -0.8899
  176SOPE  C31120072   2.850   0.480   9.310 -0.9171 -0.6858  0.0319
  176SOPE  H11X20073   2.749   0.524   9.295 -0.3042  0.3707 -1.1200
  176SOPE  H11Y20074   2.847   0.408   9.395  0.3401 -1.6019 -0.6619
  176SOPE  C31220075   2.884   0.401   9.182 -0.3899 -0.1795  0.6415
  176SOPE  H12X20076   2.961   0.321   9.195  0.1883  0.4480  1.1156
  176SOPE  H12Y20077   2.928   0.483   9.121 -0.8154 -0.7099 -0.4142
  176SOPE  C31320078   2.759   0.328   9.125 -0.4059 -0.7854 -0.5007
  176SOPE  H13X20079   2.694   0.409   9.085  1.4506  1.8462  1.4245
  176SOPE  H13Y20080   2.708   0.277   9.210  0.5696 -1.7574 -0.4908
  176SOPE  C31420081   2.794   0.220   9.019  0.0755  0.3854 -0.4009
  176SOPE  H14X20082   2.864   0.156   9.076 -0.3821  1.3241  1.2755
  176SOPE  H14Y20083   2.860   0.277   8.950  0.3013  0.5941 -0.0171
  176SOPE  C31520084   2.673   0.158   8.953 -0.0070 -0.0013  0.4251
  176SOPE  H15X20085   2.640   0.239   8.885  0.9723 -0.4191 -0.5774
  176SOPE  H15Y20086   2.594   0.156   9.030  0.6103  1.4085  1.1288
  176SOPE  C31620087   2.702   0.024   8.878 -0.6396 -0.1422 -0.1215
  176SOPE  H16X20088   2.737  -0.048   8.955  0.9341  0.5190 -0.1953
  176SOPE  H16Y20089   2.790   0.027   8.811  1.0963  0.9399  2.0631
  176SOPE  C31720090   2.576  -0.032   8.799 -0.0380  0.0716 -0.4414
  176SOPE  H17X20091   2.485  -0.009   8.858  1.1333  0.4900  1.2768
  176SOPE  H17Y20092   2.595  -0.141   8.787  0.3335  0.1741 -0.8250
  176SOPE  C31820093   2.565   0.028   8.658 -0.7734 -0.2069  0.3336
  176SOPE  H18X20094   2.660   0.007   8.605  0.3394 -1.4179  2.6230
  176SOPE  H18Y20095   2.558   0.138   8.671  0.9500  0.0244 -0.5015
  176SOPE  H18Z20096   2.474   0.005   8.599  0.5308  1.6490 -2.5944
  177SOPE     N20097   4.044   4.787  10.933  0.2428  0.4460 -0.1678
  177SOPE   HN120098   4.027   4.736  10.844  2.4852  1.7098 -1.4417
  177SOPE   HN220099   4.134   4.753  10.973  0.1769 -0.6305 -0.8888
  177SOPE   HN320100   3.959   4.776  10.992  0.4452  1.4157  0.3246
  177SOPE   C1220101   4.058   4.934  10.899  0.3148  0.4279 -0.2538
  177SOPE  H12A20102   4.148   4.945  10.834  1.0302 -1.8494  0.2289
  177SOPE  H12B20103   4.085   4.973  10.999 -1.8222 -0.5389  0.7430
  177SOPE   C1120104   3.925   4.995  10.843 -0.2708  0.3208  0.1924
  177SOPE  H11A20105   3.911   4.941  10.746 -0.8348 -0.1062  0.5053
  177SOPE  H11B20106   3.955   5.099  10.818  0.6224  0.2177  0.8042
  177SOPE     P20107   3.725   5.123  10.946  0.0760  0.0045  0.1985
  177SOPE   O1320108   3.811   5.247  10.971  0.4632 -0.4500  1.0150
  177SOPE   O1420109   3.614   5.098  11.040  0.6581 -0.2410  0.0426
  177SOPE   O1220110   3.816   4.996  10.930  0.1096  0.1711 -0.0966
  177SOPE   O1120111   3.678   5.142  10.798 -0.0169  0.1759  0.0591
  177SOPE    C120112   3.610   5.030  10.726  0.8450 -1.0151  0.1326
  177SOPE    HA20113   3.500   5.028  10.746  0.8405 -0.9250  0.1202
  177SOPE    HB20114   3.653   4.931  10.752  2.1889 -0.6337 -0.5849
  177SOPE    C220115   3.630   5.043  10.571 -0.0227 -1.2087 -0.5245
  177SOPE    HS20116   3.740   5.039  10.558  0.3319 -1.3203  1.9664
  177SOPE   O2120117   3.575   5.171  10.519  0.0125 -0.3597 -0.2893
  177SOPE   C2120118   3.637   5.225  10.410  0.1411  0.0941 -0.2491
  177SOPE   O2220119   3.750   5.197  10.368  0.0927  0.9899  0.4064
  177SOPE   C2220120   3.538   5.322  10.356 -0.7222  0.1311  0.4210
  177SOPE   H2R20121   3.526   5.395  10.439  1.9166  1.1699 -0.0118
  177SOPE   H2S20122   3.443   5.267  10.339  0.7957 -2.3657 -0.6070
  177SOPE    C320123   3.564   4.918  10.500  0.0490 -0.6555 -0.3132
  177SOPE    HX20124   3.455   4.921  10.519  0.2888  1.2537  1.0161
  177SOPE    HY20125   3.596   4.819  10.538 -3.8179 -2.1339 -0.4616
  177SOPE   O3120126   3.581   4.937  10.357 -0.4214 -0.3356 -0.0119
  177SOPE   C3120127   3.695   4.893  10.301  0.2428 -0.6682  0.3905
  177SOPE   O3220128   3.790   4.842  10.361  1.1239  0.1271  0.1532
  177SOPE   C3220129   3.683   4.919  10.147  0.2066 -0.2354 -1.2818
  177SOPE   H2X20130   3.605   4.994  10.123 -0.9283 -1.4059 -1.3379
  177SOPE   H2Y20131   3.660   4.821  10.100 -0.2292 -1.1935  0.8286
  177SOPE   C2320132   3.583   5.400  10.233 -0.8192 -0.3890  0.5803
  177SOPE   H3R20133   3.689   5.430  10.243 -1.5539  2.2052  1.3606
  177SOPE   H3S20134   3.528   5.496  10.224  0.2650  0.2679  0.7955
  177SOPE   C2420135   3.569   5.315  10.107  0.6955 -0.5795  0.3526
  177SOPE   H4R20136   3.640   5.230  10.096 -1.0426 -2.0333 -0.2037
  177SOPE   H4S20137   3.466   5.282  10.084  0.6648  0.8902 -1.9441
  177SOPE   C2520138   3.607   5.399   9.981  0.7197  0.4010  0.0404
  177SOPE   H5R20139   3.541   5.489   9.982  0.0544 -0.0245  2.6156
  177SOPE   H5S20140   3.713   5.432   9.994  0.2283  1.7570  0.8990
  177SOPE   C2620141   3.596   5.321   9.846  0.1119 -0.1193 -0.0201
  177SOPE   H6R20142   3.627   5.215   9.861 -0.2949 -0.3014 -0.4714
  177SOPE   H6S20143   3.490   5.321   9.816 -1.0230 -0.1475  3.5110
  177SOPE   C2720144   3.689   5.393   9.736 -0.0843 -0.4441  0.0868
  177SOPE   H7R20145   3.690   5.502   9.760 -1.9746  0.2167 -2.3988
  177SOPE   H7S20146   3.787   5.346   9.755 -0.6330 -0.4342  3.7238
  177SOPE   C2820147   3.651   5.385   9.592  0.2747  0.7884  0.5399
  177SOPE   H8R20148   3.556   5.439   9.573  0.1925  1.2067  1.9824
  177SOPE   H8S20149   3.721   5.443   9.528 -1.1602 -0.2186 -2.0892
  177SOPE   C2920150   3.635   5.244   9.542  0.6472 -0.0362  0.2966
  177SOPE   H9120151   3.638   5.158   9.610  0.5821 -1.1952 -1.1047
  177SOPE  C21020152   3.631   5.211   9.412  0.6182  0.0910  0.0870
  177SOPE  H10120153   3.633   5.106   9.379  1.9684 -0.1412  0.8587
  177SOPE  C21120154   3.634   5.296   9.288 -0.1001  0.0212  0.3791
  177SOPE  H11R20155   3.660   5.400   9.314 -1.0651  0.2821  0.3489
  177SOPE  H11S20156   3.529   5.297   9.250  0.4035 -0.6230 -1.1284
  177SOPE  C21220157   3.734   5.250   9.178  0.7890  0.6193  0.2039
  177SOPE  H12R20158   3.719   5.307   9.084  0.3468  1.4757  0.7773
  177SOPE  H12S20159   3.717   5.142   9.159  0.9236  0.9531 -2.0504
  177SOPE  C21320160   3.886   5.282   9.216  0.0916  0.0048  0.6542
  177SOPE  H13R20161   3.910   5.214   9.300  1.2193  0.0829  0.4106
  177SOPE  H13S20162   3.891   5.388   9.250 -1.1419 -0.1972  1.5402
  177SOPE  C21420163   3.973   5.262   9.090 -0.5839 -0.6791 -0.1439
  177SOPE  H14R20164   4.080   5.283   9.112 -0.0936 -0.4340 -2.4994
  177SOPE  H14S20165   3.941   5.333   9.012  1.1310 -0.1707 -0.4257
  177SOPE  C21520166   3.975   5.119   9.029 -0.1110 -0.5000 -0.2023
  177SOPE  H15R20167   3.870   5.087   9.011  0.4247 -2.7598  0.3363
  177SOPE  H15S20168   4.014   5.046   9.103  0.8469  0.5184  0.3235
  177SOPE  C21620169   4.047   5.118   8.891  0.7096  0.7467 -0.1037
  177SOPE  H16R20170   4.155   5.137   8.907  0.7000 -0.6483  2.0605
  177SOPE  H16S20171   4.011   5.216   8.853 -0.2358  0.4741  0.0596
  177SOPE  C21720172   4.011   5.004   8.791 -0.1718  0.0724  0.2025
  177SOPE  H17R20173   4.070   5.025   8.699  1.0033 -2.8454  0.1934
  177SOPE  H17S20174   3.903   5.007   8.764 -0.1458  2.1635  0.1523
  177SOPE  C21820175   4.048   4.865   8.849 -0.5136 -0.3261  0.5280
  177SOPE  H18R20176   4.158   4.859   8.845  0.0081  4.7475  0.9251
  177SOPE  H18S20177   3.994   4.783   8.795 -0.0429 -0.6128  0.4882
  177SOPE  H18T20178   4.018   4.869   8.955 -0.5417  2.0254  0.4795
  177SOPE   C3320179   3.829   4.963  10.108 -0.3264 -0.0240  0.4801
  177SOPE   H3X20180   3.903   4.881  10.122 -1.0872 -0.8961 -0.4201
  177SOPE   H3Y20181   3.870   5.050  10.164  0.2446 -0.7533  1.2323
  177SOPE   C3420182   3.862   4.998   9.960  0.4869 -0.7940 -0.1849
  177SOPE   H4X20183   3.965   5.039   9.953 -1.1377  3.8780 -0.6740
  177SOPE   H4Y20184   3.795   5.083   9.934 -0.0380 -1.2337 -0.2568
  177SOPE   C3520185   3.845   4.882   9.860  0.2569 -0.1281  0.6246
  177SOPE   H5X20186   3.754   4.821   9.875  0.0771 -0.1696 -0.5086
  177SOPE   H5Y20187   3.933   4.815   9.859 -0.6796 -1.5618 -2.8971
  177SOPE   C3620188   3.827   4.923   9.710 -0.0470 -0.1471  0.3436
  177SOPE   H6X20189   3.902   5.003   9.690 -1.4179  1.0284 -0.2802
  177SOPE   H6Y20190   3.737   4.984   9.687 -0.3514 -0.0667  1.6727
  177SOPE   C3720191   3.843   4.811   9.616  0.5400  0.2467 -0.2226
  177SOPE   H7X20192   3.752   4.748   9.611  1.1248 -1.1352  3.3587
  177SOPE   H7Y20193   3.928   4.757   9.664  1.2648  0.8489 -0.8059
  177SOPE   C3820194   3.906   4.854   9.483 -0.3244  0.3302  0.5279
  177SOPE   H8X20195   3.991   4.924   9.498 -2.4294  2.6649  2.4065
  177SOPE   H8Y20196   3.827   4.912   9.430  0.0553  1.2182  0.9053
  177SOPE   C3920197   3.946   4.734   9.404  0.0125  0.7171 -0.0399
  177SOPE   H9X20198   3.853   4.674   9.419  0.3876  0.5292  1.8620
  177SOPE   H9Y20199   4.033   4.676   9.439 -0.0442  0.7027  0.0788
  177SOPE  C31020200   3.972   4.764   9.256 -0.5506  0.2426  1.1881
  177SOPE  H10X20201   4.072   4.811   9.246  0.2701 -1.3168  1.6982
  177SOPE  H10Y20202   3.898   4.836   9.216 -0.0927  0.6180  1.0016
  177SOPE  C31120203   3.968   4.635   9.172 -0.5476  0.1814  0.5168
  177SOPE  H11X20204   3.956   4.648   9.062 -0.1903  2.3727  0.6881
  177SOPE  H11Y20205   3.877   4.580   9.205 -1.4116  0.2313 -1.5918
  177SOPE  C31220206   4.100   4.554   9.188  0.2523 -0.1782  0.2157
  177SOPE  H12X20207   4.127   4.511   9.286  0.7237 -2.9987 -1.0559
  177SOPE  H12Y20208   4.184   4.626   9.179 -0.5080  0.6594 -0.3788
  177SOPE  C31320209   4.121   4.434   9.093  0.0168 -0.2933  0.0335
  177SOPE  H13X20210   4.137   4.469   8.989  0.5581  0.7557  0.4578
  177SOPE  H13Y20211   4.025   4.378   9.091 -1.4884  2.1395 -0.8167
  177SOPE  C31420212   4.235   4.343   9.118 -0.6178  0.0861 -0.2624
  177SOPE  H14X20213   4.252   4.310   9.223 -1.4528  1.5569  0.3667
  177SOPE  H14Y20214   4.321   4.406   9.088 -1.3959  1.4256  0.2408
  177SOPE  C31520215   4.237   4.227   9.029 -0.3056 -0.2905  1.2329
  177SOPE  H15X20216   4.211   4.256   8.925 -3.0229  0.6514  2.0865
  177SOPE  H15Y20217   4.160   4.155   9.063 -1.1298  0.7513  1.6264
  177SOPE  C31620218   4.369   4.152   9.033  0.1812  0.0662  0.8538
  177SOPE  H16X20219   4.347   4.060   8.975  1.0377  0.7272 -0.5767
  177SOPE  H16Y20220   4.391   4.115   9.136  1.0562  0.8561  0.9676
  177SOPE  C31720221   4.493   4.224   8.991 -0.6204 -0.1651 -0.8152
  177SOPE  H17X20222   4.579   4.155   9.005  0.4572  1.0248 -1.3929
  177SOPE  H17Y20223   4.496   4.317   9.051  1.2205 -0.6802 -0.0233
  177SOPE  C31820224   4.492   4.272   8.845 -0.2132 -0.1907  0.4523
  177SOPE  H18X20225   4.425   4.359   8.834 -1.5742 -1.2334  0.2959
  177SOPE  H18Y20226   4.463   4.190   8.777  1.3971 -1.8970  1.6953
  177SOPE  H18Z20227   4.592   4.318   8.826 -1.6307  2.2262 -1.7154
  178SOPE     N20228   5.528   2.005  10.529 -0.3561 -0.4783 -0.2656
  178SOPE   HN120229   5.481   2.096  10.549 -0.9790 -0.6526 -0.8889
  178SOPE   HN220230   5.590   2.032  10.450  0.8584 -0.7295  0.5681
  178SOPE   HN320231   5.461   1.927  10.516 -1.9252  0.5840  1.0667
  178SOPE   C1220232   5.617   1.959  10.636  0.2895  0.1854 -0.0364
  178SOPE  H12A20233   5.567   1.953  10.735  2.5040 -0.0187  1.1317
  178SOPE  H12B20234   5.698   2.034  10.646  0.2009  0.2998 -0.1622
  178SOPE   C1120235   5.659   1.819  10.601 -0.0265 -0.0456  0.6020
  178SOPE  H11A20236   5.729   1.828  10.516 -1.4198  2.3654 -0.3881
  178SOPE  H11B20237   5.571   1.755  10.577  2.1778 -2.7083 -0.9414
  178SOPE     P20238   5.878   1.775  10.742  0.5547 -0.1458  0.1798
  178SOPE   O1320239   5.916   1.693  10.853  0.1294  0.6315 -0.1309
  178SOPE   O1420240   5.913   1.918  10.755  0.5919  0.2667  0.3821
  178SOPE   O1220241   5.724   1.763  10.719 -0.0655 -0.5831  0.5126
  178SOPE   O1120242   5.945   1.734  10.604  0.6002 -0.1245  0.3899
  178SOPE    C120243   5.986   1.596  10.589  0.1437  0.5571 -0.7233
  178SOPE    HA20244   5.896   1.532  10.587  1.3631 -1.4713  2.2909
  178SOPE    HB20245   6.038   1.557  10.679 -3.6739 -1.2785  0.9132
  178SOPE    C220246   6.083   1.570  10.464  0.5179 -1.1895 -0.2568
  178SOPE    HS20247   6.179   1.605  10.507  0.3982  0.4113 -1.1748
  178SOPE   O2120248   6.043   1.650  10.352 -0.4658  0.1791  0.2655
  178SOPE   C2120249   6.110   1.757  10.326  0.2814  0.0788 -0.0412
  178SOPE   O2220250   6.192   1.821  10.390 -0.2892 -0.0580 -0.6282
  178SOPE   C2220251   6.052   1.808  10.192 -0.4392 -0.4702 -0.0259
  178SOPE   H2R20252   5.944   1.828  10.206  0.1860  1.3300  3.3110
  178SOPE   H2S20253   6.059   1.729  10.114  0.6308 -0.8785  0.4463
  178SOPE    C320254   6.093   1.423  10.420  0.3525  0.2986 -0.1420
  178SOPE    HX20255   5.990   1.384  10.431  0.9749 -1.0116  1.4862
  178SOPE    HY20256   6.155   1.372  10.497 -0.7967  0.8323  1.1669
  178SOPE   O3120257   6.161   1.407  10.289 -0.3586  0.7573 -0.1451
  178SOPE   C3120258   6.140   1.279  10.248 -0.0844 -0.0954 -0.0927
  178SOPE   O3220259   6.083   1.189  10.302  0.6016 -0.1952  0.0608
  178SOPE   C3220260   6.226   1.250  10.129  0.1032  0.1940  0.1818
  178SOPE   H2X20261   6.270   1.149  10.117  2.3051  1.0952  0.2678
  178SOPE   H2Y20262   6.315   1.317  10.127 -0.3222  0.8661  1.9208
  178SOPE   C2320263   6.129   1.928  10.129 -0.5535 -0.1097  0.1546
  178SOPE   H3R20264   6.238   1.905  10.127 -0.6989 -0.7895 -0.1970
  178SOPE   H3S20265   6.128   2.021  10.190  1.3430  0.1494 -0.1658
  178SOPE   C2420266   6.091   1.967   9.981  0.1039  0.2450  0.0778
  178SOPE   H4R20267   6.063   1.875   9.925  2.4332 -0.9742  0.7620
  178SOPE   H4S20268   5.997   2.024   9.989  1.2805  2.4100 -0.7970
  178SOPE   C2520269   6.194   2.065   9.925 -0.1636  0.7105 -0.4410
  178SOPE   H5R20270   6.197   2.146  10.000 -0.0204 -0.1910  0.5448
  178SOPE   H5S20271   6.292   2.012   9.926 -0.5607 -0.0334  0.9847
  178SOPE   C2620272   6.172   2.115   9.781  0.2823 -0.5404  0.5532
  178SOPE   H6R20273   6.071   2.160   9.770 -0.2565 -2.1200 -1.6538
  178SOPE   H6S20274   6.240   2.201   9.760 -2.6944  1.5634 -1.2761
  178SOPE   C2720275   6.182   2.010   9.676 -0.0833 -0.9838 -0.7666
  178SOPE   H7R20276   6.290   1.984   9.671  1.0770  2.4482  1.8686
  178SOPE   H7S20277   6.132   1.914   9.698 -0.3306 -1.0936 -1.7622
  178SOPE   C2820278   6.131   2.066   9.544  0.7172  0.4009  0.7859
  178SOPE   H8R20279   6.021   2.083   9.546  0.8616  1.4100  0.8981
  178SOPE   H8S20280   6.160   2.173   9.534 -1.2685  1.2338  2.8314
  178SOPE   C2920281   6.174   1.983   9.432 -0.4283  0.6426  0.1470
  178SOPE   H9120282   6.280   1.983   9.406 -1.1121 -3.3601 -3.8217
  178SOPE  C21020283   6.096   1.905   9.360 -0.0218 -0.2204  0.1204
  178SOPE  H10120284   6.138   1.838   9.282  1.1280  2.9358 -2.1854
  178SOPE  C21120285   5.948   1.897   9.381  0.3954  0.7551 -0.0264
  178SOPE  H11R20286   5.896   1.993   9.359 -1.4190  0.0672  1.0210
  178SOPE  H11S20287   5.921   1.859   9.482 -0.3822 -1.3717 -0.9660
  178SOPE  C21220288   5.879   1.786   9.297  0.8537 -0.2008  0.1084
  178SOPE  H12R20289   5.775   1.782   9.335  0.2128  0.9523 -1.4436
  178SOPE  H12S20290   5.928   1.686   9.302 -0.8804 -1.0993  0.1363
  178SOPE  C21320291   5.867   1.829   9.160 -0.0414 -0.5359 -0.5272
  178SOPE  H13R20292   5.969   1.851   9.122  0.0811  1.6928  0.9548
  178SOPE  H13S20293   5.808   1.922   9.171  0.8804  0.1753 -1.4005
  178SOPE  C21420294   5.813   1.727   9.056  0.1217  0.3195  0.2552
  178SOPE  H14R20295   5.718   1.682   9.091  0.8140 -0.4371  1.2081
  178SOPE  H14S20296   5.885   1.642   9.056  0.0369  0.2212  1.6898
  178SOPE  C21520297   5.791   1.786   8.917  0.3739  0.3755  0.4420
  178SOPE  H15R20298   5.887   1.809   8.866  0.6506 -0.1940  0.6935
  178SOPE  H15S20299   5.740   1.884   8.922  0.1149  0.4433 -2.3732
  178SOPE  C21620300   5.707   1.693   8.827 -0.3521 -0.3780 -0.6275
  178SOPE  H16R20301   5.603   1.695   8.867  0.1240 -3.0355  0.9549
  178SOPE  H16S20302   5.741   1.587   8.836  0.2784  0.0244  3.5977
  178SOPE  C21720303   5.701   1.745   8.684 -0.3544  0.4253 -0.1764
  178SOPE  H17R20304   5.801   1.736   8.636  0.1976 -1.5533  1.2094
  178SOPE  H17S20305   5.662   1.848   8.695 -2.3916 -0.2776 -0.3915
  178SOPE  C21820306   5.603   1.668   8.602  1.0038  0.6649 -0.1605
  178SOPE  H18R20307   5.598   1.709   8.499 -0.8366 -0.3538 -0.5019
  178SOPE  H18S20308   5.497   1.668   8.633  0.7409 -1.5291 -0.9132
  178SOPE  H18T20309   5.642   1.565   8.590  0.6798  0.2043  2.2885
  178SOPE   C3320310   6.144   1.293  10.002  0.4245 -0.1341  0.2996
  178SOPE   H3X20311   6.073   1.377  10.020  0.8450  1.1496 -3.3031
  178SOPE   H3Y20312   6.093   1.200   9.967  4.3031 -2.7397  0.9278
  178SOPE   C3420313   6.229   1.348   9.891  0.4830  0.7653 -0.0842
  178SOPE   H4X20314   6.290   1.260   9.863  0.6860  1.1514 -0.8804
  178SOPE   H4Y20315   6.309   1.414   9.930 -0.3300  0.8623  1.5294
  178SOPE   C3520316   6.145   1.387   9.771 -0.9609  0.5159 -0.1997
  178SOPE   H5X20317   6.141   1.498   9.768 -0.5807  0.5763  1.1506
  178SOPE   H5Y20318   6.044   1.341   9.777 -0.6532 -0.0438  0.9384
  178SOPE   C3620319   6.214   1.338   9.640  0.3781 -0.6643  0.2194
  178SOPE   H6X20320   6.212   1.227   9.648 -1.1208 -0.6331  0.6252
  178SOPE   H6Y20321   6.320   1.370   9.633 -0.0136  0.2735 -2.6683
  178SOPE   C3720322   6.138   1.381   9.514  0.0662  0.2582 -0.1439
  178SOPE   H7X20323   6.158   1.489   9.499 -0.3225  0.3185 -0.2365
  178SOPE   H7Y20324   6.027   1.372   9.518  0.0670  0.3673  0.1653
  178SOPE   C3820325   6.185   1.298   9.392  0.0822  0.4655  0.8983
  178SOPE   H8X20326   6.293   1.273   9.400 -0.3982 -1.8844  0.7667
  178SOPE   H8Y20327   6.176   1.360   9.300 -0.1187 -0.1544  0.5003
  178SOPE   C3920328   6.120   1.158   9.384  0.3794  0.4191  0.0120
  178SOPE   H9X20329   6.012   1.181   9.373  0.4231  2.3473  2.8111
  178SOPE   H9Y20330   6.124   1.106   9.482 -1.4247 -2.0074 -1.0748
  178SOPE  C31020331   6.167   1.073   9.267 -0.1717  0.1602  0.6290
  178SOPE  H10X20332   6.119   0.973   9.255 -0.9541  0.6391 -0.3588
  178SOPE  H10Y20333   6.278   1.067   9.272 -0.2165 -0.7564  0.6801
  178SOPE  C31120334   6.133   1.138   9.127 -0.2831 -1.4852  0.3934
  178SOPE  H11X20335   6.214   1.112   9.055 -0.4869 -0.0942 -0.3745
  178SOPE  H11Y20336   6.166   1.244   9.135  0.1910 -1.7401  2.8135
  178SOPE  C31220337   6.001   1.111   9.070  0.1131 -0.0669  0.7264
  178SOPE  H12X20338   5.922   1.132   9.146  0.4915 -0.5743  1.2719
  178SOPE  H12Y20339   5.992   1.002   9.054 -2.2930  0.1844 -0.0420
  178SOPE  C31320340   5.969   1.191   8.937  0.1411 -0.1418 -0.9033
  178SOPE  H13X20341   6.060   1.189   8.874  1.3861  2.5860  0.6012
  178SOPE  H13Y20342   5.960   1.301   8.947  1.3472  0.0379 -1.6999
  178SOPE  C31420343   5.854   1.142   8.848 -0.2896 -0.5180  0.9256
  178SOPE  H14X20344   5.758   1.186   8.881 -0.3692  0.3433 -0.3845
  178SOPE  H14Y20345   5.857   1.031   8.848  2.7875 -0.5553 -0.6979
  178SOPE  C31520346   5.874   1.191   8.699  0.4569  0.0981  0.1767
  178SOPE  H15X20347   5.905   1.298   8.702  1.2574 -0.1256  0.3035
  178SOPE  H15Y20348   5.777   1.181   8.646  1.3506 -0.8223 -1.3417
  178SOPE  C31620349   5.965   1.103   8.608 -0.5872 -0.0907  0.1043
  178SOPE  H16X20350   6.055   1.064   8.660 -1.7313  0.5747  2.7586
  178SOPE  H16Y20351   5.982   1.163   8.516 -0.5835  1.0890  0.8453
  178SOPE  C31720352   5.893   0.978   8.552 -0.4548 -0.8401 -0.1441
  178SOPE  H17X20353   5.804   1.030   8.510  2.0889  3.3013 -0.9966
  178SOPE  H17Y20354   5.862   0.906   8.631 -1.5025 -0.9796 -0.6581
  178SOPE  C31820355   5.965   0.904   8.443 -0.4663  0.1374 -0.7704
  178SOPE  H18X20356   5.999   0.806   8.482  2.0451  1.0610 -0.4242
  178SOPE  H18Y20357   6.045   0.976   8.414 -1.6977  1.5355 -0.8424
  178SOPE  H18Z20358   5.907   0.885   8.350 -2.1805  0.6417  0.1533
  179SOPE     N20359   5.483   4.700   6.523  0.4611 -0.0134 -0.3649
  179SOPE   HN120360   5.442   4.795   6.532 -0.2245 -0.0452 -2.5379
  179SOPE   HN220361   5.579   4.717   6.486  0.6581  0.0420  0.1658
  179SOPE   HN320362   5.419   4.650   6.458 -0.6319 -0.7059  1.1911
  179SOPE   C1220363   5.491   4.631   6.656 -0.1174  0.3079 -0.6878
  179SOPE  H12A20364   5.394   4.588   6.690  0.2798 -2.7132 -2.8750
  179SOPE  H12B20365   5.514   4.710   6.730 -1.4607 -1.4908  1.8010
  179SOPE   C1120366   5.593   4.511   6.664  0.4046 -0.3092  0.8137
  179SOPE  H11A20367   5.570   4.461   6.761  1.1564  1.8745  2.1904
  179SOPE  H11B20368   5.689   4.566   6.669  0.0578  0.3380  0.3566
  179SOPE     P20369   5.673   4.291   6.556 -0.0499  0.3994  0.6811
  179SOPE   O1320370   5.720   4.261   6.419  0.6673  0.3151  0.1603
  179SOPE   O1420371   5.592   4.181   6.608 -0.7029  0.2906 -0.5747
  179SOPE   O1220372   5.589   4.420   6.553 -0.5511 -0.0848 -0.3873
  179SOPE   O1120373   5.790   4.333   6.655 -0.2602 -0.7236 -0.3565
  179SOPE    C120374   5.839   4.239   6.752 -0.6765 -1.2316  0.3992
  179SOPE    HA20375   5.949   4.256   6.762 -0.5134 -0.2310 -2.2063
  179SOPE    HB20376   5.831   4.131   6.728  1.1824 -1.3673  0.2130
  179SOPE    C220377   5.782   4.263   6.896  0.7457 -0.3795 -0.4778
  179SOPE    HS20378   5.672   4.245   6.897  1.0914 -3.2567  2.0300
  179SOPE   O2120379   5.815   4.396   6.936 -0.3714  0.0513  0.0600
  179SOPE   C2120380   5.728   4.440   7.030 -0.3658 -0.2468  0.2715
  179SOPE   O2220381   5.623   4.391   7.060 -1.0145 -0.0873  0.2019
  179SOPE   C2220382   5.784   4.579   7.088  0.1069  0.7189  0.0290
  179SOPE   H2R20383   5.818   4.646   7.006 -0.0734  1.3789  0.4937
  179SOPE   H2S20384   5.877   4.558   7.144 -0.5258  2.1060  1.6791
  179SOPE    C320385   5.833   4.152   7.000 -0.3727 -0.3555  0.3340
  179SOPE    HX20386   5.935   4.188   7.023 -0.9556  0.8067  1.2319
  179SOPE    HY20387   5.863   4.058   6.950  0.4761 -0.7913  1.6194
  179SOPE   O3120388   5.752   4.131   7.123  0.4699 -0.7016  0.1492
  179SOPE   C3120389   5.635   4.069   7.099  0.2433  0.3633 -0.0145
  179SOPE   O3220390   5.605   4.025   6.988  0.5855 -0.4866 -0.4192
  179SOPE   C3220391   5.545   4.057   7.220  0.8858  0.2168  0.2845
  179SOPE   H2X20392   5.527   3.949   7.238  0.5662  0.2491  0.1628
  179SOPE   H2Y20393   5.451   4.109   7.193 -0.7305 -1.8018  1.6751
  179SOPE   C2320394   5.699   4.657   7.192 -0.4351  0.6704  0.2821
  179SOPE   H3R20395   5.589   4.641   7.189 -0.4051 -0.0316  2.1331
  179SOPE   H3S20396   5.715   4.764   7.167  1.7958  0.4989  0.7857
  179SOPE   C2420397   5.744   4.638   7.337 -0.6349  0.2133 -0.2244
  179SOPE   H4R20398   5.749   4.533   7.371  2.8488  0.4158  0.2051
  179SOPE   H4S20399   5.850   4.670   7.346 -0.7380  0.3164  0.6848
  179SOPE   C2520400   5.658   4.713   7.445 -0.7092 -0.1635 -0.2003
  179SOPE   H5R20401   5.658   4.820   7.414 -2.0602  0.1424  0.7558
  179SOPE   H5S20402   5.553   4.675   7.445 -0.9182  0.3933 -0.2459
  179SOPE   C2620403   5.709   4.713   7.585 -0.6058  0.4988 -0.2458
  179SOPE   H6R20404   5.700   4.605   7.609 -0.1976  0.5058 -0.0686
  179SOPE   H6S20405   5.815   4.734   7.610 -0.4279  0.4723 -0.9494
  179SOPE   C2720406   5.621   4.770   7.688 -0.4962 -0.2098 -1.3781
  179SOPE   H7R20407   5.683   4.851   7.733 -0.8389 -0.0777 -1.1377
  179SOPE   H7S20408   5.528   4.807   7.640  0.1626  0.8261 -1.8854
  179SOPE   C2820409   5.599   4.672   7.799  0.0455  0.2423 -0.3878
  179SOPE   H8R20410   5.557   4.590   7.737  2.5259 -0.0927 -1.7440
  179SOPE   H8S20411   5.692   4.630   7.844  1.0691 -0.4969 -3.0150
  179SOPE   C2920412   5.495   4.685   7.903  0.6917 -0.8097  0.6089
  179SOPE   H9120413   5.396   4.655   7.865  1.7276 -0.7257 -2.4336
  179SOPE  C21020414   5.509   4.722   8.034 -0.1788 -0.8451  0.1554
  179SOPE  H10120415   5.417   4.737   8.092  0.2932  0.9335  0.5159
  179SOPE  C21120416   5.633   4.759   8.104  0.2779 -0.1982  0.0293
  179SOPE  H11R20417   5.718   4.749   8.034 -0.9545 -1.5283 -1.3493
  179SOPE  H11S20418   5.641   4.689   8.190 -3.0994 -0.4737  0.2565
  179SOPE  C21220419   5.638   4.901   8.164  0.0845  0.0151 -0.9826
  179SOPE  H12R20420   5.640   4.978   8.084  0.5038 -0.4147 -1.3827
  179SOPE  H12S20421   5.729   4.918   8.225 -0.5776  1.2802 -0.3019
  179SOPE  C21320422   5.516   4.934   8.258  0.5667  0.2670 -0.9095
  179SOPE  H13R20423   5.502   4.851   8.331 -1.7081  2.6181  1.5355
  179SOPE  H13S20424   5.417   4.937   8.207  1.0161 -0.3492 -1.8542
  179SOPE  C21420425   5.545   5.064   8.334 -0.2413  0.3510 -0.1411
  179SOPE  H14R20426   5.475   5.134   8.284  1.2924  1.3261 -1.0112
  179SOPE  H14S20427   5.651   5.090   8.313 -0.0681  0.6950  1.0948
  179SOPE  C21520428   5.521   5.083   8.481 -0.0597 -0.8743 -0.1379
  179SOPE  H15R20429   5.601   5.028   8.535  0.0478  0.7719  1.5000
  179SOPE  H15S20430   5.423   5.043   8.513  0.7542 -2.3923  0.5804
  179SOPE  C21620431   5.528   5.232   8.529  0.3013  0.2273 -0.2136
  179SOPE  H16R20432   5.469   5.252   8.621  1.1982  0.8399  0.2421
  179SOPE  H16S20433   5.468   5.293   8.459 -0.3695  0.7218  0.7727
  179SOPE  C21720434   5.679   5.276   8.544 -0.5614  0.2178  0.1663
  179SOPE  H17R20435   5.748   5.248   8.462  0.0972 -0.3965  0.9089
  179SOPE  H17S20436   5.720   5.225   8.633 -1.5107 -0.0389  0.4761
  179SOPE  C21820437   5.687   5.427   8.570 -0.4307  0.0546 -0.1941
  179SOPE  H18R20438   5.647   5.478   8.480 -1.7001  1.1151  0.9262
  179SOPE  H18S20439   5.791   5.461   8.584 -0.0639 -1.1732  0.2402
  179SOPE  H18T20440   5.638   5.449   8.667  0.2084 -0.5598  0.2767
  179SOPE   C3320441   5.604   4.131   7.350 -0.1030  0.4342 -0.1566
  179SOPE   H3X20442   5.635   4.234   7.319 -2.0350  0.7191 -1.2810
  179SOPE   H3Y20443   5.698   4.079   7.378  0.2917  1.0288 -0.3434
  179SOPE   C3420444   5.505   4.132   7.460 -0.5302  0.0020 -0.1381
  179SOPE   H4X20445   5.456   4.035   7.483 -0.8855  0.8671  3.3716
  179SOPE   H4Y20446   5.418   4.192   7.426  0.7467  1.8228 -0.3209
  179SOPE   C3520447   5.553   4.226   7.573 -0.0344  0.2305  0.1400
  179SOPE   H5X20448   5.468   4.236   7.643 -0.6978 -2.8053 -0.0683
  179SOPE   H5Y20449   5.590   4.324   7.537  0.3900 -0.9249 -2.8703
  179SOPE   C3620450   5.678   4.165   7.646 -0.4836 -0.4178  0.3689
  179SOPE   H6X20451   5.759   4.162   7.570  1.1932  0.1143  2.0692
  179SOPE   H6Y20452   5.663   4.061   7.682  0.5117 -0.3888  0.8885
  179SOPE   C3720453   5.730   4.249   7.759  0.2492 -0.7915 -0.4384
  179SOPE   H7X20454   5.734   4.355   7.727  0.2920 -0.9529 -0.9818
  179SOPE   H7Y20455   5.830   4.222   7.800  0.1176 -0.2006  0.2869
  179SOPE   C3820456   5.643   4.230   7.886 -0.4725 -0.3824 -0.4604
  179SOPE   H8X20457   5.634   4.121   7.905  1.1104 -0.4486 -0.0144
  179SOPE   H8Y20458   5.546   4.280   7.863 -0.9509 -0.8978  0.3839
  179SOPE   C3920459   5.708   4.288   8.014  0.1476  0.1934  0.2665
  179SOPE   H9X20460   5.730   4.397   8.009 -1.7326  0.5900 -0.2276
  179SOPE   H9Y20461   5.797   4.228   8.041 -0.2984 -1.2967 -1.4156
  179SOPE  C31020462   5.618   4.284   8.139  0.2719  0.6074 -0.6391
  179SOPE  H10X20463   5.520   4.333   8.121 -1.2773 -1.8225  0.5774
  179SOPE  H10Y20464   5.666   4.341   8.221  1.3249 -2.1252  0.8064
  179SOPE  C31120465   5.606   4.144   8.196  0.1902 -0.4171 -0.2936
  179SOPE  H11X20466   5.712   4.113   8.207  0.3045 -0.2291 -0.8097
  179SOPE  H11Y20467   5.548   4.082   8.123  1.3544 -0.8577 -0.8755
  179SOPE  C31220468   5.521   4.134   8.330 -0.5281  0.9319 -0.2294
  179SOPE  H12X20469   5.537   4.230   8.383  2.2033  1.3184 -1.6049
  179SOPE  H12Y20470   5.567   4.055   8.393 -0.5075 -0.1253 -1.5243
  179SOPE  C31320471   5.377   4.102   8.299  0.0709  0.0626 -0.1044
  179SOPE  H13X20472   5.372   4.003   8.248  3.2299 -0.0183 -0.4477
  179SOPE  H13Y20473   5.346   4.179   8.225 -1.4784  2.1815  2.5744
  179SOPE  C31420474   5.282   4.098   8.411  0.2919  0.0226 -0.5041
  179SOPE  H14X20475   5.282   3.992   8.445  0.8215 -0.0130 -0.6006
  179SOPE  H14Y20476   5.181   4.124   8.373  1.5474  3.1716 -2.0374
  179SOPE  C31520477   5.297   4.196   8.520  0.1950 -0.3411 -0.0979
  179SOPE  H15X20478   5.265   4.295   8.483 -3.5046 -1.2180  0.3906
  179SOPE  H15Y20479   5.402   4.198   8.556 -0.4141 -1.4168  1.8866
  179SOPE  C31620480   5.211   4.164   8.639  0.2464  0.2723 -0.5941
  179SOPE  H16X20481   5.224   4.056   8.662  1.5137  0.6725  0.6425
  179SOPE  H16Y20482   5.103   4.168   8.610  0.1215 -0.9771 -0.3731
  179SOPE  C31720483   5.228   4.255   8.765 -0.2221 -0.3639  1.1910
  179SOPE  H17X20484   5.207   4.356   8.723 -1.3827 -0.4859  1.4199
  179SOPE  H17Y20485   5.335   4.246   8.791  0.2094  0.3161 -0.2090
  179SOPE  C31820486   5.129   4.230   8.882  0.0344  0.5977 -0.2916
  179SOPE  H18X20487   5.028   4.266   8.853 -1.0056 -1.3336  0.7969
  179SOPE  H18Y20488   5.171   4.276   8.974 -1.6552  2.1146 -0.2204
  179SOPE  H18Z20489   5.120   4.120   8.884  2.0853  0.3787 -0.8238
  180SOPE     N20490   6.226   3.273   6.112  0.2713  0.2156 -0.1236
  180SOPE   HN120491   6.321   3.285   6.070  0.0307  0.7248 -0.5309
  180SOPE   HN220492   6.219   3.190   6.174 -2.2845  0.5816  0.1839
  180SOPE   HN320493   6.157   3.262   6.035 -0.6503  1.0787  0.5583
  180SOPE   C1220494   6.196   3.397   6.192 -0.2222  0.5627  0.3367
  180SOPE  H12A20495   6.211   3.483   6.123 -0.2726  0.1300 -0.2206
  180SOPE  H12B20496   6.277   3.400   6.268  2.8152  0.2543 -2.6198
  180SOPE   C1120497   6.058   3.406   6.252 -0.2017 -0.4646 -0.3686
  180SOPE  H11A20498   6.052   3.500   6.310  0.0849 -0.1746 -0.8009
  180SOPE  H11B20499   6.046   3.323   6.325  2.4165 -0.1918  0.5021
  180SOPE     P20500   5.822   3.326   6.145  0.2124 -0.3673  0.2311
  180SOPE   O1320501   5.834   3.178   6.141  0.4927 -0.0066 -0.2468
  180SOPE   O1420502   5.747   3.395   6.042 -0.0814  0.7606  0.5265
  180SOPE   O1220503   5.964   3.395   6.142  0.3091 -0.5255  0.1688
  180SOPE   O1120504   5.768   3.369   6.286  0.3921  0.1203 -0.0418
  180SOPE    C120505   5.728   3.505   6.290  0.3007 -0.1030  0.1800
  180SOPE    HA20506   5.705   3.550   6.191  1.0598  1.2237  0.5790
  180SOPE    HB20507   5.808   3.569   6.334  1.7629 -0.0249 -2.4047
  180SOPE    C220508   5.605   3.524   6.381 -0.0971 -0.5107 -0.2233
  180SOPE    HS20509   5.569   3.627   6.361 -0.2595 -1.0035 -2.7967
  180SOPE   O2120510   5.634   3.491   6.516  0.0309 -0.4723 -0.4655
  180SOPE   C2120511   5.700   3.592   6.573 -0.3095 -0.2875 -0.1922
  180SOPE   O2220512   5.721   3.702   6.524  0.6761 -0.3235  0.0518
  180SOPE   C2220513   5.750   3.549   6.710 -0.9355  0.2504 -0.7549
  180SOPE   H2R20514   5.845   3.494   6.695  0.1853  1.9270 -0.1720
  180SOPE   H2S20515   5.673   3.479   6.749  2.2017 -3.2352 -0.3097
  180SOPE    C320516   5.493   3.434   6.335  0.6535 -0.8108 -0.0474
  180SOPE    HX20517   5.523   3.327   6.345  1.2779 -0.5777  0.7004
  180SOPE    HY20518   5.473   3.457   6.228 -0.5331  1.8074  0.6576
  180SOPE   O3120519   5.367   3.469   6.399  0.2625  0.0000  0.0488
  180SOPE   C3120520   5.312   3.383   6.485 -0.4005  0.6207  0.2600
  180SOPE   O3220521   5.352   3.273   6.508  0.1550  0.1063 -0.5053
  180SOPE   C3220522   5.200   3.460   6.560 -0.5918 -0.4231 -0.2342
  180SOPE   H2X20523   5.170   3.393   6.643 -0.4419 -0.5863 -0.3134
  180SOPE   H2Y20524   5.116   3.468   6.488  0.4725 -1.7765 -1.6913
  180SOPE   C2320525   5.782   3.658   6.816  0.3770  0.1396 -1.0353
  180SOPE   H3R20526   5.685   3.700   6.850  0.8450  1.5484 -1.3788
  180SOPE   H3S20527   5.836   3.740   6.763 -0.3846  0.0504 -1.9897
  180SOPE   C2420528   5.854   3.606   6.945  0.2348 -0.1715 -0.0019
  180SOPE   H4R20529   5.786   3.534   6.995 -0.0862 -0.0424 -0.2493
  180SOPE   H4S20530   5.954   3.564   6.921  0.7990  1.0360  0.1703
  180SOPE   C2520531   5.868   3.721   7.046 -0.4563  0.2737 -0.4230
  180SOPE   H5R20532   5.950   3.790   7.019 -2.4846  2.7879 -0.4854
  180SOPE   H5S20533   5.774   3.777   7.066 -1.1749 -1.1254  0.2942
  180SOPE   C2620534   5.892   3.679   7.190 -0.6407  0.3890 -0.2181
  180SOPE   H6R20535   5.822   3.601   7.227 -0.8501  0.3460 -0.6979
  180SOPE   H6S20536   5.993   3.634   7.202 -1.6039 -1.1733  3.2176
  180SOPE   C2720537   5.894   3.802   7.282  0.3791  0.5079 -0.1808
  180SOPE   H7R20538   5.969   3.875   7.244 -0.9478  1.0547 -1.8350
  180SOPE   H7S20539   5.793   3.846   7.286  0.0002 -0.3761  0.2244
  180SOPE   C2820540   5.928   3.758   7.423 -0.2735  0.2031 -0.5428
  180SOPE   H8R20541   5.859   3.676   7.452 -2.2610  1.5467 -1.2107
  180SOPE   H8S20542   6.031   3.717   7.423  0.5028  1.9983  0.4990
  180SOPE   C2920543   5.901   3.872   7.518  0.2126 -0.6398  0.2512
  180SOPE   H9120544   5.813   3.932   7.494 -0.1868 -1.1266  0.4728
  180SOPE  C21020545   5.975   3.920   7.614 -1.3506  0.1137  0.0028
  180SOPE  H10120546   5.938   4.016   7.654  3.0415  2.3496 -0.7265
  180SOPE  C21120547   6.113   3.866   7.653  0.1815 -0.2705 -0.1365
  180SOPE  H11R20548   6.182   3.951   7.632 -1.0260  0.2318 -2.4499
  180SOPE  H11S20549   6.157   3.773   7.611  4.0315  0.3740  1.9733
  180SOPE  C21220550   6.124   3.845   7.809 -0.3173 -0.5785 -0.0932
  180SOPE  H12R20551   6.225   3.820   7.847 -0.1869  0.1925  0.0949
  180SOPE  H12S20552   6.056   3.758   7.819 -2.4931  1.2720  3.0276
  180SOPE  C21320553   6.070   3.953   7.902 -0.2744  0.5361  1.0990
  180SOPE  H13R20554   5.960   3.957   7.890 -0.1667  0.1086 -0.3508
  180SOPE  H13S20555   6.107   4.054   7.874 -2.1106  1.0346  0.3347
  180SOPE  C21420556   6.107   3.933   8.053 -0.6084  0.8027  0.4034
  180SOPE  H14R20557   6.217   3.938   8.067 -0.7567 -0.6961  2.4271
  180SOPE  H14S20558   6.096   3.829   8.090  0.3129  0.8396  0.8180
  180SOPE  C21520559   6.047   4.030   8.153  0.6904  0.6988  0.4761
  180SOPE  H15R20560   5.939   4.017   8.133  0.5015 -0.1304  1.8961
  180SOPE  H15S20561   6.082   4.130   8.120 -0.7718  0.4111 -2.1729
  180SOPE  C21620562   6.078   3.998   8.299 -0.0981  0.1019  0.4363
  180SOPE  H16R20563   6.065   4.093   8.355  1.3131  1.4033 -1.3507
  180SOPE  H16S20564   6.182   3.967   8.324 -1.2004 -1.6931  3.3234
  180SOPE  C21720565   5.991   3.881   8.354  0.1743  0.3336 -0.1880
  180SOPE  H17R20566   5.979   3.794   8.286 -0.7928  0.7904 -0.6290
  180SOPE  H17S20567   5.886   3.919   8.358  0.4491  1.0326  0.7478
  180SOPE  C21820568   6.026   3.823   8.494  0.7025 -0.3014  0.4285
  180SOPE  H18R20569   5.944   3.756   8.527  0.5827 -0.4959 -0.2574
  180SOPE  H18S20570   6.033   3.910   8.564  1.1989  0.8364 -0.9909
  180SOPE  H18T20571   6.120   3.764   8.499  0.8532 -0.5167 -2.9046
  180SOPE   C3320572   5.230   3.608   6.598 -0.3550  0.3223 -0.7933
  180SOPE   H3X20573   5.145   3.673   6.569 -0.6851  0.3159  0.1139
  180SOPE   H3Y20574   5.309   3.658   6.538  1.7329 -0.7162  0.9589
  180SOPE   C3420575   5.274   3.626   6.745  0.0090  0.0305 -0.0757
  180SOPE   H4X20576   5.188   3.617   6.816  0.5113 -0.2260  0.5076
  180SOPE   H4Y20577   5.309   3.731   6.755  0.8246 -0.1852 -0.6190
  180SOPE   C3520578   5.386   3.528   6.787 -0.6267  0.2691  0.0077
  180SOPE   H5X20579   5.463   3.515   6.708  0.7196  0.6883  1.2128
  180SOPE   H5Y20580   5.335   3.431   6.805 -1.0038  0.5765  0.6556
  180SOPE   C3620581   5.456   3.564   6.920  0.0999  0.7089 -1.2180
  180SOPE   H6X20582   5.516   3.658   6.918 -1.9865  2.2670  1.7942
  180SOPE   H6Y20583   5.509   3.474   6.956 -0.4047 -0.1727 -2.6175
  180SOPE   C3720584   5.344   3.593   7.022  0.8278 -0.4547 -0.4596
  180SOPE   H7X20585   5.253   3.531   7.008 -1.1188  2.1999 -0.2159
  180SOPE   H7Y20586   5.314   3.698   7.002 -2.1843 -0.5180  2.8677
  180SOPE   C3820587   5.394   3.560   7.163  0.0669  0.3242 -0.7079
  180SOPE   H8X20588   5.503   3.577   7.151  0.1748  1.4558  1.3843
  180SOPE   H8Y20589   5.386   3.457   7.202  4.9987 -0.0089  0.0435
  180SOPE   C3920590   5.336   3.662   7.257 -0.9843  0.4407 -1.2424
  180SOPE   H9X20591   5.226   3.661   7.240 -1.4215 -2.8224  0.9189
  180SOPE   H9Y20592   5.379   3.761   7.232  0.6380 -0.4652 -2.1867
  180SOPE  C31020593   5.350   3.640   7.408 -0.2011  0.1048 -0.6041
  180SOPE  H10X20594   5.317   3.539   7.440 -2.5345  0.6502 -1.0949
  180SOPE  H10Y20595   5.297   3.713   7.473  0.0160  1.0915 -1.5048
  180SOPE  C31120596   5.502   3.634   7.444 -0.4227 -0.1065 -0.3384
  180SOPE  H11X20597   5.559   3.724   7.413 -0.1674 -0.1565 -0.0126
  180SOPE  H11Y20598   5.554   3.544   7.405  1.4533  0.6491  0.2993
  180SOPE  C31220599   5.534   3.623   7.602 -0.0932 -0.2992 -0.4415
  180SOPE  H12X20600   5.638   3.587   7.619  0.4717  1.8128  0.9699
  180SOPE  H12Y20601   5.465   3.550   7.650  0.8477 -1.0407 -0.1881
  180SOPE  C31320602   5.538   3.757   7.673  0.3277  0.0203  0.3461
  180SOPE  H13X20603   5.436   3.800   7.661  0.6269  0.5516 -0.4411
  180SOPE  H13Y20604   5.608   3.826   7.620  0.2462  1.4496  2.0072
  180SOPE  C31420605   5.576   3.753   7.818  0.5808  0.5018 -0.6518
  180SOPE  H14X20606   5.516   3.678   7.874  3.5517 -1.9298 -0.4549
  180SOPE  H14Y20607   5.566   3.854   7.864  0.8766  0.7065 -1.0349
  180SOPE  C31520608   5.716   3.693   7.845  0.4238  0.4577 -0.8818
  180SOPE  H15X20609   5.792   3.732   7.774 -1.5840  0.9423 -2.8877
  180SOPE  H15Y20610   5.700   3.584   7.827 -1.4510  0.9043 -2.2195
  180SOPE  C31620611   5.761   3.705   7.993 -0.1982 -0.2272  0.3458
  180SOPE  H16X20612   5.802   3.807   8.008  0.4596 -0.4107 -0.1437
  180SOPE  H16Y20613   5.828   3.622   8.024  1.6551  1.5181  1.2424
  180SOPE  C31720614   5.651   3.690   8.100 -0.0315  0.4597 -0.4071
  180SOPE  H17X20615   5.619   3.584   8.097 -0.1671  0.4602  0.5855
  180SOPE  H17Y20616   5.557   3.743   8.075  1.8045  3.1323 -2.1907
  180SOPE  C31820617   5.683   3.723   8.247 -0.5805  0.6199 -0.0488
  180SOPE  H18X20618   5.731   3.634   8.294  1.8498  1.2182 -1.2055
  180SOPE  H18Y20619   5.592   3.755   8.302 -0.5976  1.0134 -0.3042
  180SOPE  H18Z20620   5.757   3.806   8.249 -2.1774  2.0900  0.4606
  181SOPE     N20621   4.198   1.569   5.998 -0.5551  0.0576  0.1552
  181SOPE   HN120622   4.116   1.551   5.936 -1.3149  0.8870  0.8776
  181SOPE   HN220623   4.200   1.671   6.017  1.8794  0.5319 -2.0197
  181SOPE   HN320624   4.281   1.548   5.939 -0.3567 -1.6211  0.9904
  181SOPE   C1220625   4.205   1.485   6.122 -0.0745 -0.1220 -0.1288
  181SOPE  H12A20626   4.168   1.386   6.089 -3.3551  0.4651  1.3858
  181SOPE  H12B20627   4.129   1.523   6.194 -0.2335 -1.3293  0.3610
  181SOPE   C1120628   4.341   1.481   6.204 -0.1443 -0.3498  0.1921
  181SOPE  H11A20629   4.333   1.403   6.283 -1.1874 -0.3044  0.1478
  181SOPE  H11B20630   4.359   1.577   6.256  0.8135  0.1873 -1.0952
  181SOPE     P20631   4.584   1.527   6.135  0.0598 -0.0458 -0.3317
  181SOPE   O1320632   4.543   1.662   6.098  0.0619  0.1739 -0.3272
  181SOPE   O1420633   4.699   1.469   6.061  0.4703 -0.9785 -0.4177
  181SOPE   O1220634   4.453   1.442   6.120 -0.4735  0.0420  0.0064
  181SOPE   O1120635   4.618   1.523   6.297 -0.3695 -0.3739  0.0304
  181SOPE    C120636   4.708   1.416   6.341 -0.2345 -0.9540 -1.1581
  181SOPE    HA20637   4.752   1.443   6.439  1.4754 -0.5211 -2.0027
  181SOPE    HB20638   4.800   1.417   6.279  1.5982 -0.9345  1.4321
  181SOPE    C220639   4.645   1.283   6.353  1.1709 -0.0976  0.1863
  181SOPE    HS20640   4.601   1.241   6.260 -0.0165 -0.2951  0.8187
  181SOPE   O2120641   4.549   1.291   6.461  0.6318 -0.0066  0.2077
  181SOPE   C2120642   4.444   1.206   6.456 -0.6224  0.1790 -0.1551
  181SOPE   O2220643   4.428   1.115   6.376 -0.1085  0.4936 -0.4357
  181SOPE   C2220644   4.363   1.232   6.587 -0.4276  0.5501  0.4957
  181SOPE   H2R20645   4.271   1.170   6.578 -2.4106  3.4173 -0.2073
  181SOPE   H2S20646   4.340   1.340   6.590 -0.1041  0.6254  0.3279
  181SOPE    C320647   4.756   1.175   6.385 -0.2441  0.5890 -0.3039
  181SOPE    HX20648   4.844   1.192   6.319 -0.2150  1.7810  0.0327
  181SOPE    HY20649   4.730   1.073   6.350  0.4843  0.0922  0.5354
  181SOPE   O3120650   4.795   1.173   6.534  0.2802  0.1039  0.7677
  181SOPE   C3120651   4.912   1.233   6.557  0.4404 -1.2163 -0.3545
  181SOPE   O3220652   4.971   1.305   6.478  0.5810 -0.3770  0.2398
  181SOPE   C3220653   4.947   1.225   6.711 -0.1108 -0.2400 -0.2985
  181SOPE   H2X20654   4.869   1.161   6.757 -1.8400  2.1685  0.3117
  181SOPE   H2Y20655   4.929   1.324   6.758 -0.8901 -1.5695  2.4296
  181SOPE   C2320656   4.438   1.187   6.712  0.4811 -0.0189 -0.4896
  181SOPE   H3R20657   4.522   1.259   6.715  0.9544 -0.5864  0.7074
  181SOPE   H3S20658   4.477   1.083   6.702  3.3364  0.8727  0.3437
  181SOPE   C2420659   4.375   1.199   6.852  0.9621 -0.7466  0.0024
  181SOPE   H4R20660   4.347   1.301   6.887 -0.4027 -1.2553  0.4690
  181SOPE   H4S20661   4.287   1.131   6.851 -1.0677  1.6812  0.8692
  181SOPE   C2520662   4.461   1.156   6.970 -1.0117 -0.0214  0.3712
  181SOPE   H5R20663   4.403   1.156   7.065  0.5030  0.3795  1.3365
  181SOPE   H5S20664   4.492   1.052   6.947 -0.3541  0.4365 -0.8535
  181SOPE   C2620665   4.590   1.242   6.989 -0.0863  0.4351  0.4099
  181SOPE   H6R20666   4.644   1.270   6.896  0.5641 -1.1442  0.2831
  181SOPE   H6S20667   4.563   1.344   7.025  1.1208  2.4509 -3.6744
  181SOPE   C2720668   4.693   1.184   7.085  0.1981 -0.3794  0.6533
  181SOPE   H7R20669   4.738   1.090   7.046 -0.2405 -1.9507  3.6255
  181SOPE   H7S20670   4.774   1.258   7.097  0.7759 -0.8813 -0.1221
  181SOPE   C2820671   4.622   1.136   7.209  0.9057  0.7271  0.2218
  181SOPE   H8R20672   4.545   1.058   7.197  3.2960 -1.4734 -2.2493
  181SOPE   H8S20673   4.694   1.069   7.261 -1.8380 -1.2498  1.7113
  181SOPE   C2920674   4.596   1.250   7.306  0.1308 -0.0362  0.7709
  181SOPE   H9120675   4.593   1.353   7.269 -0.7665  0.0198  0.9848
  181SOPE  C21020676   4.582   1.237   7.434 -0.0578 -0.0414 -0.0707
  181SOPE  H10120677   4.564   1.331   7.488  0.0868  0.0933 -0.2565
  181SOPE  C21120678   4.572   1.105   7.505 -1.1170 -1.1420  0.0934
  181SOPE  H11R20679   4.613   1.027   7.438  0.7590  1.4380 -2.0316
  181SOPE  H11S20680   4.465   1.084   7.523 -1.6266  1.5360  0.7481
  181SOPE  C21220681   4.655   1.117   7.632  0.5616 -0.1690  0.0229
  181SOPE  H12R20682   4.760   1.138   7.604  1.0627 -1.8837  0.4957
  181SOPE  H12S20683   4.660   1.018   7.683  2.8356 -0.3060 -0.3740
  181SOPE  C21320684   4.585   1.212   7.733 -0.0291  1.1784  0.9156
  181SOPE  H13R20685   4.474   1.205   7.740  0.0700  0.0254  1.6449
  181SOPE  H13S20686   4.613   1.314   7.700 -1.3207  1.7160  1.4159
  181SOPE  C21420687   4.641   1.188   7.877  0.1700 -0.1510  0.8644
  181SOPE  H14R20688   4.751   1.202   7.874  0.2322 -0.6294  0.8313
  181SOPE  H14S20689   4.611   1.087   7.913 -0.8595 -0.0802  0.2527
  181SOPE  C21520690   4.580   1.291   7.967 -1.0262 -0.2283  0.6185
  181SOPE  H15R20691   4.470   1.300   7.956 -1.1530  1.6679  2.6528
  181SOPE  H15S20692   4.624   1.382   7.919 -1.8719 -0.2385 -0.2046
  181SOPE  C21620693   4.622   1.283   8.112  0.1248  0.0766 -0.1485
  181SOPE  H16R20694   4.724   1.327   8.117  0.0019  0.4799 -0.9630
  181SOPE  H16S20695   4.627   1.178   8.148 -0.7726 -0.1067 -0.5365
  181SOPE  C21720696   4.529   1.362   8.203  0.8151 -0.3497  0.1190
  181SOPE  H17R20697   4.430   1.311   8.211  0.5863 -0.1789 -1.4565
  181SOPE  H17S20698   4.512   1.462   8.159 -1.4677 -1.5870 -2.0742
  181SOPE  C21820699   4.576   1.377   8.348 -1.0113  0.1003 -0.5151
  181SOPE  H18R20700   4.495   1.414   8.414 -0.4963 -0.3595  0.3875
  181SOPE  H18S20701   4.664   1.444   8.355  1.0197 -2.5923  1.7320
  181SOPE  H18T20702   4.610   1.280   8.389 -1.0328  0.5954  0.7424
  181SOPE   C3320703   5.100   1.191   6.728  1.4409 -0.9055 -0.0730
  181SOPE   H3X20704   5.155   1.271   6.674  0.6559  1.5185  2.4963
  181SOPE   H3Y20705   5.123   1.090   6.687 -0.2137 -1.6167  0.6779
  181SOPE   C3420706   5.137   1.198   6.879 -0.1646  0.2947 -0.1468
  181SOPE   H4X20707   5.115   1.296   6.927  1.2355  0.4440  0.2171
  181SOPE   H4Y20708   5.247   1.187   6.890  0.0142  3.3486  2.7829
  181SOPE   C3520709   5.066   1.094   6.965 -0.7216 -0.3644  0.1356
  181SOPE   H5X20710   5.051   1.011   6.892  1.2244  0.0224 -0.7575
  181SOPE   H5Y20711   4.967   1.128   7.004  0.4771  0.6262  2.5658
  181SOPE   C3620712   5.142   1.046   7.088 -0.0034  0.5678  0.7601
  181SOPE   H6X20713   5.238   1.008   7.046  0.1553  2.3112 -0.5700
  181SOPE   H6Y20714   5.096   0.957   7.137  1.1142 -0.3025  0.2942
  181SOPE   C3720715   5.181   1.156   7.179  0.2343  0.1987 -0.2102
  181SOPE   H7X20716   5.254   1.227   7.135  1.3954 -1.2183 -0.6417
  181SOPE   H7Y20717   5.232   1.108   7.266  0.2145 -1.9095 -1.2952
  181SOPE   C3820718   5.064   1.235   7.243 -0.0856 -0.1582  0.4096
  181SOPE   H8X20719   5.017   1.283   7.154  1.4232 -2.8835 -2.0291
  181SOPE   H8Y20720   5.111   1.318   7.300 -0.1919 -0.4061  0.8633
  181SOPE   C3920721   4.971   1.149   7.332  0.2972 -0.6604  0.4788
  181SOPE   H9X20722   4.932   1.067   7.269  0.4536 -0.3580 -0.0130
  181SOPE   H9Y20723   4.882   1.212   7.356 -0.5795 -1.2022 -1.2317
  181SOPE  C31020724   5.029   1.096   7.467  0.3123  0.1692  0.3311
  181SOPE  H10X20725   5.121   1.040   7.437  0.3309  0.6579 -0.5541
  181SOPE  H10Y20726   4.950   1.027   7.504  0.7974 -0.7093 -0.2191
  181SOPE  C31120727   5.066   1.195   7.576  0.0577 -0.2355 -0.0646
  181SOPE  H11X20728   4.972   1.240   7.615  0.5845  1.0915 -0.2901
  181SOPE  H11Y20729   5.134   1.266   7.526  0.8438 -2.1150 -1.8348
  181SOPE  C31220730   5.145   1.128   7.692  0.5008 -0.4670  0.6301
  181SOPE  H12X20731   5.245   1.100   7.652 -0.3317 -1.8511 -0.5620
  181SOPE  H12Y20732   5.086   1.040   7.724  0.6516 -0.1991  1.6730
  181SOPE  C31320733   5.147   1.224   7.814  0.1263  0.3907 -0.3221
  181SOPE  H13X20734   5.042   1.240   7.848 -0.3965 -2.2612 -0.5274
  181SOPE  H13Y20735   5.175   1.322   7.769 -0.2929 -0.2523 -2.0636
  181SOPE  C31420736   5.231   1.188   7.937 -0.4209  0.5737  0.2772
  181SOPE  H14X20737   5.223   1.268   8.014  0.4328  0.0490  0.9330
  181SOPE  H14Y20738   5.336   1.190   7.901 -1.2976  0.0937 -2.5420
  181SOPE  C31520739   5.194   1.059   7.994  0.4386 -0.3675  0.6375
  181SOPE  H15X20740   5.236   0.979   7.929 -0.6887 -1.2818  0.9943
  181SOPE  H15Y20741   5.084   1.046   7.979  0.2905  1.6861 -0.3768
  181SOPE  C31620742   5.237   1.040   8.139 -0.1209 -0.5931  0.2222
  181SOPE  H16X20743   5.246   0.934   8.170 -1.1543 -0.0881  2.4699
  181SOPE  H16Y20744   5.161   1.081   8.209 -0.7141  1.2241 -1.3918
  181SOPE  C31720745   5.373   1.109   8.160 -0.3210  0.6885 -0.2097
  181SOPE  H17X20746   5.364   1.219   8.169 -0.1207  0.8513 -1.7483
  181SOPE  H17Y20747   5.437   1.086   8.072 -2.3892 -0.8024 -1.4249
  181SOPE  C31820748   5.446   1.053   8.290  0.4748  0.5250  0.1718
  181SOPE  H18X20749   5.443   0.942   8.287 -1.0058  0.5340 -2.8759
  181SOPE  H18Y20750   5.392   1.074   8.385 -0.7423 -1.7738  0.0389
  181SOPE  H18Z20751   5.552   1.079   8.306  1.0311  0.0394 -2.3295
  182SOPE     N20752   4.980   2.991   5.867 -0.0230 -0.3405 -0.1824
  182SOPE   HN120753   5.023   2.921   5.931 -0.6945 -1.1410 -0.5896
  182SOPE   HN220754   4.881   2.969   5.844 -0.5715 -0.5639  2.0643
  182SOPE   HN320755   5.040   2.996   5.783  3.0227 -2.5336  1.6414
  182SOPE   C1220756   4.978   3.127   5.933 -0.0959  0.9059  0.2649
  182SOPE  H12A20757   4.895   3.181   5.883 -1.5215 -2.2263 -1.0252
  182SOPE  H12B20758   5.072   3.180   5.909 -0.5868  1.1181 -1.2815
  182SOPE   C1120759   4.954   3.109   6.080 -0.7706 -0.8748  0.0321
  182SOPE  H11A20760   5.042   3.058   6.126 -0.4494  0.3009  0.7667
  182SOPE  H11B20761   4.860   3.054   6.100 -2.7034  2.0528 -0.4910
  182SOPE     P20762   5.035   3.299   6.248  0.1842  0.1220  0.2179
  182SOPE   O1320763   4.987   3.432   6.295  0.3250 -0.1277  0.0154
  182SOPE   O1420764   5.173   3.294   6.195  0.3750  0.5897  0.0905
  182SOPE   O1220765   4.937   3.252   6.126 -0.3330 -0.5928 -0.2831
  182SOPE   O1120766   5.008   3.194   6.357  0.3097  0.0643 -0.4581
  182SOPE    C120767   4.885   3.161   6.406  0.3988  0.3033 -0.1823
  182SOPE    HA20768   4.885   3.056   6.442 -2.1067 -0.9482 -3.3509
  182SOPE    HB20769   4.811   3.162   6.323  0.0511 -0.6334  0.0999
  182SOPE    C220770   4.830   3.265   6.515  0.2518  0.2278  0.1716
  182SOPE    HS20771   4.842   3.364   6.466 -1.1300 -0.8522 -2.5915
  182SOPE   O2120772   4.899   3.255   6.646  0.0816  0.1867 -0.4528
  182SOPE   C2120773   4.857   3.347   6.735 -0.5511  0.4940 -0.4903
  182SOPE   O2220774   4.783   3.439   6.720 -0.0292 -0.0545  0.0459
  182SOPE   C2220775   4.928   3.323   6.873  0.5645 -0.3856  0.5734
  182SOPE   H2R20776   5.038   3.320   6.858  0.4453 -0.4194 -0.3374
  182SOPE   H2S20777   4.889   3.228   6.915 -1.4483  0.8283  1.6187
  182SOPE    C320778   4.672   3.245   6.515 -0.0318 -0.5390 -0.6744
  182SOPE    HX20779   4.630   3.256   6.413  0.3906  1.4360 -0.6740
  182SOPE    HY20780   4.638   3.336   6.568  1.3502 -0.2776 -0.1932
  182SOPE   O3120781   4.636   3.113   6.564 -0.0875 -0.1069 -0.6234
  182SOPE   C3120782   4.513   3.068   6.587  0.4244  0.7363 -0.0521
  182SOPE   O3220783   4.415   3.124   6.553 -0.3268 -0.4081  0.0185
  182SOPE   C3220784   4.520   2.954   6.692  0.4399 -0.7863  0.4571
  182SOPE   H2X20785   4.628   2.931   6.706  1.5087  1.3337 -3.0000
  182SOPE   H2Y20786   4.480   2.866   6.637  0.5629 -0.3797 -0.2975
  182SOPE   C2320787   4.890   3.437   6.971 -0.1315 -0.1602  0.2062
  182SOPE   H3R20788   4.779   3.436   6.981 -0.7477  2.5972 -3.9481
  182SOPE   H3S20789   4.906   3.536   6.923  0.2852 -0.1529  0.3588
  182SOPE   C2420790   4.957   3.416   7.109 -0.0602 -0.3194  0.2214
  182SOPE   H4R20791   4.927   3.314   7.142 -1.0068 -0.7453 -1.7740
  182SOPE   H4S20792   5.064   3.417   7.079 -0.3947  2.5121 -1.1561
  182SOPE   C2520793   4.916   3.525   7.204  0.3089 -0.1259 -0.7236
  182SOPE   H5R20794   4.932   3.627   7.164 -1.5270 -0.5636 -2.7299
  182SOPE   H5S20795   4.808   3.519   7.227  0.3018  0.0533 -0.7084
  182SOPE   C2620796   4.984   3.509   7.342 -0.4588  0.0374  0.2451
  182SOPE   H6R20797   4.976   3.405   7.380  1.3983 -0.6798 -1.1565
  182SOPE   H6S20798   5.093   3.514   7.321 -0.4677  0.2796  0.2616
  182SOPE   C2720799   4.956   3.602   7.452 -0.0406 -0.3969  0.0095
  182SOPE   H7R20800   4.992   3.705   7.433 -0.0095  0.1632  2.7485
  182SOPE   H7S20801   4.848   3.619   7.470 -0.0630 -1.4512  1.0166
  182SOPE   C2820802   5.012   3.564   7.588  0.2383 -0.3179 -0.5409
  182SOPE   H8R20803   5.119   3.535   7.580  0.5663  0.0040  2.0351
  182SOPE   H8S20804   5.000   3.656   7.649  0.3637 -0.2879 -0.5612
  182SOPE   C2920805   4.940   3.449   7.648 -0.5461 -0.3095 -0.3151
  182SOPE   H9120806   4.897   3.370   7.583 -1.9499  2.1470 -2.5568
  182SOPE  C21020807   4.894   3.445   7.778  0.3328  0.1719  0.3998
  182SOPE  H10120808   4.836   3.354   7.800 -0.5713  0.7512  0.4836
  182SOPE  C21120809   4.918   3.546   7.886 -0.3940 -0.2073 -1.0450
  182SOPE  H11R20810   4.948   3.649   7.854  3.5172  0.1178  2.7105
  182SOPE  H11S20811   5.009   3.509   7.938 -1.1782 -0.4408  0.1860
  182SOPE  C21220812   4.810   3.563   7.993  1.0331  1.0998 -0.1613
  182SOPE  H12R20813   4.807   3.467   8.049 -2.1877  0.2688 -1.5320
  182SOPE  H12S20814   4.711   3.579   7.944  1.1637 -0.3817 -0.9721
  182SOPE  C21320815   4.845   3.685   8.078 -0.2852 -0.2049  0.7904
  182SOPE  H13R20816   4.767   3.689   8.157 -0.3878  0.6396  0.6541
  182SOPE  H13S20817   4.838   3.772   8.010 -1.0156  0.2596  1.4405
  182SOPE  C21420818   4.986   3.682   8.142 -0.1016 -0.8442 -0.5734
  182SOPE  H14R20819   5.056   3.753   8.094  1.8297 -0.7432  2.1221
  182SOPE  H14S20820   5.037   3.584   8.125  0.7181 -0.1776 -2.1084
  182SOPE  C21520821   4.999   3.699   8.296  0.4218  0.3508 -0.3178
  182SOPE  H15R20822   4.922   3.649   8.358  1.1265  1.0415  1.1555
  182SOPE  H15S20823   5.001   3.806   8.323 -0.3060  0.3064 -0.0939
  182SOPE  C21620824   5.132   3.637   8.353  0.6502 -0.6672  0.0004
  182SOPE  H16R20825   5.215   3.674   8.289 -2.0370  2.2266 -2.1034
  182SOPE  H16S20826   5.132   3.529   8.327  1.0577 -0.4710 -0.8371
  182SOPE  C21720827   5.160   3.656   8.499 -0.6124 -0.5764 -0.6182
  182SOPE  H17R20828   5.074   3.617   8.559 -0.8012 -0.2344 -0.6615
  182SOPE  H17S20829   5.173   3.761   8.535 -0.7784 -0.9469  0.5720
  182SOPE  C21820830   5.284   3.582   8.555 -0.6855 -0.4284  0.5061
  182SOPE  H18R20831   5.317   3.592   8.660 -0.6082  0.8222  0.3741
  182SOPE  H18S20832   5.367   3.624   8.496 -1.4423 -0.2724 -0.4817
  182SOPE  H18T20833   5.276   3.471   8.545 -4.0949 -0.4275  1.8727
  182SOPE   C3320834   4.437   2.983   6.817 -0.1015 -0.2830 -0.1094
  182SOPE   H3X20835   4.448   2.896   6.885  1.7622  0.5451  0.6979
  182SOPE   H3Y20836   4.330   2.987   6.789 -0.7028 -0.9416  1.9012
  182SOPE   C3420837   4.477   3.097   6.914  0.0041 -0.7205 -0.3403
  182SOPE   H4X20838   4.421   3.185   6.877 -2.1149 -1.8244  0.1289
  182SOPE   H4Y20839   4.588   3.108   6.909  0.0927 -1.6104 -0.4153
  182SOPE   C3520840   4.436   3.078   7.066 -0.1604  0.3074  0.5931
  182SOPE   H5X20841   4.460   3.177   7.108  2.3644 -1.1023  2.7926
  182SOPE   H5Y20842   4.507   3.001   7.106  0.3770  0.6663  0.3480
  182SOPE   C3620843   4.293   3.046   7.095 -0.8399 -0.5298  0.6116
  182SOPE   H6X20844   4.270   2.958   7.031 -0.2476  1.0549 -1.9505
  182SOPE   H6Y20845   4.226   3.131   7.068 -0.8725 -0.2762  1.4649
  182SOPE   C3720846   4.255   3.032   7.242 -0.9233 -0.0432 -0.4360
  182SOPE   H7X20847   4.150   2.998   7.247 -0.9163  0.0986  2.2817
  182SOPE   H7Y20848   4.269   3.133   7.286  1.6781 -0.1490 -0.8254
  182SOPE   C3820849   4.338   2.934   7.316  0.2889  0.1520  0.9871
  182SOPE   H8X20850   4.447   2.946   7.302  0.2699  0.1539  0.8438
  182SOPE   H8Y20851   4.317   2.837   7.268  0.0762  1.0665 -0.8426
  182SOPE   C3920852   4.295   2.923   7.456  0.6452 -0.3757 -0.9636
  182SOPE   H9X20853   4.201   2.864   7.454  0.0890  0.5026 -1.6639
  182SOPE   H9Y20854   4.262   3.018   7.505 -1.3878 -1.1327 -0.7799
  182SOPE  C31020855   4.396   2.844   7.532 -0.9245 -0.7914 -0.4630
  182SOPE  H10X20856   4.481   2.907   7.565 -0.7214 -2.0479  1.5355
  182SOPE  H10Y20857   4.441   2.771   7.461  1.8548 -0.7987  1.1864
  182SOPE  C31120858   4.337   2.761   7.648  0.1486 -0.4693 -0.2149
  182SOPE  H11X20859   4.400   2.670   7.660  2.3123  0.7654 -1.4920
  182SOPE  H11Y20860   4.239   2.721   7.617 -0.0064 -0.5189  0.3237
  182SOPE  C31220861   4.329   2.823   7.790  0.1810  0.0910  0.8377
  182SOPE  H12X20862   4.259   2.908   7.779  1.2573  0.7275 -1.9771
  182SOPE  H12Y20863   4.434   2.857   7.803  0.8334 -0.4086 -2.1972
  182SOPE  C31320864   4.300   2.736   7.904 -0.4618 -0.6310 -0.2053
  182SOPE  H13X20865   4.346   2.639   7.878 -1.9975 -1.5944  0.5240
  182SOPE  H13Y20866   4.190   2.725   7.906 -0.7422  1.6056 -0.4021
  182SOPE  C31420867   4.342   2.792   8.042 -0.0719  0.2778 -0.8288
  182SOPE  H14X20868   4.295   2.892   8.057  2.8003  1.4029  1.5651
  182SOPE  H14Y20869   4.451   2.811   8.051 -0.0111 -0.4571  0.1673
  182SOPE  C31520870   4.315   2.698   8.162 -0.6932  0.1296 -0.5434
  182SOPE  H15X20871   4.206   2.682   8.174 -0.1415 -2.9332  1.6571
  182SOPE  H15Y20872   4.350   2.747   8.255 -0.3539  0.8516 -1.0390
  182SOPE  C31620873   4.372   2.554   8.158 -0.7751 -0.2889  0.0329
  182SOPE  H16X20874   4.324   2.505   8.071 -1.4782  3.4264 -1.9094
  182SOPE  H16Y20875   4.338   2.507   8.252 -0.6546  0.1758  0.3095
  182SOPE  C31720876   4.524   2.539   8.139  0.7593 -0.0868  0.2716
  182SOPE  H17X20877   4.548   2.568   8.035 -0.9689 -0.1329 -0.1705
  182SOPE  H17Y20878   4.561   2.434   8.142 -0.9278 -0.7003  1.6734
  182SOPE  C31820879   4.609   2.626   8.235 -0.0221  0.2393  0.5049
  182SOPE  H18X20880   4.590   2.730   8.201 -0.6827 -0.3522 -1.0458
  182SOPE  H18Y20881   4.717   2.599   8.235 -0.0518  0.0243 -1.1411
  182SOPE  H18Z20882   4.581   2.625   8.343  2.4035 -3.1261  1.2664
  183SOPE     N20883   1.014   1.818   6.221  0.2093  0.2514  0.2421
  183SOPE   HN120884   1.092   1.832   6.153  0.3784 -0.6126  0.2577
  183SOPE   HN220885   0.993   1.718   6.237  4.6671 -0.9250  0.2482
  183SOPE   HN320886   0.929   1.864   6.183 -0.2502 -0.3777  0.4980
  183SOPE   C1220887   1.037   1.884   6.352 -0.4279  1.0691 -0.2130
  183SOPE  H12A20888   1.043   1.994   6.333 -0.7854  1.1195 -0.0378
  183SOPE  H12B20889   1.127   1.841   6.400 -1.4455 -1.9038 -0.7724
  183SOPE   C1120890   0.918   1.855   6.444  0.3924 -1.0061 -0.1999
  183SOPE  H11A20891   0.934   1.912   6.538 -2.8905  0.6943 -0.5525
  183SOPE  H11B20892   0.910   1.747   6.467 -1.7891 -0.8806 -0.2381
  183SOPE     P20893   0.702   2.007   6.424  0.0844 -0.0079  0.1665
  183SOPE   O1320894   0.592   2.021   6.327 -0.0691 -0.0590  0.1653
  183SOPE   O1420895   0.774   2.131   6.469  0.0588  0.3362 -0.1411
  183SOPE   O1220896   0.808   1.900   6.374  0.7332  0.0487 -0.2993
  183SOPE   O1120897   0.647   1.951   6.551  0.6890  0.4951 -0.3578
  183SOPE    C120898   0.613   1.814   6.574  0.5438 -0.4483  0.1816
  183SOPE    HA20899   0.700   1.751   6.544  0.8978 -0.0999  0.4561
  183SOPE    HB20900   0.523   1.783   6.516  0.6810  0.1762 -0.3801
  183SOPE    C220901   0.584   1.801   6.724 -0.3913 -0.4268 -0.2793
  183SOPE    HS20902   0.514   1.884   6.749 -0.0097  0.2782 -1.4751
  183SOPE   O2120903   0.709   1.826   6.794  0.3041 -0.1350  0.2549
  183SOPE   C2120904   0.720   1.944   6.855  0.2660  0.3608 -0.9135
  183SOPE   O2220905   0.629   2.024   6.870 -0.0716  0.2100 -0.3298
  183SOPE   C2220906   0.856   1.959   6.919 -0.3025 -0.1548  0.9896
  183SOPE   H2R20907   0.928   1.959   6.835 -1.0746  0.3261  0.3091
  183SOPE   H2S20908   0.883   1.870   6.980 -2.1130 -1.0438  0.5847
  183SOPE    C320909   0.531   1.663   6.769  0.2553  0.4540 -0.1143
  183SOPE    HX20910   0.594   1.584   6.723 -0.8778  0.7893 -2.3855
  183SOPE    HY20911   0.440   1.649   6.708  0.4836 -1.2483 -0.1262
  183SOPE   O3120912   0.516   1.635   6.913 -0.1465  0.6248 -0.1059
  183SOPE   C3120913   0.408   1.702   6.962 -0.4100  0.1518 -0.1943
  183SOPE   O3220914   0.325   1.753   6.889  0.1462  0.2470 -0.0002
  183SOPE   C3220915   0.419   1.715   7.111 -0.6414  0.6753 -0.2624
  183SOPE   H2X20916   0.514   1.772   7.120  0.4400 -0.9511 -0.8992
  183SOPE   H2Y20917   0.436   1.613   7.151 -0.8523  0.4848 -0.6547
  183SOPE   C2320918   0.871   2.086   7.001  0.1591  0.0856  0.5166
  183SOPE   H3R20919   0.827   2.179   6.958 -0.6768 -0.1870  0.7664
  183SOPE   H3S20920   0.979   2.101   7.019  0.0637 -0.0587  1.2542
  183SOPE   C2420921   0.805   2.063   7.133  0.1179  0.1702 -0.0221
  183SOPE   H4R20922   0.698   2.086   7.116  0.7106  1.1257 -3.1182
  183SOPE   H4S20923   0.820   1.961   7.176 -1.5150 -0.0285  0.1283
  183SOPE   C2520924   0.847   2.166   7.238 -0.6086 -0.1243 -0.9698
  183SOPE   H5R20925   0.958   2.178   7.232 -0.6068  0.0950 -0.5140
  183SOPE   H5S20926   0.812   2.268   7.215  0.8423  0.9216  1.1611
  183SOPE   C2620927   0.789   2.135   7.375 -0.2935  0.4608  0.2722
  183SOPE   H6R20928   0.680   2.153   7.378 -0.3198  0.1424  2.3004
  183SOPE   H6S20929   0.820   2.029   7.390  0.1023  0.8855  2.9474
  183SOPE   C2720930   0.853   2.216   7.486 -0.9281  0.4595 -0.6985
  183SOPE   H7R20931   0.963   2.204   7.488 -0.9997 -0.1794  0.6957
  183SOPE   H7S20932   0.835   2.323   7.462  0.6605  0.9178  0.0264
  183SOPE   C2820933   0.799   2.176   7.626 -0.0371  0.2855  0.6335
  183SOPE   H8R20934   0.689   2.177   7.612 -0.0406  0.1220  0.6515
  183SOPE   H8S20935   0.834   2.072   7.642  0.3742  0.1616 -0.8926
  183SOPE   C2920936   0.853   2.281   7.728  0.3078  0.0927  1.0133
  183SOPE   H9120937   0.866   2.386   7.700 -1.0193  0.2543  0.9036
  183SOPE  C21020938   0.880   2.246   7.857  0.4780  0.7470  0.2177
  183SOPE  H10120939   0.919   2.308   7.938 -0.0848 -2.3544  3.1181
  183SOPE  C21120940   0.855   2.110   7.916  0.1313  0.3307  0.2556
  183SOPE  H11R20941   0.845   2.032   7.837  0.3107  1.9597 -1.4597
  183SOPE  H11S20942   0.760   2.094   7.971  0.1399  0.2474  0.2472
  183SOPE  C21220943   0.974   2.063   8.004 -0.1759  0.1253  1.2765
  183SOPE  H12R20944   1.069   2.065   7.947  1.0449  2.8736  3.1623
  183SOPE  H12S20945   0.959   1.958   8.039 -1.8760 -0.1917 -0.2286
  183SOPE  C21320946   0.997   2.160   8.118 -0.0414 -0.1132 -0.3589
  183SOPE  H13R20947   0.899   2.169   8.170  0.1453  2.4352 -0.3221
  183SOPE  H13S20948   1.024   2.265   8.094  1.4259 -0.5640 -0.7919
  183SOPE  C21420949   1.097   2.099   8.225  0.1430  0.0057 -0.0228
  183SOPE  H14R20950   1.198   2.070   8.190  0.8289  1.7294  0.4225
  183SOPE  H14S20951   1.041   2.017   8.275  1.0836 -0.5223  0.1757
  183SOPE  C21520952   1.121   2.203   8.337  0.1920  0.2559 -0.6052
  183SOPE  H15R20953   1.035   2.271   8.354 -0.4439 -0.4353 -0.9810
  183SOPE  H15S20954   1.201   2.268   8.298 -1.2512  1.6708 -1.3373
  183SOPE  C21620955   1.151   2.139   8.477 -0.3193  0.0387 -0.8273
  183SOPE  H16R20956   1.236   2.067   8.479  0.9761  1.5201  1.2497
  183SOPE  H16S20957   1.056   2.090   8.510  0.1049 -0.1494  0.1362
  183SOPE  C21720958   1.172   2.250   8.578  0.7004  0.1129 -0.0560
  183SOPE  H17R20959   1.169   2.205   8.679 -0.6211  2.0233  0.8370
  183SOPE  H17S20960   1.085   2.320   8.575 -0.3807 -0.9856  2.7809
  183SOPE  C21820961   1.304   2.329   8.566 -0.0133  0.4734 -0.2249
  183SOPE  H18R20962   1.384   2.252   8.565  0.2831  0.7502  0.8131
  183SOPE  H18S20963   1.330   2.396   8.651  0.6140  1.1717 -0.9530
  183SOPE  H18T20964   1.312   2.377   8.466  2.5311  0.5103 -0.0757
  183SOPE   C3320965   0.316   1.804   7.178  0.7962 -0.0118  0.0625
  183SOPE   H3X20966   0.215   1.759   7.191  1.3823 -1.0246  1.2708
  183SOPE   H3Y20967   0.291   1.884   7.104  1.5104 -0.2613 -0.4585
  183SOPE   C3420968   0.360   1.875   7.310  0.2248  0.5020 -0.5626
  183SOPE   H4X20969   0.284   1.955   7.326 -3.7995 -3.0657  0.3967
  183SOPE   H4Y20970   0.456   1.929   7.304 -1.3382  3.8842  1.5199
  183SOPE   C3520971   0.368   1.787   7.436  0.4027 -0.4714 -0.0854
  183SOPE   H5X20972   0.428   1.696   7.416  0.5426 -0.2905 -0.5135
  183SOPE   H5Y20973   0.264   1.752   7.454 -0.2757  0.4638 -1.9053
  183SOPE   C3620974   0.409   1.843   7.571  0.3554 -0.3771  0.1022
  183SOPE   H6X20975   0.339   1.929   7.584  1.0222  0.0785  0.7898
  183SOPE   H6Y20976   0.506   1.896   7.560  0.8677 -1.0917  1.1202
  183SOPE   C3720977   0.399   1.753   7.688 -0.2357  0.0874 -0.2563
  183SOPE   H7X20978   0.443   1.661   7.646  1.1818  1.2347 -1.3764
  183SOPE   H7Y20979   0.290   1.734   7.705 -0.2040 -1.9413 -1.9041
  183SOPE   C3820980   0.476   1.809   7.806 -0.6925  0.3301  0.4852
  183SOPE   H8X20981   0.407   1.874   7.865 -1.4582  0.5008 -0.5651
  183SOPE   H8Y20982   0.566   1.870   7.783  0.0881 -1.8569 -2.9162
  183SOPE   C3920983   0.529   1.702   7.907  0.6195  0.7366  0.4327
  183SOPE   H9X20984   0.597   1.633   7.852  1.1441 -0.8862  2.9377
  183SOPE   H9Y20985   0.442   1.638   7.934  0.3498  1.2108  0.6978
  183SOPE  C31020986   0.571   1.761   8.039  0.4596  0.3150 -0.5187
  183SOPE  H10X20987   0.489   1.828   8.076 -0.4421  0.0574 -1.9759
  183SOPE  H10Y20988   0.657   1.826   8.013 -0.2831  1.2661 -0.6462
  183SOPE  C31120989   0.613   1.649   8.133 -0.0680 -0.2933  0.1146
  183SOPE  H11X20990   0.646   1.566   8.068 -0.6244 -1.5374  1.3742
  183SOPE  H11Y20991   0.517   1.610   8.173 -0.1860 -0.8044 -0.6531
  183SOPE  C31220992   0.713   1.699   8.233  0.1763  0.4854  0.8405
  183SOPE  H12X20993   0.678   1.772   8.309  1.5832  0.4863  1.5112
  183SOPE  H12Y20994   0.806   1.745   8.195 -0.2723  2.1337  1.6554
  183SOPE  C31320995   0.745   1.584   8.313 -0.1728 -0.2280 -0.9626
  183SOPE  H13X20996   0.776   1.500   8.247  0.3380 -1.3636  0.6710
  183SOPE  H13Y20997   0.662   1.545   8.376  1.1281  0.2409  1.1346
  183SOPE  C31420998   0.851   1.600   8.428 -0.0129 -0.5497  0.2942
  183SOPE  H14X20999   0.852   1.705   8.462 -0.1491 -0.8043  1.1025
  183SOPE  H14Y21000   0.952   1.571   8.392  0.6641 -0.5796  2.1186
  183SOPE  C31521001   0.826   1.510   8.554  0.6661 -0.5553 -0.1042
  183SOPE  H15X21002   0.821   1.404   8.524 -2.9635 -1.2623  2.3473
  183SOPE  H15Y21003   0.722   1.527   8.590 -0.0633 -0.5900 -2.0828
  183SOPE  C31621004   0.932   1.545   8.664 -0.2502 -0.2534  0.3866
  183SOPE  H16X21005   0.888   1.525   8.764  0.0579  0.8976  0.7656
  183SOPE  H16Y21006   0.933   1.656   8.660 -3.1033 -0.1677 -3.6350
  183SOPE  C31721007   1.060   1.466   8.637 -0.2071  0.0252  0.0021
  183SOPE  H17X21008   1.100   1.501   8.539 -0.2990 -0.3241 -0.1590
  183SOPE  H17Y21009   1.039   1.358   8.629 -1.2368  0.1857  0.3933
  183SOPE  C31821010   1.174   1.491   8.739  0.0351 -0.0125  0.2914
  183SOPE  H18X21011   1.167   1.600   8.758 -2.0308 -0.0308 -0.0836
  183SOPE  H18Y21012   1.271   1.464   8.693 -0.5269 -1.9270  0.1385
  183SOPE  H18Z21013   1.162   1.440   8.837  2.3152  1.8046  1.6060
  184SOPE     N21014   5.873   1.927   5.984  0.6559 -0.2901  0.5693
  184SOPE   HN121015   5.819   1.968   6.063  1.4794 -1.5511  1.8382
  184SOPE   HN221016   5.807   1.896   5.911 -0.4219  0.8597  1.0110
  184SOPE   HN321017   5.917   1.847   6.033 -1.8911 -0.9285  2.0041
  184SOPE   C1221018   5.972   2.027   5.936  0.2770 -0.3248 -0.4121
  184SOPE  H12A21019   5.924   2.066   5.844  2.1535  0.1247 -1.2466
  184SOPE  H12B21020   6.067   1.979   5.903  0.0494  0.5727 -2.5268
  184SOPE   C1121021   5.995   2.148   6.026  0.1941  0.1765 -0.2231
  184SOPE  H11A21022   5.899   2.200   6.050  0.0743  0.4644 -1.2733
  184SOPE  H11B21023   6.058   2.223   5.975  0.7805 -1.0551 -1.3795
  184SOPE     P21024   6.172   2.155   6.222  0.2498 -0.2720 -0.4991
  184SOPE   O1321025   6.125   2.265   6.313  0.3396  0.0589  0.3285
  184SOPE   O1421026   6.278   2.183   6.121  0.3745 -0.4941  0.0110
  184SOPE   O1221027   6.055   2.086   6.140 -0.0887  0.2184 -0.4989
  184SOPE   O1121028   6.234   2.044   6.318  0.3102  0.6666 -0.0056
  184SOPE    C121029   6.142   1.952   6.387 -0.1937 -1.2046  0.4209
  184SOPE    HA21030   6.199   1.857   6.398  2.6848  0.3442 -0.3314
  184SOPE    HB21031   6.049   1.937   6.327 -0.0059 -0.3779 -0.0872
  184SOPE    C221032   6.110   2.013   6.527 -0.2149  0.8450  0.6749
  184SOPE    HS21033   6.122   2.123   6.513 -0.6311  0.6370 -1.5206
  184SOPE   O2121034   6.204   1.959   6.626  0.1682 -0.5325  0.1121
  184SOPE   C2121035   6.243   2.048   6.713  0.3553  0.2061  0.4699
  184SOPE   O2221036   6.214   2.165   6.715  0.1372 -0.6905  0.3610
  184SOPE   C2221037   6.328   1.983   6.826  0.1210 -0.2771  0.7298
  184SOPE   H2R21038   6.431   2.021   6.812 -0.0752  0.2544  0.7297
  184SOPE   H2S21039   6.335   1.873   6.811  1.8914 -0.4144  2.1973
  184SOPE    C321040   5.963   1.991   6.578 -0.6867 -0.5741  0.3411
  184SOPE    HX21041   5.932   1.886   6.596 -2.4754 -0.3610 -1.1962
  184SOPE    HY21042   5.908   2.019   6.486 -0.8082  1.5259  0.9948
  184SOPE   O3121043   5.929   2.072   6.688 -0.4669  0.4995 -0.1093
  184SOPE   C3121044   5.932   2.199   6.671  0.5584 -0.8031  0.4821
  184SOPE   O3221045   5.933   2.251   6.558 -0.0114 -0.0034 -0.3393
  184SOPE   C3221046   5.921   2.287   6.802 -0.3524  0.0051  0.4050
  184SOPE   H2X21047   5.825   2.343   6.794 -0.7088 -0.6410  0.1592
  184SOPE   H2Y21048   6.003   2.362   6.797 -0.3794 -0.0299 -0.9313
  184SOPE   C2321049   6.275   2.017   6.966 -0.3492 -0.1066 -0.1714
  184SOPE   H3R21050   6.165   2.001   6.972 -0.3756  0.1338  0.0398
  184SOPE   H3S21051   6.289   2.125   6.990 -1.7381  0.6551 -2.5064
  184SOPE   C2421052   6.335   1.926   7.077  0.3394 -0.1637  0.7771
  184SOPE   H4R21053   6.333   1.818   7.050  0.6925  0.1340 -0.5211
  184SOPE   H4S21054   6.439   1.958   7.098  0.7839 -0.4587 -0.8210
  184SOPE   C2521055   6.254   1.953   7.204 -0.1992 -0.0790 -0.8276
  184SOPE   H5R21056   6.218   2.057   7.191  0.8417  0.2544 -1.1401
  184SOPE   H5S21057   6.159   1.895   7.208 -0.2268  0.0146  0.8358
  184SOPE   C2621058   6.335   1.946   7.331  0.2517  0.1786 -0.0406
  184SOPE   H6R21059   6.307   1.845   7.365 -0.8822  0.7207  0.7014
  184SOPE   H6S21060   6.443   1.960   7.307 -0.0547 -0.5389 -2.0924
  184SOPE   C2721061   6.303   2.063   7.430 -0.7423  0.8630 -0.0378
  184SOPE   H7R21062   6.340   2.160   7.392  1.9972  0.4547  1.3407
  184SOPE   H7S21063   6.192   2.066   7.429 -0.7437  0.7980 -0.3336
  184SOPE   C2821064   6.359   2.036   7.571  0.0807 -0.1711 -0.3088
  184SOPE   H8R21065   6.466   2.007   7.562 -0.4654 -2.0085 -1.6726
  184SOPE   H8S21066   6.356   2.124   7.638  2.5490  1.0324 -1.6162
  184SOPE   C2921067   6.294   1.908   7.632 -0.1985  0.7843 -0.3571
  184SOPE   H9121068   6.263   1.832   7.559 -1.7038 -0.0478  1.0913
  184SOPE  C21021069   6.278   1.880   7.763 -0.3095  0.0622 -0.7551
  184SOPE  H10121070   6.231   1.786   7.795  3.5738 -1.8761 -0.2415
  184SOPE  C21121071   6.313   1.986   7.872  0.3950  0.5899 -0.1521
  184SOPE  H11R21072   6.254   1.986   7.967  2.2617  1.2729  1.0630
  184SOPE  H11S21073   6.308   2.092   7.838  0.6642  0.0540 -1.9584
  184SOPE  C21221074   6.463   1.956   7.911  0.3563 -0.5555 -0.2476
  184SOPE  H12R21075   6.532   1.964   7.824  2.0593 -0.8982  1.0246
  184SOPE  H12S21076   6.465   1.850   7.946  1.1125 -0.7442 -0.8257
  184SOPE  C21321077   6.512   2.032   8.035  0.7884 -0.0403 -0.5631
  184SOPE  H13R21078   6.515   2.143   8.029 -0.7672  0.0507  0.0683
  184SOPE  H13S21079   6.616   1.995   8.047  0.6249  0.2640  2.4274
  184SOPE  C21421080   6.445   1.984   8.169  0.3257 -0.2972  0.2724
  184SOPE  H14R21081   6.414   1.878   8.154  0.8727 -0.1513 -2.4119
  184SOPE  H14S21082   6.355   2.044   8.195  0.6575  0.6325 -0.6791
  184SOPE  C21521083   6.543   1.991   8.288 -0.3133 -0.4869  0.3956
  184SOPE  H15R21084   6.630   1.923   8.287  2.1808  2.4448 -2.5744
  184SOPE  H15S21085   6.481   1.961   8.376  0.3734  1.4579  1.5999
  184SOPE  C21621086   6.622   2.129   8.294 -0.4047  0.4228  0.6871
  184SOPE  H16R21087   6.551   2.213   8.275 -0.4983  0.0529 -0.7603
  184SOPE  H16S21088   6.692   2.130   8.207 -0.5718  1.8718  0.5509
  184SOPE  C21721089   6.693   2.147   8.427  0.2367  0.3869  0.6807
  184SOPE  H17R21090   6.751   2.240   8.408 -0.4210  0.4902 -0.8947
  184SOPE  H17S21091   6.760   2.063   8.456 -0.8384 -0.5383  0.6026
  184SOPE  C21821092   6.596   2.169   8.551  0.5039  0.4203 -0.6650
  184SOPE  H18R21093   6.508   2.232   8.525 -0.5828  0.0254  1.7484
  184SOPE  H18S21094   6.640   2.200   8.648  0.4810 -0.5637 -0.3271
  184SOPE  H18T21095   6.557   2.066   8.568 -0.6780  0.7284 -1.3629
  184SOPE   C3321096   5.920   2.202   6.929 -0.1371 -0.2503 -0.3322
  184SOPE   H3X21097   6.012   2.142   6.944 -0.4641 -0.7043 -0.1114
  184SOPE   H3Y21098   5.833   2.133   6.916 -1.5729  1.3289  0.4796
  184SOPE   C3421099   5.908   2.293   7.050  0.4535  0.3197 -0.1295
  184SOPE   H4X21100   5.884   2.239   7.145 -2.2919  0.5076 -0.6272
  184SOPE   H4Y21101   5.833   2.375   7.044  0.2403  0.2706  1.4650
  184SOPE   C3521102   6.053   2.351   7.082  0.0192  0.5711  0.9006
  184SOPE   H5X21103   6.099   2.400   6.993 -0.8914  0.4993  0.3773
  184SOPE   H5Y21104   6.118   2.263   7.101  0.4919  0.2741 -1.6565
  184SOPE   C3621105   6.075   2.433   7.208 -0.4821 -0.0505  0.5887
  184SOPE   H6X21106   6.005   2.520   7.214  0.3851  0.6451  0.8076
  184SOPE   H6Y21107   6.175   2.477   7.193 -0.4400 -0.7219 -1.3153
  184SOPE   C3721108   6.064   2.368   7.347  0.3200 -0.1001 -0.0360
  184SOPE   H7X21109   6.101   2.264   7.337 -0.5908 -0.4252 -0.1079
  184SOPE   H7Y21110   5.955   2.361   7.370  0.3419 -0.1600  0.0500
  184SOPE   C3821111   6.135   2.437   7.468 -0.0184  0.0189  0.3040
  184SOPE   H8X21112   6.100   2.542   7.482  1.4507  0.7958 -1.4214
  184SOPE   H8Y21113   6.243   2.454   7.447  0.0352 -0.7402 -0.0790
  184SOPE   C3921114   6.112   2.366   7.600  0.5493  0.1336 -0.1732
  184SOPE   H9X21115   6.148   2.262   7.610 -2.2441 -0.8837  0.2679
  184SOPE   H9Y21116   6.003   2.353   7.617  1.0433  0.0330  3.8581
  184SOPE  C31021117   6.165   2.440   7.726  0.3335 -0.9065  0.4090
  184SOPE  H10X21118   6.127   2.541   7.700 -0.5815 -0.7654  2.1557
  184SOPE  H10Y21119   6.276   2.451   7.725  0.3056 -0.4324  1.7210
  184SOPE  C31121120   6.120   2.388   7.862  0.0164  0.2046  0.0650
  184SOPE  H11X21121   6.162   2.285   7.863  1.7637  0.8621 -0.6643
  184SOPE  H11Y21122   6.010   2.375   7.859  0.1181 -0.4090 -1.7689
  184SOPE  C31221123   6.176   2.442   7.998  0.4029 -0.2037 -0.0370
  184SOPE  H12X21124   6.127   2.541   8.008  0.6068 -0.1792  0.8450
  184SOPE  H12Y21125   6.282   2.459   7.971 -0.2763  1.3808 -1.8771
  184SOPE  C31321126   6.158   2.349   8.118 -0.3998  0.1138 -0.2608
  184SOPE  H13X21127   6.217   2.258   8.093 -0.3362  0.6882 -2.4129
  184SOPE  H13Y21128   6.056   2.309   8.135  0.1858 -0.8638  1.0894
  184SOPE  C31421129   6.208   2.408   8.256  0.0820  0.5303  0.0935
  184SOPE  H14X21130   6.145   2.498   8.274 -2.7208 -1.2223 -0.3723
  184SOPE  H14Y21131   6.312   2.441   8.235  0.0410  0.7730  0.2551
  184SOPE  C31521132   6.191   2.326   8.379 -0.0845 -0.2215 -0.0092
  184SOPE  H15X21133   6.219   2.223   8.348  1.8841  0.8055 -1.9120
  184SOPE  H15Y21134   6.086   2.330   8.414 -0.3678 -0.1753 -0.8293
  184SOPE  C31621135   6.275   2.365   8.499 -0.0808 -0.9927  0.0034
  184SOPE  H16X21136   6.371   2.413   8.470 -0.6655  0.3442  0.2212
  184SOPE  H16Y21137   6.303   2.274   8.557  2.6298 -0.4532 -0.3088
  184SOPE  C31721138   6.203   2.464   8.597 -0.3668  0.5087 -0.1963
  184SOPE  H17X21139   6.097   2.434   8.608 -0.8872  1.5072 -2.0869
  184SOPE  H17Y21140   6.209   2.567   8.557 -4.0003  1.1717  0.6597
  184SOPE  C31821141   6.259   2.469   8.738 -0.1330  0.5729  0.2065
  184SOPE  H18X21142   6.367   2.451   8.725  0.2141  2.1785  0.6533
  184SOPE  H18Y21143   6.198   2.402   8.804  0.1744 -1.1150 -1.1409
  184SOPE  H18Z21144   6.243   2.567   8.787  0.0390  0.9025 -0.3994
  185SAPI   C1221145   2.174   4.225  10.760  0.4398  0.3889 -0.4488
  185SAPI    H221146   2.161   4.310  10.691 -0.7645  0.7354  0.1928
  185SAPI    O221147   2.055   4.206  10.828  0.5377 -0.0781 -0.0318
  185SAPI   HO221148   2.067   4.269  10.900  2.1913  1.9387 -1.9184
  185SAPI   C1321149   2.216   4.104  10.675 -0.1239 -0.6069  0.5476
  185SAPI    H321150   2.315   4.128  10.632  0.2778 -0.6733  1.4127
  185SAPI    O321151   2.132   4.083  10.556 -0.1012 -0.3918  0.2091
  185SAPI   HO321152   2.059   4.025  10.580  0.4051 -0.5235  1.5039
  185SAPI   C1421153   2.231   3.985  10.766 -0.0154 -0.0621 -0.2946
  185SAPI    H421154   2.141   3.949  10.820 -0.1642  0.1208 -0.4200
  185SAPI    O421155   2.275   3.877  10.682  0.3713 -0.7137 -0.7242
  185SAPI   HO421156   2.209   3.814  10.651  0.2939 -1.1518  0.2695
  185SAPI   C1521157   2.329   4.003  10.872 -0.2013 -0.5019 -0.4594
  185SAPI    H521158   2.426   4.018  10.820  0.3386 -0.2275  0.5914
  185SAPI    O521159   2.333   3.888  10.957  0.6724 -0.1760 -0.3499
  185SAPI   HO521160   2.403   3.831  10.922  0.9052  0.2401 -0.5782
  185SAPI   C1621161   2.304   4.129  10.952  0.2536  0.0684 -0.1292
  185SAPI    H621162   2.220   4.116  11.024  0.1435 -2.2460 -0.6117
  185SAPI    O621163   2.411   4.160  11.041 -0.3548  0.4083 -0.6328
  185SAPI   HO621164   2.491   4.146  10.990 -0.4188 -1.6385 -0.2421
  185SAPI   C1121165   2.282   4.255  10.864  0.0445 -0.2570  0.0131
  185SAPI    H121166   2.378   4.264  10.808  1.0712 -0.5808  1.6395
  185SAPI     P21167   2.306   4.519  10.893 -0.1351 -0.0535  0.0760
  185SAPI   O1321168   2.452   4.521  10.857 -0.0945  0.4852 -0.0536
  185SAPI   O1421169   2.269   4.621  10.993 -0.3310  0.7120  0.0829
  185SAPI   O1221170   2.256   4.372  10.940  0.0408 -0.3613  0.3878
  185SAPI   O1121171   2.228   4.546  10.763  0.1768 -0.3425 -0.1120
  185SAPI    C121172   2.088   4.576  10.751  0.5671 -0.0753 -0.8333
  185SAPI    HA21173   2.041   4.489  10.701  1.2864  0.1027 -1.8576
  185SAPI    HB21174   2.052   4.597  10.854 -0.5890 -2.0140 -0.8077
  185SAPI    C221175   2.063   4.708  10.684  0.5089 -0.1871  0.6720
  185SAPI    HS21176   1.961   4.743  10.710 -0.6874 -0.4450 -3.0491
  185SAPI   O2121177   2.063   4.690  10.538  0.5864 -0.1205  0.3189
  185SAPI   C2121178   1.951   4.632  10.485  0.1457  0.8793  0.3369
  185SAPI   O2221179   1.859   4.592  10.551  0.1844  0.6010  0.3012
  185SAPI   C2221180   1.975   4.640  10.329 -0.1673 -0.7423  0.1285
  185SAPI   H2R21181   1.971   4.747  10.299 -1.2020 -0.5692  0.8339
  185SAPI   H2S21182   2.069   4.588  10.300  1.2303  1.5180  0.3160
  185SAPI    C321183   2.167   4.818  10.720  0.1457 -0.6626 -0.2055
  185SAPI    HX21184   2.261   4.777  10.678  0.5083  0.1740 -0.2400
  185SAPI    HY21185   2.167   4.830  10.830  2.3833 -2.1760  0.0300
  185SAPI   O3121186   2.139   4.942  10.657 -0.0540 -0.7981  0.1628
  185SAPI   C3121187   2.240   5.026  10.657  0.2122 -0.4227 -0.4433
  185SAPI   O3221188   2.340   5.023  10.731 -0.0116  0.2723  0.2146
  185SAPI   C3221189   2.203   5.133  10.552  0.3270 -0.5852  0.1782
  185SAPI   H2X21190   2.284   5.207  10.571 -1.1173  1.1250 -0.0096
  185SAPI   H2Y21191   2.111   5.181  10.591  0.2058  0.3232 -1.1959
  185SAPI   C2321192   1.866   4.565  10.249 -0.7057  0.6126  0.0759
  185SAPI   H3R21193   1.871   4.593  10.142 -0.0999  0.9064  0.1776
  185SAPI   H3S21194   1.764   4.586  10.289 -1.6809 -0.0747 -1.9085
  185SAPI   C2421195   1.890   4.410  10.243  0.2126 -0.4605 -0.1801
  185SAPI   H4R21196   1.905   4.385  10.350  1.1169  0.6934 -0.0143
  185SAPI   H4S21197   1.992   4.385  10.206  0.2802 -1.9005  0.8877
  185SAPI   C2521198   1.784   4.329  10.172 -0.1484  0.2705  0.0185
  185SAPI   H5R21199   1.694   4.310  10.232  0.9787 -1.3997  1.2723
  185SAPI   C2621200   1.788   4.283  10.041  0.8037 -0.0079 -0.6054
  185SAPI   H6R21201   1.701   4.227  10.004  0.7992 -0.6061  0.2941
  185SAPI   C2721202   1.895   4.312   9.936 -0.0428  0.2016 -0.8145
  185SAPI   H7R21203   1.977   4.366   9.988  0.6670 -1.1395 -0.5126
  185SAPI   H7S21204   1.843   4.388   9.874 -1.1238 -0.0682 -0.2739
  185SAPI   C2821205   1.939   4.197   9.854 -0.5902 -0.0970  0.8759
  185SAPI   H8R21206   1.943   4.098   9.901  0.6015 -0.5847 -0.2125
  185SAPI   C2921207   1.984   4.199   9.725  0.0462 -0.6641  0.3294
  185SAPI   H9R21208   2.033   4.114   9.676  0.0223  0.4411 -1.7384
  185SAPI  C21021209   2.004   4.322   9.639  0.0021  0.0106 -0.3058
  185SAPI  H10R21210   2.109   4.358   9.626 -0.5884  1.9889  0.0860
  185SAPI  H10S21211   1.968   4.414   9.688 -0.6151  0.1439 -1.0078
  185SAPI  C21121212   1.927   4.307   9.508 -0.4099 -0.2053 -0.1711
  185SAPI  H11R21213   1.820   4.335   9.505 -1.1476 -2.8435 -1.5814
  185SAPI  C21221214   1.982   4.289   9.383 -0.4267 -0.2965 -0.1375
  185SAPI  H12R21215   1.918   4.291   9.293  2.3212  0.6874 -2.1833
  185SAPI  C21321216   2.125   4.279   9.352 -0.4542 -0.1803 -0.2487
  185SAPI  H13R21217   2.197   4.266   9.436 -0.8645 -0.8970  0.0040
  185SAPI  H13S21218   2.154   4.370   9.297  1.2891 -0.9318 -0.6463
  185SAPI  C21421219   2.144   4.163   9.258  0.4712 -0.0394  0.2301
  185SAPI  H14R21220   2.106   4.067   9.296 -1.2572  0.3337 -0.4591
  185SAPI  C21521221   2.201   4.172   9.134  0.3514  0.6672  0.4995
  185SAPI  H15R21222   2.221   4.088   9.066  2.9122  1.3433  0.2884
  185SAPI  C21621223   2.265   4.294   9.072 -0.1187 -0.6289 -0.1441
  185SAPI  H16R21224   2.301   4.374   9.140  0.9610 -0.5425 -0.7927
  185SAPI  H16S21225   2.183   4.357   9.031  2.3964 -0.1513 -5.2424
  185SAPI  C21721226   2.378   4.269   8.968  0.4498 -0.6356 -0.4684
  185SAPI  H17R21227   2.450   4.200   9.017  1.7739  1.1737  0.2626
  185SAPI  H17S21228   2.437   4.361   8.948  1.4408 -1.1871 -0.1408
  185SAPI  C21821229   2.323   4.220   8.834 -0.1539  0.1206 -0.3192
  185SAPI  H18R21230   2.244   4.285   8.791 -0.6064 -1.5907 -2.2489
  185SAPI  H18S21231   2.276   4.120   8.845  0.8553 -0.2573  0.7672
  185SAPI  C21921232   2.430   4.200   8.729 -0.1340 -0.2192 -0.3242
  185SAPI  H19R21233   2.497   4.115   8.754  1.9547  1.5548  0.3775
  185SAPI  H19S21234   2.494   4.290   8.734 -0.7810  0.1817  2.7240
  185SAPI  C22021235   2.375   4.185   8.587  0.3239 -0.1443  0.2463
  185SAPI  H20R21236   2.307   4.097   8.583 -1.4525  1.1718  0.1552
  185SAPI  H20S21237   2.457   4.173   8.514  0.5137  0.3935  0.3719
  185SAPI  H20T21238   2.307   4.271   8.568  1.0579  0.7638  1.5552
  185SAPI   C3321239   2.223   5.094  10.409 -0.1915  0.3277  0.1917
  185SAPI   H3X21240   2.155   5.009  10.383  0.5523 -0.1947 -0.0739
  185SAPI   H3Y21241   2.330   5.072  10.393  0.0929  0.1306  2.1471
  185SAPI   C3421242   2.192   5.201  10.308  0.1351 -0.5396  0.5029
  185SAPI   H4X21243   2.230   5.300  10.341  0.1438 -0.4936  0.3525
  185SAPI   H4Y21244   2.081   5.210  10.319  0.4332  1.2543  3.1044
  185SAPI   C3521245   2.241   5.180  10.166  0.9618 -0.0010 -0.0940
  185SAPI   H5X21246   2.344   5.139  10.171  1.2193  0.8318  2.5446
  185SAPI   H5Y21247   2.243   5.280  10.116 -2.9909  1.2284  1.7960
  185SAPI   C3621248   2.153   5.073  10.090 -0.3656 -0.2826  0.2471
  185SAPI   H6X21249   2.048   5.097  10.116 -0.4509 -0.8565  0.4624
  185SAPI   H6Y21250   2.169   4.966  10.115 -0.6947 -0.6413 -1.0190
  185SAPI   C3721251   2.166   5.076   9.935 -0.0948 -0.1926  0.0113
  185SAPI   H7X21252   2.273   5.059   9.913 -0.2526 -2.2875  0.6541
  185SAPI   H7Y21253   2.156   5.179   9.894 -0.8229 -0.1917  0.1726
  185SAPI   C3821254   2.073   4.976   9.872 -0.2837 -0.2419  0.1478
  185SAPI   H8X21255   1.967   5.004   9.891 -0.3924 -0.2322 -0.4478
  185SAPI   H8Y21256   2.077   4.872   9.912 -0.8197  0.4979  2.2165
  185SAPI   C3921257   2.094   4.979   9.715  0.4121 -0.9268 -0.2562
  185SAPI   H9X21258   2.198   4.949   9.690  0.2910 -2.0652  0.5083
  185SAPI   H9Y21259   2.090   5.085   9.684  2.7421  0.8224  4.4119
  185SAPI  C31021260   1.992   4.895   9.644 -0.0042 -0.0279 -0.1037
  185SAPI  H10X21261   1.894   4.946   9.655  0.4691  1.0763 -0.8587
  185SAPI  H10Y21262   1.990   4.792   9.687  3.0437  0.4446  1.5119
  185SAPI  C31121263   2.014   4.880   9.492 -0.3510  0.6247  0.3315
  185SAPI  H11X21264   2.119   4.851   9.475 -0.3942  1.2508 -1.2243
  185SAPI  H11Y21265   2.009   4.976   9.436 -0.1311 -0.8015 -2.2886
  185SAPI  C31221266   1.914   4.780   9.437 -0.2495  0.1418 -0.4435
  185SAPI  H12X21267   1.809   4.813   9.450  0.0482 -0.0980  4.2438
  185SAPI  H12Y21268   1.943   4.685   9.489 -1.7244 -0.2520 -0.3067
  185SAPI  C31321269   1.934   4.743   9.282 -0.0975 -0.2365 -0.1895
  185SAPI  H13X21270   1.886   4.646   9.258  0.5619 -0.0426 -2.5160
  185SAPI  H13Y21271   2.041   4.716   9.271 -0.2012 -0.1872 -1.4569
  185SAPI  C31421272   1.886   4.848   9.181  0.6420  0.2428 -0.2003
  185SAPI  H14X21273   1.934   4.945   9.206 -1.2363  0.9895  0.7644
  185SAPI  H14Y21274   1.777   4.868   9.190  0.5957 -0.6319  1.8090
  185SAPI  C31521275   1.945   4.815   9.042  0.1526 -0.4896  0.8824
  185SAPI  H15X21276   2.055   4.801   9.041  0.1231 -1.2179  2.7661
  185SAPI  H15Y21277   1.908   4.891   8.970 -0.8581 -1.9844 -0.2332
  185SAPI  C31621278   1.880   4.690   8.986  0.0411 -0.1673  0.3752
  185SAPI  H16X21279   1.771   4.709   8.978  0.0356  0.0556  0.9341
  185SAPI  H16Y21280   1.896   4.601   9.049 -0.8393 -3.7733 -4.0088
  185SAPI  C31721281   1.950   4.632   8.861  0.0631  0.3669  0.1861
  185SAPI  H17X21282   1.931   4.690   8.768 -0.1653 -1.3607 -0.8943
  185SAPI  H17Y21283   1.911   4.532   8.834 -0.3435  0.3521  0.8098
  185SAPI  C31821284   2.103   4.614   8.869  0.4054 -0.1621  0.4257
  185SAPI  H18X21285   2.135   4.567   8.965  1.1470 -0.5251  0.0094
  185SAPI  H18Y21286   2.147   4.717   8.869 -2.0359  1.0086 -2.2570
  185SAPI  H18Z21287   2.151   4.556   8.787  0.6981  1.5683 -0.6936
  186SAPI   C1221288   3.512   3.579  10.888 -0.1911  0.2481  0.4398
  186SAPI    H221289   3.485   3.573  10.780 -1.9882 -0.7262  0.9055
  186SAPI    O221290   3.653   3.614  10.904  0.0383 -0.1321  0.3235
  186SAPI   HO221291   3.671   3.705  10.878  0.1319 -0.3849 -0.5568
  186SAPI   C1321292   3.426   3.686  10.956  0.8786 -0.1377 -1.2535
  186SAPI    H321293   3.319   3.658  10.952  0.4062  1.2448  0.7161
  186SAPI    O321294   3.430   3.815  10.897 -0.9191  0.2623 -0.2689
  186SAPI   HO321295   3.518   3.829  10.861 -2.2908  2.1217 -3.3896
  186SAPI   C1421296   3.453   3.680  11.103  0.2449 -0.6748 -0.2974
  186SAPI    H421297   3.563   3.693  11.118  0.2893 -0.4075 -0.8445
  186SAPI    O421298   3.380   3.783  11.181  0.4371 -0.3748 -0.0351
  186SAPI   HO421299   3.399   3.871  11.148 -0.9177  0.1826  0.5828
  186SAPI   C1521300   3.413   3.537  11.152  0.5690 -0.3294 -0.5835
  186SAPI    H521301   3.305   3.521  11.136  0.2286 -3.0077  3.0921
  186SAPI    O521302   3.421   3.530  11.301  0.0489 -0.2234  0.7489
  186SAPI   HO521303   3.470   3.601  11.344 -0.6809  0.8332 -0.1039
  186SAPI   C1621304   3.514   3.438  11.086  0.5060 -0.1495  0.5065
  186SAPI    H621305   3.620   3.467  11.103  0.9971 -1.7541  0.3645
  186SAPI    O621306   3.490   3.312  11.144 -0.1491  0.4945  0.4917
  186SAPI   HO621307   3.397   3.289  11.139 -0.3294  1.4011 -0.8546
  186SAPI   C1121308   3.483   3.445  10.940 -0.1571 -0.3945  0.5041
  186SAPI    H121309   3.376   3.417  10.943 -0.7598  1.8548  1.2386
  186SAPI     P21310   3.472   3.256  10.742  0.4789  0.0405 -0.0450
  186SAPI   O1321311   3.344   3.199  10.797 -0.4300 -0.1760 -0.2180
  186SAPI   O1421312   3.565   3.161  10.680  0.5946  0.4936  0.1319
  186SAPI   O1221313   3.551   3.340  10.867 -0.2811 -0.6268  0.1902
  186SAPI   O1121314   3.440   3.379  10.644 -0.1539  0.0246 -0.3269
  186SAPI    C121315   3.307   3.372  10.580  0.1634 -0.2350 -0.6696
  186SAPI    HA21316   3.225   3.332  10.643 -0.2817 -0.8982 -1.6557
  186SAPI    HB21317   3.278   3.474  10.546 -0.4342  0.1022  0.7745
  186SAPI    C221318   3.327   3.294  10.443  0.1888 -0.1114 -0.5744
  186SAPI    HS21319   3.316   3.189  10.476 -1.4820  0.7161  1.7773
  186SAPI   O2121320   3.457   3.320  10.380  0.3465 -0.3955  0.3896
  186SAPI   C2121321   3.526   3.209  10.339  0.0992 -0.6348 -0.6872
  186SAPI   O2221322   3.479   3.097  10.328 -0.0044  0.1142  0.6652
  186SAPI   C2221323   3.666   3.256  10.289  0.0489  0.6456  0.4540
  186SAPI   H2R21324   3.669   3.366  10.300 -1.2013  0.6856  0.5017
  186SAPI   H2S21325   3.737   3.212  10.364 -0.2955  0.2669  0.5634
  186SAPI    C321326   3.220   3.331  10.339 -0.2483  0.7192  0.1462
  186SAPI    HX21327   3.245   3.432  10.299 -0.9327  0.9412  0.2751
  186SAPI    HY21328   3.125   3.329  10.395 -0.4542 -0.1439 -0.2194
  186SAPI   O3121329   3.223   3.236  10.226  0.1738 -0.2469 -0.7712
  186SAPI   C3121330   3.168   3.120  10.242 -0.2214  0.0839  1.0570
  186SAPI   O3221331   3.109   3.085  10.341 -0.3566  0.2183  0.5264
  186SAPI   C3221332   3.183   3.037  10.114  0.5209  0.6249 -0.3241
  186SAPI   H2X21333   3.241   2.948  10.146 -0.4690  0.7939  2.1879
  186SAPI   H2Y21334   3.238   3.100  10.041 -2.7858  1.5685 -2.1834
  186SAPI   C2321335   3.698   3.215  10.142  0.3412 -0.4361 -0.3483
  186SAPI   H3R21336   3.654   3.115  10.121  1.3119 -1.0309  0.3445
  186SAPI   H3S21337   3.809   3.208  10.138  0.2924 -4.6525  0.5238
  186SAPI   C2421338   3.666   3.329  10.042  0.0323  0.0223 -0.1812
  186SAPI   H4R21339   3.728   3.317   9.951  0.2987  0.7882 -0.1068
  186SAPI   H4S21340   3.710   3.420  10.088 -0.7229 -1.7206  4.6189
  186SAPI   C2521341   3.522   3.364  10.012 -0.4946 -0.0437 -0.1320
  186SAPI   H5R21342   3.465   3.417  10.090 -1.9885  0.6243 -1.6241
  186SAPI   C2621343   3.460   3.318   9.901 -0.2612 -0.3808  0.3886
  186SAPI   H6R21344   3.356   3.349   9.885 -0.2031 -1.4717 -2.6040
  186SAPI   C2721345   3.509   3.244   9.782  0.0570 -0.0175 -0.6727
  186SAPI   H7R21346   3.604   3.192   9.808  0.7787  0.2983 -2.4983
  186SAPI   H7S21347   3.539   3.313   9.700 -1.6603 -0.0310 -1.3501
  186SAPI   C2821348   3.399   3.152   9.733 -0.0657  0.2524 -0.5400
  186SAPI   H8R21349   3.304   3.196   9.700 -1.2692 -2.0644 -0.3775
  186SAPI   C2921350   3.408   3.011   9.733 -0.1402  0.6440 -0.4595
  186SAPI   H9R21351   3.327   2.948   9.693  0.8622  0.0171 -1.5751
  186SAPI  C21021352   3.525   2.931   9.792  0.8326 -0.1185  0.1717
  186SAPI  H10R21353   3.616   2.975   9.747 -0.4130  2.8472  0.2862
  186SAPI  H10S21354   3.529   2.826   9.757  0.7335  0.9273 -3.3026
  186SAPI  C21121355   3.532   2.950   9.940 -0.4777 -0.1923 -0.5637
  186SAPI  H11R21356   3.526   3.053   9.979  1.6424  0.5732 -2.0895
  186SAPI  C21221357   3.566   2.855  10.025  0.2462 -0.1942 -0.1838
  186SAPI  H12R21358   3.565   2.871  10.134  1.7075  0.1247 -0.1989
  186SAPI  C21321359   3.596   2.712   9.994  0.4551  0.0279 -0.6681
  186SAPI  H13R21360   3.554   2.683   9.895 -0.8689 -0.6333  0.0527
  186SAPI  H13S21361   3.540   2.643  10.061  1.9966 -0.8001 -0.1892
  186SAPI  C21421362   3.745   2.684  10.000 -0.3521  0.8480  0.0040
  186SAPI  H14R21363   3.794   2.716  10.093  0.0122 -1.0974  0.5167
  186SAPI  C21521364   3.833   2.631   9.907  0.0214  0.1197 -0.0315
  186SAPI  H15R21365   3.936   2.605   9.934 -0.2043 -0.6236  0.1346
  186SAPI  C21621366   3.790   2.594   9.765 -0.0524 -0.1411  1.1677
  186SAPI  H16R21367   3.686   2.629   9.746 -0.3888 -2.0183 -0.8252
  186SAPI  H16S21368   3.792   2.483   9.757  2.0385 -0.1045  0.7257
  186SAPI  C21721369   3.884   2.650   9.655  0.8373 -0.4348 -0.1903
  186SAPI  H17R21370   3.985   2.602   9.654  1.6735  1.1994  0.7464
  186SAPI  H17S21371   3.907   2.756   9.677 -1.2995  0.0180  0.0546
  186SAPI  C21821372   3.815   2.633   9.520 -0.0912 -0.0588  0.0670
  186SAPI  H18R21373   3.706   2.648   9.531 -0.1513 -0.0385 -0.5220
  186SAPI  H18S21374   3.833   2.527   9.490 -1.3057 -0.1550 -0.3462
  186SAPI  C21921375   3.866   2.733   9.415 -0.1558 -0.2270 -0.0864
  186SAPI  H19R21376   3.970   2.705   9.390 -0.9970 -0.8899 -3.2563
  186SAPI  H19S21377   3.869   2.836   9.457  0.7262 -0.7530  1.2053
  186SAPI  C22021378   3.770   2.725   9.293  0.0360  0.1339 -0.2409
  186SAPI  H20R21379   3.664   2.738   9.324  0.7868 -1.9238  3.8856
  186SAPI  H20S21380   3.766   2.619   9.260 -0.5372 -0.0043  0.2580
  186SAPI  H20T21381   3.782   2.797   9.209  0.9334  1.1632  0.7222
  186SAPI   C3321382   3.048   3.006  10.048 -0.8711  0.8543 -0.4572
  186SAPI   H3X21383   2.993   3.102  10.053 -0.4906  1.0421  0.3008
  186SAPI   H3Y21384   2.976   2.938  10.100  0.6113 -1.4719 -1.2721
  186SAPI   C3421385   3.074   2.955   9.907 -0.2776  0.2068 -0.6503
  186SAPI   H4X21386   3.156   2.881   9.924 -2.5290 -1.8984  2.1102
  186SAPI   H4Y21387   3.102   3.044   9.847 -2.4590  1.1736 -0.3356
  186SAPI   C3521388   2.941   2.877   9.865 -0.7518 -0.3264 -0.1379
  186SAPI   H5X21389   2.856   2.949   9.864 -0.2408  0.2978 -1.3427
  186SAPI   H5Y21390   2.929   2.789   9.932  2.5451 -0.1623  0.8193
  186SAPI   C3621391   2.943   2.839   9.716 -0.1654  0.9168  0.0367
  186SAPI   H6X21392   2.851   2.785   9.683 -0.3616  2.6470 -2.5050
  186SAPI   H6Y21393   3.023   2.764   9.700 -1.4284  0.0304 -2.9439
  186SAPI   C3721394   2.962   2.964   9.629 -0.7941 -0.6955 -0.2711
  186SAPI   H7X21395   3.040   3.038   9.659 -0.8109 -0.9737  0.4737
  186SAPI   H7Y21396   2.867   3.021   9.639  0.9152  2.7819 -1.9024
  186SAPI   C3821397   2.982   2.930   9.483 -0.0992  1.1962  0.4588
  186SAPI   H8X21398   2.956   3.025   9.433  0.4840  1.0314 -0.1637
  186SAPI   H8Y21399   2.913   2.847   9.458 -1.6757  2.7826 -0.6494
  186SAPI   C3921400   3.125   2.884   9.441  0.3077  0.1173 -0.1838
  186SAPI   H9X21401   3.135   2.793   9.503  1.4865  1.8261  2.3180
  186SAPI   H9Y21402   3.187   2.968   9.479  0.8919 -0.4238  0.0729
  186SAPI  C31021403   3.139   2.873   9.289  0.0261 -0.7540 -0.1886
  186SAPI  H10X21404   3.045   2.911   9.245  1.4390  2.4243 -0.7202
  186SAPI  H10Y21405   3.155   2.772   9.245 -0.6236 -0.9604  0.0398
  186SAPI  C31121406   3.253   2.958   9.217  0.4440 -0.2438  0.2817
  186SAPI  H11X21407   3.342   2.892   9.215 -1.2925 -2.7153 -1.2213
  186SAPI  H11Y21408   3.275   3.038   9.291  0.4389  0.3975 -0.4045
  186SAPI  C31221409   3.220   3.001   9.074 -0.6488  0.8174 -0.1124
  186SAPI  H12X21410   3.147   3.085   9.081 -1.8858 -0.3189  1.4652
  186SAPI  H12Y21411   3.177   2.917   9.016  0.5835  0.1050 -0.0124
  186SAPI  C31321412   3.352   3.035   9.001  0.4443  1.0888  0.6707
  186SAPI  H13X21413   3.419   2.948   8.987 -0.0038  0.3858  2.5871
  186SAPI  H13Y21414   3.408   3.118   9.048  0.0369  1.2900  0.8082
  186SAPI  C31421415   3.327   3.082   8.853 -0.4387 -0.5067 -0.1821
  186SAPI  H14X21416   3.293   3.000   8.785  0.4170  0.9361 -2.4599
  186SAPI  H14Y21417   3.431   3.108   8.824 -0.8319  1.6247  0.1381
  186SAPI  C31521418   3.233   3.202   8.829  0.2959  0.2716 -0.1453
  186SAPI  H15X21419   3.274   3.283   8.893  1.0265 -1.7362  2.0614
  186SAPI  H15Y21420   3.134   3.168   8.866  0.9264 -0.8422  0.5693
  186SAPI  C31621421   3.216   3.254   8.684  0.1475  0.2974 -0.0055
  186SAPI  H16X21422   3.177   3.171   8.621  1.9422 -2.4615  2.2647
  186SAPI  H16Y21423   3.316   3.274   8.639  1.1538 -0.6722  1.6920
  186SAPI  C31721424   3.118   3.369   8.692 -0.7471  0.2968  0.6691
  186SAPI  H17X21425   3.167   3.461   8.729  3.2856 -0.9436 -0.9367
  186SAPI  H17Y21426   3.032   3.334   8.752 -2.4330  4.8711  1.2670
  186SAPI  C31821427   3.070   3.411   8.546 -0.1344  0.2270  0.7377
  186SAPI  H18X21428   3.017   3.324   8.501 -2.0651  0.9522  1.5321
  186SAPI  H18Y21429   3.155   3.447   8.484  1.4239 -3.2001  0.6206
  186SAPI  H18Z21430   3.000   3.494   8.565 -0.2415 -0.1877  2.3294
  187SAPI   C1221431   6.511   6.623   6.196 -0.5821  0.5132  0.0940
  187SAPI    H221432   6.618   6.596   6.190  0.1929  3.5525 -2.0216
  187SAPI    O221433   6.485   6.716   6.302  0.5464  0.1172 -0.0389
  187SAPI   HO221434   6.550   6.707   6.373  1.5829  2.9059 -0.5076
  187SAPI   C1321435   6.492   6.686   6.061 -0.3579  0.5997  0.4921
  187SAPI    H321436   6.501   6.599   5.993  0.6245 -1.6046  3.2400
  187SAPI    O321437   6.594   6.783   6.026  0.3275 -0.7161  0.0829
  187SAPI   HO321438   6.658   6.751   5.962 -1.5358 -0.9139 -1.8055
  187SAPI   C1421439   6.351   6.738   6.042  0.3343  0.9291 -0.5525
  187SAPI    H421440   6.347   6.816   6.121 -0.7981  1.0199 -0.6749
  187SAPI    O421441   6.329   6.795   5.908 -0.0802  0.2284 -0.3416
  187SAPI   HO421442   6.304   6.724   5.848 -0.5064  0.5527 -0.5499
  187SAPI   C1521443   6.253   6.629   6.078  0.1469 -0.8977  0.4098
  187SAPI    H521444   6.254   6.554   5.996  0.1879  0.4725 -0.8937
  187SAPI    O521445   6.122   6.686   6.059 -0.0870 -0.3611  0.2069
  187SAPI   HO521446   6.061   6.617   6.088 -0.2312  0.4500  1.9610
  187SAPI   C1621447   6.275   6.546   6.203  0.8534 -0.0408  0.2579
  187SAPI    H621448   6.249   6.601   6.296  0.3876 -1.5648  1.0823
  187SAPI    O621449   6.196   6.426   6.203  0.0064  0.0737  0.3408
  187SAPI   HO621450   6.248   6.347   6.221  0.7753  0.3975 -0.4258
  187SAPI   C1121451   6.418   6.498   6.212  0.1742  0.2187  0.0891
  187SAPI    H121452   6.437   6.437   6.121 -1.1660 -0.1011  0.0045
  187SAPI     P21453   6.520   6.281   6.337 -0.0688  0.1420 -0.0407
  187SAPI   O1321454   6.597   6.272   6.460  0.3731  0.4282  0.1829
  187SAPI   O1421455   6.596   6.265   6.206  0.5349  0.0365 -1.2771
  187SAPI   O1221456   6.443   6.432   6.343  0.0776  0.0835  0.3439
  187SAPI   O1121457   6.408   6.175   6.347  0.4067 -0.2185 -0.2409
  187SAPI    C121458   6.292   6.184   6.427 -0.5899 -0.3449  0.7518
  187SAPI    HA21459   6.261   6.288   6.449 -0.4305  0.5132 -2.6020
  187SAPI    HB21460   6.204   6.152   6.369  0.5123  0.0232 -1.2031
  187SAPI    C221461   6.305   6.093   6.549  0.0963 -0.4067 -0.2361
  187SAPI    HS21462   6.206   6.099   6.598  0.2028  0.7060 -0.1127
  187SAPI   O2121463   6.404   6.143   6.643  0.1006 -0.0972  0.4960
  187SAPI   C2121464   6.373   6.259   6.695 -0.2249  0.1513  0.6350
  187SAPI   O2221465   6.267   6.317   6.678 -0.8803  0.0790  0.8415
  187SAPI   C2221466   6.495   6.307   6.775 -0.0259  0.2736 -0.1472
  187SAPI   H2R21467   6.479   6.275   6.880 -0.5761 -2.1892 -0.9181
  187SAPI   H2S21468   6.589   6.265   6.733 -1.0211 -1.4343 -0.7552
  187SAPI    C321469   6.334   5.940   6.523  0.5285  0.0753  0.0365
  187SAPI    HX21470   6.438   5.934   6.484  1.0549 -0.2034  1.4561
  187SAPI    HY21471   6.263   5.913   6.441  0.5023  0.0015  0.0831
  187SAPI   O3121472   6.307   5.843   6.636  0.6795 -0.8368  0.4686
  187SAPI   C3121473   6.403   5.844   6.739 -0.0177 -0.1321  0.4066
  187SAPI   O3221474   6.502   5.914   6.735 -0.0648  0.4649 -0.5056
  187SAPI   C3221475   6.369   5.733   6.841  0.6462 -0.6367  0.7996
  187SAPI   H2X21476   6.373   5.637   6.784  0.5820  0.1428 -0.5708
  187SAPI   H2Y21477   6.267   5.754   6.880  0.1771 -2.2503  0.5529
  187SAPI   C2321478   6.499   6.464   6.786 -0.6044  0.4041  0.1206
  187SAPI   H3R21479   6.426   6.488   6.866  0.5151 -0.3090  1.3937
  187SAPI   H3S21480   6.477   6.526   6.696 -0.4103  0.5337  0.1619
  187SAPI   C2421481   6.633   6.516   6.843  0.1459 -0.0713 -0.5206
  187SAPI   H4R21482   6.622   6.625   6.867  0.7035 -0.0047 -0.5521
  187SAPI   H4S21483   6.707   6.520   6.760 -1.0151 -0.9183 -1.6194
  187SAPI   C2521484   6.699   6.443   6.964  0.4866 -0.0970  0.8228
  187SAPI   H5R21485   6.785   6.379   6.936  0.2163 -0.9080  1.8082
  187SAPI   C2621486   6.675   6.450   7.095 -0.3760 -0.4212 -0.0394
  187SAPI   H6R21487   6.731   6.388   7.167  0.2888  1.2899  1.0032
  187SAPI   C2721488   6.571   6.537   7.154 -0.3034  0.2554 -0.1642
  187SAPI   H7R21489   6.491   6.564   7.081 -0.3483  0.5965  0.0106
  187SAPI   H7S21490   6.617   6.624   7.205 -1.5185  0.4848  0.5800
  187SAPI   C2821491   6.495   6.452   7.258 -0.1823  0.0219 -0.3184
  187SAPI   H8R21492   6.419   6.390   7.211 -0.5224 -1.0541  1.5289
  187SAPI   C2921493   6.503   6.466   7.388 -0.1899  0.3120 -0.2455
  187SAPI   H9R21494   6.436   6.406   7.452 -1.6187 -0.7090 -2.5560
  187SAPI  C21021495   6.586   6.563   7.467  0.9032  0.3490 -0.3747
  187SAPI  H10R21496   6.529   6.657   7.479 -2.0476 -1.3044 -0.5444
  187SAPI  H10S21497   6.676   6.588   7.407  2.1008  0.8135  1.5079
  187SAPI  C21121498   6.635   6.515   7.604  0.5892  0.7015 -0.9045
  187SAPI  H11R21499   6.743   6.494   7.611  0.3766 -0.3989 -0.7843
  187SAPI  C21221500   6.564   6.514   7.719 -0.2512  0.2085 -0.1714
  187SAPI  H12R21501   6.617   6.478   7.808 -1.2675  1.9227  1.1956
  187SAPI  C21321502   6.423   6.545   7.732  0.8731 -0.0794 -0.6351
  187SAPI  H13R21503   6.384   6.580   7.634 -2.0855  1.2570  0.8785
  187SAPI  H13S21504   6.400   6.621   7.809 -0.5351 -1.0850 -0.0225
  187SAPI  C21421505   6.335   6.424   7.774  0.2135  0.1930  0.7283
  187SAPI  H14R21506   6.267   6.386   7.697 -0.3282 -0.8596  1.7113
  187SAPI  C21521507   6.333   6.362   7.891 -0.2079  0.0858 -0.3695
  187SAPI  H15R21508   6.267   6.276   7.910 -2.2682  1.6133 -0.2736
  187SAPI  C21621509   6.427   6.409   8.006 -0.8086  0.0145  0.3527
  187SAPI  H16R21510   6.495   6.493   7.980  0.0472 -1.6263 -3.2986
  187SAPI  H16S21511   6.488   6.327   8.051 -0.6039 -0.9187 -1.5202
  187SAPI  C21721512   6.337   6.454   8.119 -0.3634  0.5600 -0.3870
  187SAPI  H17R21513   6.261   6.378   8.148  0.3476  0.0915  0.3080
  187SAPI  H17S21514   6.294   6.552   8.089 -1.2014 -0.3096 -2.2267
  187SAPI  C21821515   6.428   6.471   8.246 -0.2929  0.1435  0.4386
  187SAPI  H18R21516   6.486   6.565   8.237 -2.1888  1.2125 -1.4667
  187SAPI  H18S21517   6.503   6.389   8.242  0.8738  1.2149 -0.7305
  187SAPI  C21921518   6.346   6.478   8.371  0.2631 -0.1771 -0.2208
  187SAPI  H19R21519   6.279   6.389   8.376 -1.0624  0.8465  0.6600
  187SAPI  H19S21520   6.279   6.566   8.369 -0.8326 -1.0065 -1.8670
  187SAPI  C22021521   6.427   6.478   8.504 -0.3061  0.1243 -0.4490
  187SAPI  H20R21522   6.475   6.379   8.518 -0.6455  0.0626  0.2986
  187SAPI  H20S21523   6.360   6.485   8.592  2.9497  1.3044  2.1382
  187SAPI  H20T21524   6.501   6.561   8.503 -1.4130  1.1403 -0.1193
  187SAPI   C3321525   6.461   5.739   6.966  0.6003  0.8454 -0.4119
  187SAPI   H3X21526   6.492   5.843   6.990  1.4440  0.3936  0.5402
  187SAPI   H3Y21527   6.557   5.688   6.945  0.4331  1.2281 -2.2217
  187SAPI   C3421528   6.390   5.692   7.093 -0.1299  0.4890  0.0405
  187SAPI   H4X21529   6.375   5.582   7.100 -1.0944  0.6955  3.5978
  187SAPI   H4Y21530   6.296   5.749   7.110  0.3312  1.3605 -0.3102
  187SAPI   C3521531   6.474   5.736   7.212 -0.8938  0.6058 -0.6334
  187SAPI   H5X21532   6.491   5.845   7.209 -1.4191  0.7118 -0.1246
  187SAPI   H5Y21533   6.568   5.679   7.197 -0.1685  1.6728 -0.2739
  187SAPI   C3621534   6.402   5.707   7.340  0.0792  0.5544 -0.7978
  187SAPI   H6X21535   6.383   5.598   7.353  0.4245  0.5363 -0.4279
  187SAPI   H6Y21536   6.305   5.760   7.348  0.1243  0.4044  1.2914
  187SAPI   C3721537   6.494   5.743   7.463 -0.4531 -0.3111  0.4004
  187SAPI   H7X21538   6.492   5.854   7.469 -0.5315 -0.2416 -0.6892
  187SAPI   H7Y21539   6.599   5.713   7.439  0.1864  1.1277  1.2776
  187SAPI   C3821540   6.454   5.661   7.586  0.0036  0.2325  0.5899
  187SAPI   H8X21541   6.494   5.561   7.559  2.0017  0.5803  2.0227
  187SAPI   H8Y21542   6.344   5.652   7.591  0.0963 -2.1333 -0.5484
  187SAPI   C3921543   6.515   5.723   7.718 -0.0149  0.4538  0.1412
  187SAPI   H9X21544   6.475   5.825   7.732 -0.4950  0.3527 -0.4591
  187SAPI   H9Y21545   6.625   5.721   7.702 -0.0394  0.2467 -0.0131
  187SAPI  C31021546   6.477   5.637   7.847 -0.4224 -0.1439 -0.4119
  187SAPI  H10X21547   6.519   5.534   7.839  0.6562  0.2336  0.1473
  187SAPI  H10Y21548   6.367   5.633   7.858 -0.3910  1.0501  0.5100
  187SAPI  C31121549   6.538   5.678   7.978  0.3552 -0.9333  0.2881
  187SAPI  H11X21550   6.496   5.773   8.017 -0.5857  1.2445 -5.2010
  187SAPI  H11Y21551   6.642   5.700   7.946 -0.4732  0.7050 -1.4312
  187SAPI  C31221552   6.545   5.565   8.079 -0.5385 -0.5634 -0.2696
  187SAPI  H12X21553   6.631   5.579   8.148  0.9680 -0.6143 -2.0588
  187SAPI  H12Y21554   6.549   5.464   8.033 -1.5473 -0.4830 -0.5541
  187SAPI  C31321555   6.418   5.569   8.169 -0.4364 -0.4967  0.0951
  187SAPI  H13X21556   6.326   5.568   8.107  0.7800  0.9851 -1.8683
  187SAPI  H13Y21557   6.413   5.667   8.223  0.7409 -0.2878 -0.1565
  187SAPI  C31421558   6.403   5.460   8.271 -0.1304 -0.0223  0.3445
  187SAPI  H14X21559   6.386   5.361   8.222 -1.1585  1.4565 -2.5477
  187SAPI  H14Y21560   6.312   5.496   8.324 -0.9868  0.0510 -1.0999
  187SAPI  C31521561   6.523   5.463   8.363 -0.2531  0.8043  0.0468
  187SAPI  H15X21562   6.540   5.568   8.395  0.6933  0.6809 -0.0017
  187SAPI  H15Y21563   6.616   5.424   8.315  0.2232  0.9131  0.8631
  187SAPI  C31621564   6.505   5.379   8.489  0.0610  0.1542 -0.2124
  187SAPI  H16X21565   6.490   5.274   8.456  0.4233 -0.3965  1.2771
  187SAPI  H16Y21566   6.411   5.416   8.537 -0.1185  0.6276 -0.9110
  187SAPI  C31721567   6.616   5.393   8.592 -0.4977 -0.4474  0.2386
  187SAPI  H17X21568   6.624   5.500   8.621 -0.2038 -0.0733 -1.1752
  187SAPI  H17Y21569   6.714   5.367   8.547 -0.3960  0.3478 -0.0018
  187SAPI  C31821570   6.587   5.307   8.719 -0.3272 -0.3931  0.5315
  187SAPI  H18X21571   6.660   5.333   8.799  2.0089  1.7251 -2.0890
  187SAPI  H18Y21572   6.588   5.197   8.701 -0.3774 -0.2331 -0.5265
  187SAPI  H18Z21573   6.486   5.332   8.757  0.2050 -1.3911  2.7713
  188SAPI   C1221574   1.502   1.434   6.268  0.1126  0.0341 -0.8861
  188SAPI    H221575   1.497   1.323   6.260 -2.1858 -0.1852  2.0273
  188SAPI    O221576   1.620   1.486   6.211 -0.0517 -0.3893  0.0298
  188SAPI   HO221577   1.697   1.455   6.260 -0.1775 -3.3624 -1.4288
  188SAPI   C1321578   1.378   1.496   6.196  0.3187  0.5913 -0.7195
  188SAPI    H321579   1.287   1.455   6.244  0.2370  1.4797 -0.0827
  188SAPI    O321580   1.373   1.465   6.060 -0.5778 -0.3607 -0.0181
  188SAPI   HO321581   1.460   1.442   6.027  0.2184  0.5521  1.3246
  188SAPI   C1421582   1.382   1.644   6.222  0.1772 -0.3687 -0.3485
  188SAPI    H421583   1.476   1.687   6.180  1.8177  0.7906  3.9487
  188SAPI    O421584   1.270   1.709   6.163 -0.0521  0.0912  0.3642
  188SAPI   HO421585   1.252   1.687   6.072 -0.1960 -0.2413  0.4717
  188SAPI   C1521586   1.385   1.677   6.377  0.1294 -0.3647 -0.0213
  188SAPI    H521587   1.298   1.638   6.434  0.4041  0.5769  1.0795
  188SAPI    O521588   1.379   1.815   6.408  0.3892 -0.7046 -0.4921
  188SAPI   HO521589   1.347   1.806   6.498  0.8459 -1.0274 -0.3568
  188SAPI   C1621590   1.501   1.616   6.444 -0.3860 -1.2184  0.1577
  188SAPI    H621591   1.593   1.660   6.401 -1.1156 -0.5225 -0.7275
  188SAPI    O621592   1.510   1.647   6.582 -0.3232  0.1747  0.1752
  188SAPI   HO621593   1.577   1.587   6.618 -1.5120 -0.4631  1.4184
  188SAPI   C1121594   1.496   1.471   6.415  0.7651  0.3054  0.7755
  188SAPI    H121595   1.402   1.427   6.452  0.9198 -2.7752 -2.0126
  188SAPI     P21596   1.587   1.271   6.561  0.5028  0.0016 -0.2215
  188SAPI   O1321597   1.720   1.204   6.590 -0.5908 -0.1619  0.0051
  188SAPI   O1421598   1.481   1.186   6.501  0.0127 -0.6334  0.1200
  188SAPI   O1221599   1.603   1.406   6.474 -0.2566  0.3026 -0.3883
  188SAPI   O1121600   1.530   1.317   6.705 -0.1362 -0.0622 -0.3330
  188SAPI    C121601   1.389   1.325   6.738 -0.3345 -0.5685  0.4307
  188SAPI    HA21602   1.351   1.429   6.737  0.6767 -0.1763  0.7774
  188SAPI    HB21603   1.331   1.276   6.657  3.3825 -2.7715 -1.1595
  188SAPI    C221604   1.360   1.251   6.872 -0.1914 -0.2928 -0.0366
  188SAPI    HS21605   1.252   1.258   6.895 -0.1304 -1.6368  0.7607
  188SAPI   O2121606   1.445   1.300   6.970  0.3024 -0.4454 -0.4692
  188SAPI   C2121607   1.407   1.419   7.016 -0.4106  0.1711 -0.3990
  188SAPI   O2221608   1.323   1.496   6.977 -0.9608  0.1562 -0.6076
  188SAPI   C2221609   1.512   1.446   7.124  0.6255  0.6185 -0.4681
  188SAPI   H2R21610   1.547   1.346   7.157 -0.9324 -0.3518 -1.6010
  188SAPI   H2S21611   1.592   1.502   7.070  2.2221  0.5543  1.7185
  188SAPI    C321612   1.388   1.096   6.850  0.0554  0.7436 -0.3747
  188SAPI    HX21613   1.493   1.088   6.817  1.1609  5.3425  1.2167
  188SAPI    HY21614   1.322   1.069   6.765  1.3783 -1.2637 -0.8129
  188SAPI   O3121615   1.362   1.010   6.967 -0.0685 -0.0610 -0.6719
  188SAPI   C3121616   1.237   0.999   6.998 -0.3432 -0.1483  0.2602
  188SAPI   O3221617   1.144   1.045   6.929  0.0785 -0.7102 -0.1988
  188SAPI   C3221618   1.220   0.913   7.118 -0.6784  0.2433 -0.4065
  188SAPI   H2X21619   1.280   0.820   7.111 -1.2351 -0.0381 -1.7514
  188SAPI   H2Y21620   1.113   0.885   7.120 -0.5429 -0.3788 -1.2009
  188SAPI   C2321621   1.467   1.528   7.243 -0.5990 -0.0641 -0.0258
  188SAPI   H3R21622   1.421   1.627   7.221  2.0070  0.9643 -1.3055
  188SAPI   H3S21623   1.555   1.551   7.306  0.0899  2.9408 -1.8814
  188SAPI   C2421624   1.368   1.446   7.328 -0.1245 -0.1840  0.1284
  188SAPI   H4R21625   1.288   1.404   7.263 -1.3615  2.1100  0.0882
  188SAPI   H4S21626   1.313   1.506   7.403  0.4899  1.3711 -0.6226
  188SAPI   C2521627   1.434   1.338   7.408 -0.7001  0.2499 -0.8644
  188SAPI   H5R21628   1.465   1.249   7.350 -0.7471 -1.0037  0.9587
  188SAPI   C2621629   1.459   1.340   7.543  0.4983 -0.1691 -0.1121
  188SAPI   H6R21630   1.505   1.252   7.590  2.3380  0.9339  0.2502
  188SAPI   C2721631   1.427   1.446   7.646 -0.8901 -0.3408  0.2147
  188SAPI   H7R21632   1.391   1.540   7.598 -1.1013  0.2642  1.5195
  188SAPI   H7S21633   1.519   1.488   7.691 -2.0791  0.5844  1.9067
  188SAPI   C2821634   1.340   1.402   7.753 -0.1751  0.2989 -0.0290
  188SAPI   H8R21635   1.233   1.391   7.728 -0.1734  1.5228 -0.6322
  188SAPI   C2921636   1.388   1.374   7.879  0.0967  0.2391  0.3057
  188SAPI   H9R21637   1.322   1.337   7.958 -1.5951  1.3501 -0.5446
  188SAPI  C21021638   1.535   1.385   7.918  0.1316  0.1321 -0.0588
  188SAPI  H10R21639   1.611   1.366   7.839 -0.0276 -0.7977 -0.0099
  188SAPI  H10S21640   1.552   1.299   7.986  0.2177  0.2974  0.1287
  188SAPI  C21121641   1.573   1.516   7.980  0.0120  0.0773  0.2355
  188SAPI  H11R21642   1.503   1.601   7.971  0.9530  0.8014 -0.5839
  188SAPI  C21221643   1.689   1.532   8.040  0.2040 -0.5812  0.4840
  188SAPI  H12R21644   1.711   1.630   8.086 -0.3578 -0.8012  1.2288
  188SAPI  C21321645   1.800   1.430   8.059 -0.3586  0.2179 -0.4865
  188SAPI  H13R21646   1.876   1.430   7.978 -0.0391  0.4508 -0.1911
  188SAPI  H13S21647   1.753   1.331   8.049  0.1315 -0.5094  2.9450
  188SAPI  C21421648   1.869   1.432   8.195 -0.0761 -0.3892 -0.9766
  188SAPI  H14R21649   1.806   1.401   8.279  0.3338  1.5280  0.1020
  188SAPI  C21521650   1.990   1.491   8.223  0.5016 -0.3372 -0.3338
  188SAPI  H15R21651   2.043   1.468   8.317  0.1470 -2.1229 -0.5365
  188SAPI  C21621652   2.081   1.552   8.118  0.0397 -0.3818 -0.4472
  188SAPI  H16R21653   2.034   1.539   8.018 -2.6277  1.1063  0.5213
  188SAPI  H16S21654   2.173   1.489   8.115 -1.2626 -2.3902 -0.5089
  188SAPI  C21721655   2.111   1.698   8.141  0.8676  0.3700  0.8839
  188SAPI  H17R21656   2.017   1.750   8.169  0.8230  1.2393 -0.7909
  188SAPI  H17S21657   2.147   1.742   8.046 -3.2952 -1.3082 -1.7488
  188SAPI  C21821658   2.203   1.716   8.257  0.1607  0.4094 -0.3344
  188SAPI  H18R21659   2.286   1.643   8.254  0.8880  1.2529 -2.0325
  188SAPI  H18S21660   2.143   1.695   8.348 -0.4904 -1.1559 -1.0916
  188SAPI  C21921661   2.269   1.855   8.249 -0.9998  1.1551  0.5773
  188SAPI  H19R21662   2.191   1.934   8.250 -0.5845  1.5758  0.1077
  188SAPI  H19S21663   2.337   1.877   8.164 -1.2573 -1.1717 -0.3130
  188SAPI  C22021664   2.348   1.884   8.370  0.5226 -0.4594 -0.1529
  188SAPI  H20R21665   2.281   1.881   8.459  1.4519 -0.4057  0.5632
  188SAPI  H20S21666   2.372   1.992   8.367 -1.8845  0.1485  0.2739
  188SAPI  H20T21667   2.442   1.824   8.370  0.0946 -1.3085 -3.2188
  188SAPI   C3321668   1.263   0.972   7.253  0.3229 -0.2443 -0.4857
  188SAPI   H3X21669   1.188   1.051   7.277 -0.0688 -1.1016  1.3185
  188SAPI   H3Y21670   1.362   1.021   7.243  0.5780 -0.8551 -0.9598
  188SAPI   C3421671   1.269   0.860   7.357  0.3577 -0.5274  0.7198
  188SAPI   H4X21672   1.362   0.807   7.328  0.7970  1.0634 -0.9345
  188SAPI   H4Y21673   1.175   0.801   7.348 -1.3896  2.0572  0.8588
  188SAPI   C3521674   1.305   0.910   7.501 -0.3632  0.2115  0.4448
  188SAPI   H5X21675   1.395   0.975   7.488 -1.3982  1.5302 -0.3803
  188SAPI   H5Y21676   1.340   0.825   7.563  1.5022 -0.3647 -1.2736
  188SAPI   C3621677   1.194   0.990   7.570  1.5455  0.1106 -0.3018
  188SAPI   H6X21678   1.104   0.925   7.582  0.8482  1.0978 -0.0935
  188SAPI   H6Y21679   1.158   1.067   7.499 -1.3107  0.0511  0.9494
  188SAPI   C3721680   1.233   1.049   7.709  0.5325 -0.1929 -1.3121
  188SAPI   H7X21681   1.160   1.124   7.747  0.8367 -0.8727  0.7590
  188SAPI   H7Y21682   1.326   1.107   7.690  2.3395 -3.1141 -2.1224
  188SAPI   C3821683   1.262   0.936   7.810  0.1280 -0.1457 -0.6632
  188SAPI   H8X21684   1.344   0.873   7.769  1.2313  1.0042 -0.2960
  188SAPI   H8Y21685   1.170   0.880   7.838  0.6978 -1.0322 -0.5162
  188SAPI   C3921686   1.321   0.977   7.948  0.0856  0.3355  0.1262
  188SAPI   H9X21687   1.251   1.055   7.984 -0.4372  0.4400 -1.0979
  188SAPI   H9Y21688   1.421   1.021   7.928  0.4706 -0.7305 -0.3392
  188SAPI  C31021689   1.346   0.863   8.055  0.2655 -0.4119 -0.6282
  188SAPI  H10X21690   1.425   0.786   8.043 -1.1892 -2.1200  0.1868
  188SAPI  H10Y21691   1.246   0.813   8.061 -0.0034  0.0062 -1.5424
  188SAPI  C31121692   1.358   0.925   8.200 -0.1034 -0.7352 -0.2970
  188SAPI  H11X21693   1.348   0.844   8.275  0.8715  0.8042  1.5936
  188SAPI  H11Y21694   1.271   0.993   8.208  0.1611 -0.1505 -2.0374
  188SAPI  C31221695   1.488   0.984   8.237 -0.0751  0.5581 -0.0960
  188SAPI  H12X21696   1.516   1.047   8.151 -0.9016 -1.0221 -1.5908
  188SAPI  H12Y21697   1.569   0.910   8.249  1.6619  2.5659  1.2711
  188SAPI  C31321698   1.471   1.062   8.377 -0.4346  0.3248  0.4885
  188SAPI  H13X21699   1.570   1.056   8.427 -0.5366 -1.5125  0.5226
  188SAPI  H13Y21700   1.396   1.011   8.441 -1.1237 -2.5309 -2.3120
  188SAPI  C31421701   1.431   1.203   8.341 -0.5889 -0.0743 -0.0975
  188SAPI  H14X21702   1.348   1.215   8.268 -0.4310  0.0962 -0.2501
  188SAPI  H14Y21703   1.520   1.249   8.293  0.1408 -1.8454 -0.4969
  188SAPI  C31521704   1.408   1.292   8.467  0.4917  0.1979  0.4786
  188SAPI  H15X21705   1.320   1.255   8.523  0.7612 -0.5961  0.3836
  188SAPI  H15Y21706   1.393   1.396   8.431  1.0306 -0.2058 -0.9882
  188SAPI  C31621707   1.527   1.295   8.572 -0.5311  0.0637  0.5160
  188SAPI  H16X21708   1.536   1.198   8.625  1.2834  1.1061  2.2419
  188SAPI  H16Y21709   1.501   1.372   8.648 -1.4196 -0.7276  1.0323
  188SAPI  C31721710   1.648   1.350   8.497 -0.2373  0.2471 -0.7117
  188SAPI  H17X21711   1.633   1.452   8.455 -0.4364  0.1361 -0.9183
  188SAPI  H17Y21712   1.671   1.282   8.412 -0.6590  1.0208 -1.4626
  188SAPI  C31821713   1.760   1.353   8.604 -0.5990 -0.2682  0.2185
  188SAPI  H18X21714   1.863   1.375   8.568 -0.1443 -1.4790  0.7199
  188SAPI  H18Y21715   1.773   1.257   8.658  1.1912 -0.6257 -0.7482
  188SAPI  H18Z21716   1.727   1.428   8.678 -2.2462  0.1528 -0.8776
  189POPC     N21717   0.004   2.721  10.738 -0.3283  0.5372  0.2611
  189POPC   C1221718   0.021   2.653  10.869 -0.6181 -0.4462  0.5139
  189POPC  H12A21719   0.117   2.673  10.915 -1.2376 -2.2416  2.7623
  189POPC  H12B21720   0.014   2.547  10.850  0.6692 -0.2055 -1.5570
  189POPC   C1321721   0.092   2.652  10.627  0.0255 -0.0062 -0.5589
  189POPC  H13A21722   0.106   2.728  10.551 -1.2398 -0.1283 -0.9353
  189POPC  H13B21723   0.186   2.641  10.679  0.4713  1.3855 -1.0187
  189POPC  H13C21724   0.063   2.552  10.599  2.1759 -0.7989 -0.1124
  189POPC   C1421725  -0.133   2.719  10.679  0.4669  0.0506 -0.6673
  189POPC  H14A21726  -0.137   2.785  10.593 -0.2611 -0.0761 -0.7350
  189POPC  H14B21727  -0.163   2.617  10.665  1.9192 -0.4408 -0.3217
  189POPC  H14C21728  -0.202   2.763  10.750  1.4040  0.0024  0.3021
  189POPC   C1521729   0.038   2.864  10.761 -0.7468 -0.5605 -0.4029
  189POPC  H15A21730   0.007   2.892  10.860  0.2230 -0.4968 -0.1045
  189POPC  H15B21731  -0.012   2.932  10.693  0.5354  0.6132 -0.2217
  189POPC  H15C21732   0.145   2.876  10.752 -0.9308  0.2237 -1.7710
  189POPC   C1121733  -0.073   2.683  10.985 -0.4318 -0.3589  0.5059
  189POPC  H11A21734  -0.055   2.615  11.071 -0.2494  0.0640  0.8046
  189POPC  H11B21735  -0.179   2.660  10.959  0.2571 -4.4305  0.5229
  189POPC     P21736   0.059   2.885  11.118 -0.1263  0.3313  0.3687
  189POPC   O1321737   0.027   2.851  11.261 -0.3973 -0.8418  0.5966
  189POPC   O1421738   0.089   3.026  11.085 -0.1483 -0.5852  0.0090
  189POPC   O1221739  -0.054   2.824  11.021 -0.0839 -0.8731  0.0640
  189POPC   O1121740   0.184   2.805  11.074  0.6153  0.3595  0.2324
  189POPC    C121741   0.315   2.855  11.101  0.2802  0.0306  0.1661
  189POPC    HA21742   0.360   2.783  11.172  3.5348 -0.0460 -1.7526
  189POPC    HB21743   0.314   2.962  11.132 -2.2296  1.4655 -3.9733
  189POPC    C221744   0.400   2.852  10.975  0.1541  0.7002 -0.4901
  189POPC    HS21745   0.338   2.900  10.896 -0.3131 -1.0790 -1.2503
  189POPC   O2121746   0.431   2.714  10.944  0.2117  0.1524 -0.0466
  189POPC   C2121747   0.422   2.674  10.825  0.2495 -0.0048  0.6367
  189POPC   O2221748   0.377   2.742  10.730  0.3635  0.1436  0.0883
  189POPC   C2221749   0.476   2.534  10.808 -0.1716 -0.5739 -0.2883
  189POPC   H2R21750   0.392   2.462  10.796 -0.0574 -0.4829 -1.9412
  189POPC   H2S21751   0.540   2.504  10.893  0.0882  1.0487  0.1122
  189POPC    C321752   0.536   2.923  10.993 -0.4666  0.1422 -0.5516
  189POPC    HX21753   0.601   2.861  11.058 -0.0927 -0.7206 -1.7173
  189POPC    HY21754   0.526   3.025  11.035 -1.6609  0.4792 -1.5615
  189POPC   O3121755   0.609   2.942  10.866  0.0324 -0.2077  0.2232
  189POPC   C3121756   0.740   2.954  10.880  0.2053 -0.6462 -0.0297
  189POPC   O3221757   0.804   2.966  10.985  0.4956  0.2024 -0.3616
  189POPC   C3221758   0.802   2.957  10.740  0.3795 -0.1638  0.2101
  189POPC   H2X21759   0.732   2.935  10.656 -0.2537  0.4668  0.5695
  189POPC   H2Y21760   0.880   2.878  10.746  0.7660  0.0509 -1.4142
  189POPC   C2321761   0.571   2.532  10.680 -0.1854  0.2749 -0.3397
  189POPC   H3R21762   0.639   2.445  10.694  0.6881  1.2527  2.0943
  189POPC   H3S21763   0.646   2.613  10.687  1.1894 -1.0256  0.7959
  189POPC   C2421764   0.502   2.511  10.545  0.4612 -0.2015 -0.2323
  189POPC   H4R21765   0.427   2.593  10.540 -1.6078 -1.9734 -0.0917
  189POPC   H4S21766   0.438   2.420  10.552  0.2951 -0.2980 -2.2197
  189POPC   C2521767   0.609   2.512  10.440 -1.1325 -0.3322  0.1023
  189POPC   H5R21768   0.670   2.420  10.447  0.0779  0.3061 -1.3585
  189POPC   H5S21769   0.673   2.597  10.469  0.3785 -1.9924  1.8560
  189POPC   C2621770   0.559   2.529  10.295  0.2764 -0.1611  0.1535
  189POPC   H6R21771   0.500   2.623  10.296  0.4446 -0.0438  1.5136
  189POPC   H6S21772   0.490   2.446  10.270  2.7252 -2.4239  0.4369
  189POPC   C2721773   0.694   2.537  10.205 -0.6162 -0.5050  0.3174
  189POPC   H7R21774   0.747   2.441  10.223  1.6680  0.6409  0.0970
  189POPC   H7S21775   0.772   2.610  10.235 -0.2170 -0.9555  0.3892
  189POPC   C2821776   0.654   2.563  10.060 -0.7864  0.0177  0.6384
  189POPC   H8R21777   0.622   2.667  10.036  0.6998 -0.0569 -1.9710
  189POPC   H8S21778   0.571   2.493  10.037  0.2143 -1.7397  2.1649
  189POPC   C2921779   0.768   2.520   9.963  0.0293 -0.2750  0.3148
  189POPC   H9121780   0.828   2.440  10.009 -1.8550 -1.9193  0.0342
  189POPC  C21021781   0.790   2.558   9.835 -0.8074 -0.6525  0.1511
  189POPC  H10121782   0.876   2.518   9.778  0.1514  0.3911  0.8191
  189POPC  C21121783   0.709   2.657   9.765 -0.3347  0.2355 -0.0677
  189POPC  H11R21784   0.763   2.755   9.765 -0.1849  0.1708 -1.7790
  189POPC  H11S21785   0.611   2.677   9.814 -0.3587 -1.5679  0.6684
  189POPC  C21221786   0.682   2.605   9.622 -0.9094  0.2155  0.5990
  189POPC  H12R21787   0.590   2.657   9.587 -1.0993 -0.5956 -0.1430
  189POPC  H12S21788   0.664   2.495   9.620  0.8832 -0.1032 -0.6564
  189POPC  C21321789   0.797   2.631   9.533 -0.2839 -0.4890  0.0722
  189POPC  H13R21790   0.881   2.572   9.575 -0.1267  0.7496  1.6415
  189POPC  H13S21791   0.818   2.740   9.542 -2.9293 -0.0851  3.1572
  189POPC  C21421792   0.775   2.593   9.379 -0.7175  0.6933 -0.0180
  189POPC  H14R21793   0.746   2.486   9.389 -1.2546  0.8773  0.4270
  189POPC  H14S21794   0.877   2.593   9.335 -0.2300  0.4931  1.0906
  189POPC  C21521795   0.685   2.682   9.298 -0.0535  0.4767 -0.5235
  189POPC  H15R21796   0.704   2.789   9.319  1.0421  0.2785 -0.4279
  189POPC  H15S21797   0.582   2.656   9.332  0.7973 -0.0585  1.8274
  189POPC  C21621798   0.694   2.656   9.147 -0.4537 -0.1368 -0.5000
  189POPC  H16R21799   0.798   2.653   9.107 -0.6446 -0.5298 -0.9782
  189POPC  H16S21800   0.629   2.729   9.096  1.3217  2.8563  1.2079
  189POPC  C21721801   0.628   2.520   9.109  0.0669 -0.2382 -0.3695
  189POPC  H17R21802   0.529   2.536   9.157  0.7775  1.5179  0.6271
  189POPC  H17S21803   0.684   2.429   9.139  1.4614 -0.2960 -2.8145
  189POPC  C21821804   0.610   2.502   8.961  0.6597 -0.3991  0.0977
  189POPC  H18R21805   0.506   2.463   8.947  0.4186 -0.3146  1.4557
  189POPC  H18S21806   0.681   2.428   8.919 -0.4346 -0.7969 -1.1317
  189POPC  H18T21807   0.606   2.600   8.911 -0.0204 -0.3263  0.2732
  189POPC   C3321808   0.857   3.091  10.712  0.0320 -0.2191 -0.7736
  189POPC   H3X21809   0.924   3.129  10.793 -0.6659  0.5312 -0.5253
  189POPC   H3Y21810   0.777   3.164  10.687 -0.2358 -0.1520  0.2532
  189POPC   C3421811   0.968   3.110  10.603 -0.1519  0.3405  0.3376
  189POPC   H4X21812   0.957   3.217  10.575  2.8049  0.8560  0.7952
  189POPC   H4Y21813   0.933   3.049  10.517  0.6962 -0.8699  0.8238
  189POPC   C3521814   1.108   3.058  10.640  0.8440 -0.0785 -0.9444
  189POPC   H5X21815   1.095   2.953  10.674 -0.7521 -0.3737 -2.3206
  189POPC   H5Y21816   1.139   3.116  10.730  0.6669  1.3019 -1.7536
  189POPC   C3621817   1.201   3.066  10.525  0.5375 -0.1872  0.3558
  189POPC   H6X21818   1.158   3.018  10.434 -1.1276  0.3041  0.8417
  189POPC   H6Y21819   1.298   3.018  10.549  1.1089  1.9451  2.6833
  189POPC   C3721820   1.238   3.213  10.506 -0.0013  0.0494  0.6219
  189POPC   H7X21821   1.278   3.260  10.597 -3.2765  4.5933  0.0495
  189POPC   H7Y21822   1.143   3.265  10.482 -0.4087 -0.4490  1.1262
  189POPC   C3821823   1.337   3.236  10.395  0.3186  0.1553  1.0320
  189POPC   H8X21824   1.433   3.185  10.417  2.4835  3.3175 -0.3787
  189POPC   H8Y21825   1.354   3.346  10.392  0.0405  0.2384  2.0484
  189POPC   C3921826   1.288   3.194  10.256 -0.9413 -0.2532  0.9395
  189POPC   H9X21827   1.185   3.234  10.248 -1.6897 -2.3084 -0.8503
  189POPC   H9Y21828   1.280   3.083  10.261  2.5370 -0.5911  1.4072
  189POPC  C31021829   1.381   3.235  10.141 -0.6576 -0.6948 -0.2448
  189POPC  H10X21830   1.476   3.274  10.185 -0.7825 -0.8291  0.1457
  189POPC  H10Y21831   1.329   3.321  10.093  0.5842  0.4107  0.3118
  189POPC  C31121832   1.402   3.119  10.037 -0.3326  0.0611 -0.3895
  189POPC  H11X21833   1.302   3.094   9.996  1.5496 -4.1754 -3.1612
  189POPC  H11Y21834   1.447   3.028  10.083 -1.0423 -1.0984 -1.8914
  189POPC  C31221835   1.484   3.170   9.917  0.5012 -0.4047 -0.4350
  189POPC  H12X21836   1.583   3.208   9.951  0.4097  0.8421 -1.4631
  189POPC  H12Y21837   1.420   3.249   9.873  0.7251 -0.9536 -1.8174
  189POPC  C31321838   1.506   3.068   9.809  0.0954 -0.0457 -0.0814
  189POPC  H13X21839   1.505   2.969   9.859 -0.7219  0.0168  0.0310
  189POPC  H13Y21840   1.612   3.073   9.775  0.5322 -2.3051  0.7034
  189POPC  C31421841   1.393   3.061   9.703 -0.4407 -0.2680 -0.0772
  189POPC  H14X21842   1.300   3.113   9.735  1.0491  2.3858  0.2972
  189POPC  H14Y21843   1.371   2.956   9.677 -2.6238  0.4338 -1.3831
  189POPC  C31521844   1.428   3.115   9.569 -0.1471  0.7363  0.1840
  189POPC  H15X21845   1.473   3.217   9.572  0.4581  0.4856 -0.2077
  189POPC  H15Y21846   1.330   3.132   9.519 -0.1062  1.2689  0.2765
  189POPC  C31621847   1.505   3.023   9.477 -0.1854 -0.3882  0.3777
  189POPC  H16X21848   1.603   2.994   9.520 -0.5152 -1.0355  0.7025
  189POPC  H16Y21849   1.513   3.074   9.379 -1.0578 -1.9903 -0.5787
  189POPC  H16Z21850   1.451   2.926   9.469  0.3223 -0.7869  1.5412
  190POPC     N21851   1.901   5.606  10.934 -0.6516 -0.4753 -0.0075
  190POPC   C1221852   2.030   5.614  10.846  0.5774 -1.1274  0.1807
  190POPC  H12A21853   2.020   5.696  10.777  2.0736  1.6227  2.9925
  190POPC  H12B21854   2.041   5.523  10.788  2.0774 -0.5130 -0.5595
  190POPC   C1321855   1.886   5.732  11.007 -0.8106  0.1114  0.0865
  190POPC  H13A21856   1.815   5.719  11.087  1.4479 -4.7620  1.6667
  190POPC  H13B21857   1.976   5.748  11.064 -0.2992 -2.4924  0.1103
  190POPC  H13C21858   1.877   5.815  10.938  1.0049  1.2579  1.1465
  190POPC   C1421859   1.777   5.589  10.846  0.1157  0.2423  0.2668
  190POPC  H14A21860   1.798   5.503  10.782  2.2263  0.3318  0.7608
  190POPC  H14B21861   1.693   5.567  10.910 -1.0943  0.1895 -1.2641
  190POPC  H14C21862   1.760   5.677  10.786 -2.1206 -0.0390  0.4123
  190POPC   C1521863   1.899   5.487  11.031 -0.0882 -0.3238 -0.2797
  190POPC  H15A21864   1.992   5.489  11.086 -0.2668  0.6980 -0.0008
  190POPC  H15B21865   1.890   5.398  10.971  0.0082 -1.3390  1.1755
  190POPC  H15C21866   1.812   5.495  11.094  0.4622  0.8563  0.3634
  190POPC   C1121867   2.163   5.627  10.913 -0.4332 -0.0729 -0.2256
  190POPC  H11A21868   2.166   5.712  10.984 -0.4119 -0.7670  0.6240
  190POPC  H11B21869   2.242   5.639  10.836 -0.5417  1.0470 -0.1790
  190POPC     P21870   2.224   5.375  10.930 -0.1173  0.0757  0.1773
  190POPC   O1321871   2.116   5.317  10.851 -0.7096  0.2999  0.2651
  190POPC   O1421872   2.274   5.289  11.042  0.3495  0.1269  0.4445
  190POPC   O1221873   2.189   5.515  10.991  0.0111  0.1617 -0.0542
  190POPC   O1121874   2.347   5.392  10.836 -0.1075  0.5772 -0.3451
  190POPC    C121875   2.473   5.454  10.886 -0.2031 -0.3185  0.0706
  190POPC    HA21876   2.528   5.377  10.945  0.8941  0.9245  0.7025
  190POPC    HB21877   2.448   5.533  10.960  0.0467  0.5914 -0.7995
  190POPC    C221878   2.557   5.513  10.772  0.5918 -0.4339 -0.0267
  190POPC    HS21879   2.506   5.605  10.737 -0.5210 -0.3811  1.6303
  190POPC   O2121880   2.605   5.419  10.669 -0.4456  0.1565 -0.2886
  190POPC   C2121881   2.529   5.415  10.563 -0.3347  0.7458 -0.0852
  190POPC   O2221882   2.426   5.475  10.536  0.1394 -0.1034 -0.6347
  190POPC   C2221883   2.581   5.311  10.466 -0.6247 -0.1343 -0.1146
  190POPC   H2R21884   2.518   5.221  10.477 -0.2151 -0.5283 -0.8930
  190POPC   H2S21885   2.685   5.286  10.496 -0.3577 -0.0338 -0.9378
  190POPC    C321886   2.693   5.579  10.826  0.5568 -0.4716 -0.0499
  190POPC    HX21887   2.734   5.496  10.886 -1.7798 -1.3464  0.4664
  190POPC    HY21888   2.670   5.662  10.897  0.5265 -0.1598 -0.4197
  190POPC   O3121889   2.774   5.633  10.720 -0.2390  0.2648  1.1741
  190POPC   C3121890   2.891   5.582  10.692 -0.8785 -0.3118  0.3846
  190POPC   O3221891   2.949   5.493  10.756 -0.6559 -0.2716  0.1829
  190POPC   C3221892   2.946   5.662  10.575  0.6952 -0.3328 -0.6270
  190POPC   H2X21893   2.981   5.763  10.604 -1.3016  0.4359 -0.8088
  190POPC   H2Y21894   2.860   5.679  10.508  0.7513  1.7511 -0.2324
  190POPC   C2321895   2.609   5.364  10.324  0.4181  0.5860 -0.3623
  190POPC   H3R21896   2.681   5.447  10.311  0.7302  0.3600 -0.0989
  190POPC   H3S21897   2.516   5.399  10.274  0.1972  0.5090 -0.0085
  190POPC   C2421898   2.658   5.251  10.238 -0.0480  0.4437  0.1956
  190POPC   H4R21899   2.576   5.177  10.226  1.0991 -1.2897  2.3405
  190POPC   H4S21900   2.743   5.206  10.295 -0.7360 -1.4706 -0.2094
  190POPC   C2521901   2.696   5.293  10.099  0.1703 -0.0903 -0.4494
  190POPC   H5R21902   2.760   5.384  10.106 -0.4662  0.3007  0.4993
  190POPC   H5S21903   2.612   5.321  10.032 -0.2673  0.0045  0.1277
  190POPC   C2621904   2.776   5.190  10.017  0.4693  0.4060  0.4083
  190POPC   H6R21905   2.715   5.098   9.999  2.4527 -0.8797 -0.0345
  190POPC   H6S21906   2.859   5.150  10.079 -1.3158 -1.4139  1.7597
  190POPC   C2721907   2.838   5.242   9.887  0.1958 -0.3797 -0.0387
  190POPC   H7R21908   2.919   5.168   9.872  0.6840 -0.6500  3.1863
  190POPC   H7S21909   2.889   5.337   9.913  0.4022 -0.9027  1.5987
  190POPC   C2821910   2.743   5.247   9.766 -0.5142 -0.5137  0.7014
  190POPC   H8R21911   2.639   5.283   9.780  0.0428  1.4822  0.0731
  190POPC   H8S21912   2.733   5.141   9.732 -1.6451  0.0193 -0.7260
  190POPC   C2921913   2.813   5.339   9.671  0.1358  0.8483  0.1076
  190POPC   H9121914   2.808   5.445   9.698 -1.8794  0.4825  1.3930
  190POPC  C21021915   2.879   5.296   9.562 -0.3987 -0.3004 -0.0322
  190POPC  H10121916   2.947   5.368   9.514 -0.9681  0.4588  0.2914
  190POPC  C21121917   2.896   5.150   9.508  0.2524  0.6609 -0.0550
  190POPC  H11R21918   2.875   5.072   9.584  1.3919  1.6064  1.2779
  190POPC  H11S21919   3.000   5.122   9.480 -0.5254 -1.9489 -0.5805
  190POPC  C21221920   2.814   5.115   9.381 -0.1914  0.4787  0.4758
  190POPC  H12R21921   2.707   5.140   9.398 -1.0868 -2.4103 -0.3647
  190POPC  H12S21922   2.793   5.007   9.363  0.7452  0.5468 -1.2091
  190POPC  C21321923   2.849   5.194   9.250  0.9173 -0.8128  0.5824
  190POPC  H13R21924   2.957   5.200   9.227 -0.0519  0.5163 -4.9969
  190POPC  H13S21925   2.820   5.301   9.260  0.6285 -0.7495 -0.7240
  190POPC  C21421926   2.765   5.146   9.127 -0.2691 -0.0815 -0.2156
  190POPC  H14R21927   2.659   5.179   9.135  0.2328  1.9996 -1.3945
  190POPC  H14S21928   2.755   5.035   9.126 -1.6422  0.0261 -1.7211
  190POPC  C21521929   2.832   5.188   8.998  0.3231  0.4313 -0.2086
  190POPC  H15R21930   2.927   5.132   8.999 -0.5376 -1.0762 -0.3476
  190POPC  H15S21931   2.848   5.298   9.002  3.3194  0.1140 -1.3948
  190POPC  C21621932   2.742   5.148   8.889  0.4524 -0.7813 -0.4112
  190POPC  H16R21933   2.684   5.058   8.917 -0.3726  0.4059  1.9554
  190POPC  H16S21934   2.804   5.122   8.801  0.6446  0.3649 -0.6304
  190POPC  C21721935   2.646   5.261   8.857 -0.3178 -0.2579  0.3182
  190POPC  H17R21936   2.604   5.300   8.952  0.0745 -0.3075  0.5127
  190POPC  H17S21937   2.557   5.230   8.798 -0.7260 -0.4188  1.0047
  190POPC  C21821938   2.709   5.378   8.773  0.3309 -0.0079 -0.4841
  190POPC  H18R21939   2.735   5.344   8.670 -0.2688  0.8753 -0.9442
  190POPC  H18S21940   2.800   5.412   8.827 -0.2640 -1.4842  1.5573
  190POPC  H18T21941   2.634   5.461   8.772 -1.7650 -1.7931  0.4175
  190POPC   C3321942   3.063   5.593  10.510 -0.2447 -0.2105 -0.4226
  190POPC   H3X21943   3.019   5.496  10.480 -1.3496 -0.4243  1.7014
  190POPC   H3Y21944   3.145   5.569  10.581  0.5247  1.8654 -0.5229
  190POPC   C3421945   3.125   5.666  10.397  0.5960  0.1547  0.0820
  190POPC   H4X21946   3.167   5.754  10.449  1.0617 -0.7501  1.2791
  190POPC   H4Y21947   3.053   5.707  10.322  0.6915  2.0748  1.0017
  190POPC   C3521948   3.226   5.574  10.322  0.0083  0.6917 -0.0760
  190POPC   H5X21949   3.296   5.546  10.403 -0.7808 -1.1939  0.0108
  190POPC   H5Y21950   3.283   5.626  10.242  0.3634  0.4159 -0.0041
  190POPC   C3621951   3.173   5.437  10.270 -0.0571  0.2916  0.9131
  190POPC   H6X21952   3.153   5.361  10.348  3.6604 -0.2321  1.5376
  190POPC   H6Y21953   3.254   5.395  10.206 -0.0231  0.4416  0.8551
  190POPC   C3721954   3.050   5.452  10.177 -0.6296  0.1440  0.1909
  190POPC   H7X21955   2.972   5.508  10.232 -0.6962 -0.9984  1.3088
  190POPC   H7Y21956   3.003   5.354  10.155 -0.1423  0.5088 -2.8844
  190POPC   C3821957   3.086   5.532  10.056 -0.0286  0.4780  0.5873
  190POPC   H8X21958   3.116   5.637  10.078 -0.6214  1.1544 -1.5826
  190POPC   H8Y21959   2.991   5.539   9.999  0.1213 -0.1062  0.2564
  190POPC   C3921960   3.186   5.467   9.956  0.2740 -0.0041 -0.5708
  190POPC   H9X21961   3.179   5.357   9.975 -1.3946  0.1505 -0.1520
  190POPC   H9Y21962   3.281   5.507   9.994 -0.3428  0.0171  1.0093
  190POPC  C31021963   3.162   5.499   9.802 -0.1458  0.4776  0.0292
  190POPC  H10X21964   3.150   5.608   9.784  2.4311  0.8616  0.1620
  190POPC  H10Y21965   3.070   5.447   9.770 -1.0947  1.3114  1.3044
  190POPC  C31121966   3.279   5.459   9.704 -0.0943 -0.1369 -0.2756
  190POPC  H11X21967   3.307   5.352   9.709  2.3461  0.4791  0.9540
  190POPC  H11Y21968   3.366   5.520   9.735  0.1891 -1.1175  0.9340
  190POPC  C31221969   3.238   5.492   9.560 -0.4545 -0.4671 -0.7641
  190POPC  H12X21970   3.230   5.601   9.540  1.3698  0.1048  1.1655
  190POPC  H12Y21971   3.133   5.457   9.555 -0.9013  0.8355 -0.8181
  190POPC  C31321972   3.314   5.420   9.447  0.4920 -0.2325  0.6998
  190POPC  H13X21973   3.325   5.315   9.483  1.4409  0.1639  1.6030
  190POPC  H13Y21974   3.413   5.455   9.414 -0.1190  0.2368 -0.6890
  190POPC  C31421975   3.230   5.419   9.312  0.1066 -0.1578 -0.1841
  190POPC  H14X21976   3.127   5.384   9.335  0.5302 -0.4763  1.2763
  190POPC  H14Y21977   3.273   5.349   9.237 -0.1966  0.3167 -0.8178
  190POPC  C31521978   3.231   5.557   9.251 -0.2383 -0.2788  0.9484
  190POPC  H15X21979   3.320   5.616   9.283  0.5946 -2.0175  1.9689
  190POPC  H15Y21980   3.141   5.615   9.280 -1.0652 -1.5615  1.0241
  190POPC  C31621981   3.227   5.560   9.094  0.1119  0.4327 -0.1275
  190POPC  H16X21982   3.305   5.488   9.059  0.4743  0.5175  0.4969
  190POPC  H16Y21983   3.237   5.654   9.036  0.7594  0.0660 -0.6364
  190POPC  H16Z21984   3.131   5.510   9.070 -1.3043  3.0237 -0.1839
  191POPC     N21985   2.555   0.363   6.210  0.4370 -0.2906 -0.3466
  191POPC   C1221986   2.643   0.315   6.322  0.6116 -0.9007  0.3151
  191POPC  H12A21987   2.605   0.375   6.404 -0.2946  0.0357 -0.7462
  191POPC  H12B21988   2.742   0.353   6.303  0.1428  0.7715  0.9249
  191POPC   C1321989   2.566   0.514   6.196 -0.9995 -0.1237  0.0850
  191POPC  H13A21990   2.550   0.568   6.289  1.2833  1.7153 -0.4800
  191POPC  H13B21991   2.658   0.549   6.151 -1.3046 -0.6811 -0.9878
  191POPC  H13C21992   2.496   0.560   6.128  0.6757  0.6324 -1.1964
  191POPC   C1421993   2.583   0.297   6.076  0.1263  0.0984  0.3623
  191POPC  H14A21994   2.683   0.323   6.044 -0.4215  0.2171 -1.3274
  191POPC  H14B21995   2.572   0.189   6.076 -2.5999  0.2835 -1.2397
  191POPC  H14C21996   2.518   0.348   6.007 -0.7578  0.9351  1.7604
  191POPC   C1521997   2.407   0.330   6.233 -0.1331 -0.2016 -0.0427
  191POPC  H15A21998   2.359   0.406   6.292  0.4574  1.7027 -1.8862
  191POPC  H15B21999   2.402   0.232   6.278 -0.0617  0.3625  1.2278
  191POPC  H15C22000   2.360   0.317   6.136  0.8115 -0.3273 -0.4995
  191POPC   C1122001   2.652   0.169   6.359  0.7833 -0.2741 -0.2438
  191POPC  H11A22002   2.738   0.166   6.428  0.4554  0.0572  0.1853
  191POPC  H11B22003   2.676   0.089   6.285 -3.4637 -2.1882  0.1602
  191POPC     P22004   2.485  -0.021   6.432 -0.0445 -0.0252  0.1785
  191POPC   O1322005   2.495  -0.091   6.298  0.9649  0.1854  0.0217
  191POPC   O1422006   2.346  -0.022   6.486  0.3558 -0.0879  0.0154
  191POPC   O1222007   2.529   0.128   6.415  0.1989  0.3274 -0.2036
  191POPC   O1122008   2.580  -0.086   6.539 -0.6470  0.6721 -0.6439
  191POPC    C122009   2.573  -0.058   6.677 -0.2845  0.4329 -0.3490
  191POPC    HA22010   2.547  -0.147   6.738 -2.9798  1.1924 -0.2527
  191POPC    HB22011   2.503   0.024   6.705 -2.6772 -1.3313 -0.8665
  191POPC    C222012   2.708  -0.007   6.732 -0.2842  0.5791 -0.2185
  191POPC    HS22013   2.701  -0.003   6.843  1.4614 -1.8710  0.0523
  191POPC   O2122014   2.734   0.122   6.675  0.5520 -0.1613 -0.0034
  191POPC   C2122015   2.814   0.192   6.745  0.3975  0.4751 -0.3239
  191POPC   O2222016   2.845   0.177   6.862  0.0966 -0.4373 -0.2151
  191POPC   C2222017   2.848   0.311   6.657  0.5227  0.2429 -0.0355
  191POPC   H2R22018   2.755   0.363   6.627  0.9410  1.7124  1.0965
  191POPC   H2S22019   2.888   0.268   6.563  0.6570  1.7499 -0.6965
  191POPC    C322020   2.823  -0.103   6.689 -0.1843  0.0093  0.3018
  191POPC    HX22021   2.809  -0.109   6.579  0.7277  1.3553  0.0816
  191POPC    HY22022   2.807  -0.202   6.737  1.0644  0.0648  0.8949
  191POPC   O3122023   2.956  -0.057   6.717 -0.2319  0.0646  0.0898
  191POPC   C3122024   2.999  -0.084   6.836  0.1211  0.1120  0.3302
  191POPC   O3222025   2.929  -0.132   6.924  0.1594 -0.4189  0.0773
  191POPC   C3222026   3.139  -0.038   6.842 -0.0542  0.2786 -0.2458
  191POPC   H2X22027   3.135   0.066   6.803  0.2256  1.0627  1.7213
  191POPC   H2Y22028   3.203  -0.100   6.775  0.8320  0.4911  0.3743
  191POPC   C2322029   2.949   0.404   6.726 -0.1792 -0.3031  0.3073
  191POPC   H3R22030   2.998   0.477   6.657  1.0535  0.4952  1.9402
  191POPC   H3S22031   3.031   0.341   6.766  0.0872  1.1558  2.2644
  191POPC   C2422032   2.906   0.482   6.857 -0.4429 -0.6109 -0.2595
  191POPC   H4R22033   2.866   0.417   6.937  1.5030 -0.5200  0.8598
  191POPC   H4S22034   2.818   0.546   6.836 -0.7890 -0.8688  0.3726
  191POPC   C2522035   3.018   0.557   6.923  0.0549  0.1146 -0.2555
  191POPC   H5R22036   2.987   0.596   7.022  1.6142  0.9248 -0.0478
  191POPC   H5S22037   3.047   0.638   6.852 -1.0572 -0.0991 -0.9685
  191POPC   C2622038   3.149   0.473   6.951 -0.1992  0.2226 -0.1502
  191POPC   H6R22039   3.221   0.543   6.999 -1.2902  1.4814 -0.2554
  191POPC   H6S22040   3.199   0.447   6.855  2.1954  0.2533  1.0259
  191POPC   C2722041   3.130   0.344   7.033  0.6528  0.5330 -0.3655
  191POPC   H7R22042   3.228   0.294   7.044  1.8262  1.9857 -3.2543
  191POPC   H7S22043   3.072   0.266   6.980 -0.2655 -0.6316  2.1857
  191POPC   C2822044   3.064   0.387   7.165 -0.5084  0.3946 -0.3798
  191POPC   H8R22045   2.957   0.412   7.148 -1.7695 -1.8827  3.0954
  191POPC   H8S22046   3.116   0.478   7.202 -1.4657  0.6886  0.3116
  191POPC   C2922047   3.059   0.273   7.259 -0.1737 -0.4553 -0.7536
  191POPC   H9122048   2.997   0.187   7.227 -0.9428 -0.2101  0.0464
  191POPC  C21022049   3.119   0.261   7.378  0.0825  0.2264  0.6575
  191POPC  H10122050   3.101   0.169   7.435 -1.3430 -0.4430 -0.7926
  191POPC  C21122051   3.219   0.362   7.426 -1.2275 -0.2600  0.0173
  191POPC  H11R22052   3.175   0.464   7.422 -0.3448  0.0948 -1.8768
  191POPC  H11S22053   3.303   0.367   7.354  0.0132  1.5935  1.4708
  191POPC  C21222054   3.268   0.320   7.558 -0.0133  0.5571 -0.7977
  191POPC  H12R22055   3.305   0.216   7.545 -0.4682  0.0102  1.7273
  191POPC  H12S22056   3.187   0.307   7.633 -1.1175 -0.5617 -2.1161
  191POPC  C21322057   3.390   0.399   7.609 -0.0554  1.4719 -0.8412
  191POPC  H13R22058   3.368   0.508   7.608 -0.8562  1.4749  2.6170
  191POPC  H13S22059   3.480   0.375   7.549  1.2501 -1.6774  2.0517
  191POPC  C21422060   3.419   0.372   7.761  0.2255  0.7484  0.4808
  191POPC  H14R22061   3.510   0.423   7.799  1.8622 -0.7105 -1.3021
  191POPC  H14S22062   3.417   0.261   7.769 -0.9712  0.5016 -2.2171
  191POPC  C21522063   3.306   0.431   7.852  0.4565  0.5379  1.0770
  191POPC  H15R22064   3.208   0.410   7.805  1.9319 -0.1962 -1.9052
  191POPC  H15S22065   3.318   0.540   7.869  0.2214  0.7842 -0.2457
  191POPC  C21622066   3.317   0.374   7.989 -0.0298 -0.2954  0.9359
  191POPC  H16R22067   3.411   0.409   8.037  0.0074 -1.8673  2.0893
  191POPC  H16S22068   3.320   0.263   7.990 -0.5558 -0.3344  3.4000
  191POPC  C21722069   3.207   0.425   8.082 -0.1538 -0.1303  0.8337
  191POPC  H17R22070   3.106   0.407   8.040  0.2411 -0.4597  0.0097
  191POPC  H17S22071   3.210   0.534   8.102 -1.7392 -0.1925  1.6302
  191POPC  C21822072   3.205   0.355   8.211  0.0215 -0.4436  0.1184
  191POPC  H18R22073   3.118   0.385   8.274  0.1327  1.2994 -0.4958
  191POPC  H18S22074   3.304   0.373   8.257  1.3651 -0.6385 -2.5070
  191POPC  H18T22075   3.194   0.249   8.179 -0.3969 -0.2839 -0.2837
  191POPC   C3322076   3.190  -0.030   6.987  0.4066 -0.4481 -0.6942
  191POPC   H3X22077   3.155  -0.122   7.038 -0.6219  0.3454  0.0600
  191POPC   H3Y22078   3.144   0.056   7.040  2.5571 -0.0120  0.5566
  191POPC   C3422079   3.337  -0.010   7.001  0.1260  0.0881  0.0633
  191POPC   H4X22080   3.362   0.079   6.939  0.5847 -0.0814  0.0038
  191POPC   H4Y22081   3.403  -0.096   6.976 -0.6564  0.3348 -3.3169
  191POPC   C3522082   3.354   0.013   7.151 -0.0526  0.2082  0.3649
  191POPC   H5X22083   3.301  -0.062   7.214  0.4356 -0.2861  0.1951
  191POPC   H5Y22084   3.315   0.111   7.186 -0.0257  1.2587 -2.3455
  191POPC   C3622085   3.504   0.011   7.188 -0.2706  0.9320 -0.5722
  191POPC   H6X22086   3.556   0.084   7.123 -0.7936  0.6843 -1.2823
  191POPC   H6Y22087   3.546  -0.090   7.164  1.0984  0.6655  2.4158
  191POPC   C3722088   3.541   0.018   7.340 -0.4008  0.7726  0.1768
  191POPC   H7X22089   3.522   0.121   7.375  0.3003 -0.1847  3.7160
  191POPC   H7Y22090   3.648  -0.009   7.353 -0.3676  0.5387 -0.5175
  191POPC   C3822091   3.464  -0.070   7.440  0.1956 -0.3002  0.3254
  191POPC   H8X22092   3.423  -0.160   7.390 -2.2650  1.5059 -1.1669
  191POPC   H8Y22093   3.372  -0.017   7.473 -0.3191 -2.0552  1.9186
  191POPC   C3922094   3.532  -0.115   7.575  0.7245  0.9318 -0.3290
  191POPC   H9X22095   3.619  -0.181   7.552 -2.0318 -2.9260 -0.7291
  191POPC   H9Y22096   3.461  -0.181   7.629  2.2974  1.3212  2.4477
  191POPC  C31022097   3.575  -0.004   7.674  0.0533 -0.0118 -1.0083
  191POPC  H10X22098   3.488   0.064   7.684 -0.2155 -0.5521  0.6059
  191POPC  H10Y22099   3.651   0.065   7.632  0.4676  1.1380  1.4655
  191POPC  C31122100   3.605  -0.060   7.813  0.2604  0.8244  0.4621
  191POPC  H11X22101   3.660  -0.157   7.818  0.8425  1.0641 -0.7090
  191POPC  H11Y22102   3.511  -0.081   7.867 -1.9924  5.8225 -0.9268
  191POPC  C31222103   3.685   0.044   7.899 -0.1001 -0.5358  0.7853
  191POPC  H12X22104   3.615   0.123   7.934  1.1443  0.7033  0.5436
  191POPC  H12Y22105   3.759   0.084   7.827  0.0399  0.7964  1.6416
  191POPC  C31322106   3.758  -0.025   8.014 -0.2727  0.7706 -0.5527
  191POPC  H13X22107   3.836   0.046   8.049 -1.3915  0.4140  3.0475
  191POPC  H13Y22108   3.810  -0.113   7.971 -0.3294  0.6763 -0.4282
  191POPC  C31422109   3.666  -0.070   8.133 -0.3497  0.5063  0.1997
  191POPC  H14X22110   3.729  -0.120   8.209  0.1226  0.1145 -0.4340
  191POPC  H14Y22111   3.587  -0.143   8.106  1.9094 -2.8322  1.9412
  191POPC  C31522112   3.607   0.049   8.211 -0.1793  0.2731 -0.0797
  191POPC  H15X22113   3.541   0.109   8.146 -1.9090 -0.9652  0.4575
  191POPC  H15Y22114   3.694   0.114   8.236  0.5116  0.0459 -1.7603
  191POPC  C31622115   3.526   0.012   8.336  0.6459  0.2859  0.4504
  191POPC  H16X22116   3.496   0.105   8.390 -0.3350 -0.8355  1.9032
  191POPC  H16Y22117   3.583  -0.048   8.410  1.1106  2.8396  2.3089
  191POPC  H16Z22118   3.432  -0.041   8.309  0.9499 -0.9896  1.7820
  192POPC     N22119   2.720   2.458   6.049 -0.0637 -1.1438 -0.1218
  192POPC   C1222120   2.772   2.594   6.096 -0.1195 -0.1637  0.1542
  192POPC  H12A22121   2.684   2.643   6.136 -2.9380 -2.4370 -2.6528
  192POPC  H12B22122   2.802   2.642   6.004 -3.6294  0.3101 -0.8997
  192POPC   C1322123   2.838   2.377   6.005  0.6100  0.8738 -0.3742
  192POPC  H13A22124   2.813   2.272   5.995  0.7662  0.6740  1.1465
  192POPC  H13B22125   2.878   2.413   5.911  2.4492  1.7544  0.6825
  192POPC  H13C22126   2.915   2.382   6.081  0.2721  0.6853 -0.0190
  192POPC   C1422127   2.636   2.387   6.162  0.3467 -0.0509  0.0416
  192POPC  H14A22128   2.552   2.448   6.189  0.9257  1.6641 -1.7354
  192POPC  H14B22129   2.592   2.292   6.135 -1.9835  0.2510  2.3332
  192POPC  H14C22130   2.693   2.363   6.251  0.1247  1.0865  0.5028
  192POPC   C1522131   2.635   2.473   5.925 -0.0189  0.4329  0.6179
  192POPC  H15A22132   2.610   2.376   5.885 -1.1100  1.2057 -0.6617
  192POPC  H15B22133   2.684   2.522   5.842 -2.9751 -1.2056 -2.3621
  192POPC  H15C22134   2.542   2.524   5.947 -0.0657 -0.3972  2.5651
  192POPC   C1122135   2.878   2.589   6.205 -1.0454  0.0749 -0.1219
  192POPC  H11A22136   2.971   2.561   6.151 -1.4658  2.9761 -2.6489
  192POPC  H11B22137   2.847   2.509   6.276 -0.2398 -1.5519 -1.5195
  192POPC     P22138   2.998   2.816   6.203 -0.3875  0.1586 -0.4852
  192POPC   O1322139   2.950   2.952   6.236  0.0744 -0.7297  0.7448
  192POPC   O1422140   3.029   2.793   6.060  0.1215 -0.5064 -0.0554
  192POPC   O1222141   2.897   2.716   6.271 -0.5953  0.0897 -0.0806
  192POPC   O1122142   3.141   2.793   6.284  0.7014 -0.3104  0.5615
  192POPC    C122143   3.231   2.693   6.242  0.0497 -0.4160 -0.1113
  192POPC    HA22144   3.322   2.738   6.198 -0.3124  0.6754  0.2222
  192POPC    HB22145   3.187   2.618   6.173 -0.4354 -1.0820  0.8955
  192POPC    C222146   3.292   2.610   6.362 -0.2758 -0.3292  0.6894
  192POPC    HS22147   3.335   2.516   6.321 -0.5852  0.5208 -1.7701
  192POPC   O2122148   3.197   2.577   6.467  0.4120  0.1588  0.0829
  192POPC   C2122149   3.104   2.488   6.443  0.4695 -0.2127 -0.7002
  192POPC   O2222150   3.097   2.425   6.339  0.0388 -0.5475 -0.9698
  192POPC   C2222151   3.009   2.487   6.565 -0.5744  1.7114 -0.8723
  192POPC   H2R22152   2.908   2.475   6.522 -0.5943  1.0129 -0.6362
  192POPC   H2S22153   3.014   2.587   6.613 -1.0552  1.5334 -0.4436
  192POPC    C322154   3.405   2.691   6.435  0.8788 -0.6098  0.3648
  192POPC    HX22155   3.375   2.797   6.435  1.1091 -0.5328 -0.4926
  192POPC    HY22156   3.498   2.686   6.374  0.7651 -3.4504  0.2643
  192POPC   O3122157   3.440   2.625   6.564 -0.0914  0.1551 -0.0018
  192POPC   C3122158   3.376   2.666   6.669  0.1599 -0.4658 -0.0100
  192POPC   O3222159   3.302   2.759   6.672  0.0995 -0.0080 -0.1626
  192POPC   C3222160   3.423   2.582   6.795  0.5888  0.5501 -0.1659
  192POPC   H2X22161   3.531   2.571   6.773  0.4950  0.7058 -0.7166
  192POPC   H2Y22162   3.373   2.483   6.784  0.6237  0.4861  0.2274
  192POPC   C2322163   3.035   2.380   6.673 -0.3287  0.1832 -0.6753
  192POPC   H3R22164   3.138   2.342   6.689 -1.0408 -1.5659 -0.0221
  192POPC   H3S22165   2.980   2.289   6.641 -1.7666  1.0138 -0.6683
  192POPC   C2422166   2.984   2.412   6.815 -0.3823  0.3055  0.3337
  192POPC   H4R22167   2.883   2.454   6.800  0.5099  2.1387 -0.8451
  192POPC   H4S22168   3.048   2.487   6.865 -0.2040  0.7710 -0.5705
  192POPC   C2522169   2.973   2.288   6.908  0.0847 -0.1997  0.3487
  192POPC   H5R22170   3.076   2.247   6.915  0.5554  0.4397 -2.0258
  192POPC   H5S22171   2.913   2.212   6.853 -0.8556 -0.2481  1.4010
  192POPC   C2622172   2.915   2.305   7.039 -0.3012  0.0552 -0.0506
  192POPC   H6R22173   2.898   2.198   7.063 -1.9992 -0.1976 -2.0858
  192POPC   H6S22174   2.819   2.361   7.037 -0.5616 -0.4066 -0.5185
  192POPC   C2722175   3.021   2.356   7.140 -0.3165 -0.0386 -0.5859
  192POPC   H7R22176   3.040   2.463   7.120 -0.9228  0.1677 -0.1144
  192POPC   H7S22177   3.109   2.290   7.129 -0.3994 -0.8919  2.7226
  192POPC   C2822178   2.976   2.336   7.286 -0.1627 -0.1531 -0.7488
  192POPC   H8R22179   2.979   2.227   7.308  1.6193  0.2350  1.2123
  192POPC   H8S22180   2.876   2.382   7.305  0.3963  0.5441  0.6486
  192POPC   C2922181   3.070   2.406   7.380  0.0470  0.1857 -1.0068
  192POPC   H9122182   3.080   2.515   7.367 -3.2254  0.8083  0.7265
  192POPC  C21022183   3.132   2.346   7.488 -0.1137 -0.2937 -0.7167
  192POPC  H10122184   3.181   2.417   7.556  0.9226 -1.3621 -0.3136
  192POPC  C21122185   3.133   2.199   7.536  0.2982  0.3704  0.1625
  192POPC  H11R22186   3.222   2.145   7.497  0.2231  1.3214 -1.4115
  192POPC  H11S22187   3.044   2.144   7.500  0.7742  0.9792 -2.0853
  192POPC  C21222188   3.129   2.204   7.696 -0.3444  0.6367  0.0639
  192POPC  H12R22189   3.214   2.259   7.741 -1.6716  0.0553  3.5388
  192POPC  H12S22190   3.138   2.099   7.731 -1.0111  0.5819  0.0768
  192POPC  C21322191   3.005   2.263   7.758  0.4142  0.3128  0.0992
  192POPC  H13R22192   2.921   2.202   7.717  0.8551 -0.6966  0.6697
  192POPC  H13S22193   2.989   2.372   7.742  2.9234  0.7688  0.3890
  192POPC  C21422194   3.009   2.249   7.910  0.5357  0.6611  0.2359
  192POPC  H14R22195   3.104   2.296   7.944  2.0231 -1.0674 -1.2734
  192POPC  H14S22196   3.014   2.139   7.924 -2.0810  0.6000  1.1541
  192POPC  C21522197   2.895   2.313   7.972 -0.0258 -0.0770  0.0343
  192POPC  H15R22198   2.805   2.285   7.912 -1.0883  1.3516  0.8821
  192POPC  H15S22199   2.886   2.423   7.961  0.2651 -0.1250 -0.6884
  192POPC  C21622200   2.867   2.264   8.114  0.3375  0.2695 -0.3907
  192POPC  H16R22201   2.826   2.161   8.111  0.7322  0.1084 -0.3214
  192POPC  H16S22202   2.790   2.325   8.166  0.8338  0.2474  0.3863
  192POPC  C21722203   2.985   2.260   8.212 -0.5969 -0.6506  0.1328
  192POPC  H17R22204   3.053   2.177   8.184  0.3638  0.0064  0.4795
  192POPC  H17S22205   2.942   2.220   8.307  1.0636 -1.3832  0.6273
  192POPC  C21822206   3.054   2.393   8.231  0.0346 -0.3281  0.2646
  192POPC  H18R22207   3.066   2.423   8.125  3.1385 -2.2505 -0.0447
  192POPC  H18S22208   3.145   2.397   8.295 -1.2712 -1.0681  2.2833
  192POPC  H18T22209   2.989   2.465   8.286 -1.5186 -1.4478 -0.0191
  192POPC   C3322210   3.397   2.637   6.932 -0.0006  0.3926 -0.7093
  192POPC   H3X22211   3.293   2.630   6.971 -0.0012 -0.5333 -0.8508
  192POPC   H3Y22212   3.437   2.741   6.936  1.2420 -0.1041  0.3974
  192POPC   C3422213   3.466   2.549   7.035 -0.0675  0.2820 -0.4009
  192POPC   H4X22214   3.566   2.512   7.001  0.3624  1.2653 -0.2336
  192POPC   H4Y22215   3.410   2.453   7.034  0.8195 -0.2841  0.9888
  192POPC   C3522216   3.471   2.615   7.175 -0.5988  0.4735  0.1496
  192POPC   H5X22217   3.365   2.633   7.203 -0.3836  1.7409  0.2388
  192POPC   H5Y22218   3.520   2.714   7.162  0.9955 -0.5809 -2.7320
  192POPC   C3622219   3.543   2.527   7.274  0.2074 -0.1231 -0.1195
  192POPC   H6X22220   3.645   2.563   7.297  1.3075 -2.4703 -1.0788
  192POPC   H6Y22221   3.546   2.433   7.215  2.3480  0.7178 -1.4322
  192POPC   C3722222   3.459   2.510   7.408 -0.4461 -0.2011  0.1110
  192POPC   H7X22223   3.354   2.493   7.375 -0.2210  0.0474 -0.7606
  192POPC   H7Y22224   3.469   2.603   7.468 -1.4513 -0.0117  0.0122
  192POPC   C3822225   3.511   2.391   7.490  0.0909 -0.1860 -0.1196
  192POPC   H8X22226   3.453   2.361   7.580  1.9270  0.6108  1.3827
  192POPC   H8Y22227   3.620   2.393   7.510  0.1675  2.4463 -0.3838
  192POPC   C3922228   3.499   2.257   7.416 -0.0904  0.3538  0.8848
  192POPC   H9X22229   3.590   2.257   7.352 -2.6107  1.8002 -3.1263
  192POPC   H9Y22230   3.410   2.250   7.350 -2.2673 -1.0807  3.7829
  192POPC  C31022231   3.498   2.134   7.507 -0.6009  0.5158 -0.1800
  192POPC  H10X22232   3.487   2.048   7.438 -2.6432 -0.2340  0.9804
  192POPC  H10Y22233   3.412   2.145   7.577  0.9033 -0.7293  1.9751
  192POPC  C31122234   3.627   2.120   7.588  0.0286  0.1928  0.2524
  192POPC  H11X22235   3.620   2.200   7.665 -3.6855 -1.2798  1.6825
  192POPC  H11Y22236   3.709   2.140   7.515 -3.7435 -0.1823 -4.6442
  192POPC  C31222237   3.651   1.979   7.649 -0.6793 -1.0294 -0.4280
  192POPC  H12X22238   3.568   1.946   7.715 -1.7167  0.8607 -0.7159
  192POPC  H12Y22239   3.742   1.998   7.709  1.2535 -0.7513 -3.2696
  192POPC  C31322240   3.684   1.874   7.543 -0.1937 -0.5286  0.3633
  192POPC  H13X22241   3.589   1.849   7.492 -1.1212 -0.8829  2.2019
  192POPC  H13Y22242   3.724   1.783   7.592 -0.8903  0.0305  2.0414
  192POPC  C31422243   3.795   1.905   7.438  0.4406 -0.2930 -0.1346
  192POPC  H14X22244   3.885   1.940   7.493  0.7102 -0.8980 -0.1830
  192POPC  H14Y22245   3.752   1.987   7.377 -0.6567 -0.2655  0.6381
  192POPC  C31522246   3.832   1.799   7.339  0.7781  0.6461  0.3524
  192POPC  H15X22247   3.745   1.774   7.276  1.9337 -1.8201 -0.3951
  192POPC  H15Y22248   3.842   1.700   7.390 -1.3572 -0.6842 -1.5961
  192POPC  C31622249   3.950   1.831   7.253 -0.5076  0.4530  0.6319
  192POPC  H16X22250   3.952   1.938   7.223  1.1050  0.0631 -0.7431
  192POPC  H16Y22251   3.956   1.764   7.165  0.4424  0.8713  0.3629
  192POPC  H16Z22252   4.043   1.815   7.311  0.1496  0.0643 -0.5121
  193SOD    SOD22253   2.155   0.171   6.052 -0.0772 -0.1672  0.1239
  194SOD    SOD22254   4.385   2.066  13.210  0.4679 -0.0843  0.6291
  195SOD    SOD22255   5.434   5.356  12.935 -0.0006  0.3292 -0.5206
  196SOD    SOD22256   1.068   3.848   4.819 -0.3389  0.2570 -0.1848
  197SOD    SOD22257   6.060   0.406  11.375  0.3172 -0.2315  0.0828
  198SOD    SOD22258   3.965   6.723  16.817 -0.3619 -0.1802 -0.4613
  199SOD    SOD22259   3.788   3.421  12.514 -0.4156 -0.2144  0.4085
  200SOD    SOD22260   1.516   5.616   3.315 -0.2248 -0.0620  0.3765
  201SOD    SOD22261   2.454   4.090   3.481  0.2560 -0.1285 -0.2115
  202SOD    SOD22262   4.718   2.296  16.381  0.3044 -0.0456 -0.0928
  203SOD    SOD22263   2.234   0.689  15.083 -0.0279  0.0125 -0.5474
  204SOD    SOD22264   4.406   0.971   6.186 -0.0827  0.1627 -0.3960
  205SOD    SOD22265   2.661   0.638   2.211 -0.1396 -0.0603  0.0595
  206SOD    SOD22266   1.827   6.177   6.334  0.1640 -0.5403 -0.3371
  207SOD    SOD22267   5.205   6.101  14.671  0.4429  0.2562 -0.2544
  208SOD    SOD22268   5.984   1.189  14.320 -0.1994 -0.2583  0.1457
  209SOD    SOD22269   5.798   4.863   4.346 -0.4444 -0.3587 -0.2705
  210SOD    SOD22270   5.046   3.885   2.769  0.3662 -0.3389  0.1851
  211SOD    SOD22271   0.940   5.216   2.388 -0.3692  0.8539  0.2184
  212SOD    SOD22272   5.606   0.485  10.740  0.7683 -0.0636 -0.2659
  213SOD    SOD22273   2.105   2.906   5.655 -0.3990  0.5592  0.3628
  214SOD    SOD22274   2.741   1.630   1.057  0.2693  0.2016 -0.1755
  215SOD    SOD22275   5.930   2.395   6.339 -0.2080 -0.1188 -0.2218
  216SOD    SOD22276   4.905   0.330   5.195  0.1407  0.1964 -0.1217
  217SOD    SOD22277   1.688   0.823  16.520  0.3116  0.3673  0.0273
  218SOD    SOD22278   2.954   2.876  13.140  0.4698 -0.2593 -0.1422
  219SOD    SOD22279   3.934   4.792  14.441 -0.0875 -0.1359 -0.3300
  220SOD    SOD22280   1.152   6.137   1.828 -0.1155  0.0919 -0.1169
  221SOD    SOD22281   5.046   6.012   0.969 -0.3674 -0.4482  0.0632
  222SOD    SOD22282   2.752   3.654  11.332  0.4610  0.2805 -0.2955
  223SOD    SOD22283   6.212   6.053  11.750  0.2254  0.8290  0.3435
  224SOD    SOD22284   2.125   0.177   4.379  0.1035 -0.0467  0.4607
  225SOD    SOD22285   2.606   1.485   1.948 -0.1091  0.0270  0.0875
  226SOD    SOD22286   2.211   4.812  11.120  0.0524  0.2588  0.3250
  227SOD    SOD22287   0.250   2.230   6.055  0.3666  0.0007  0.2375
  228SOD    SOD22288   0.655   3.917  15.260  0.3282 -0.1902 -0.0038
  229SOD    SOD22289   2.700   1.563   5.898  0.3545  0.4443 -0.3111
  230SOD    SOD22290   3.533   6.746  11.846 -0.1696  0.3572  0.5370
  231SOD    SOD22291   0.637   5.437  10.686  0.0341 -0.4059  0.2134
  232SOD    SOD22292   0.273   6.441  11.063 -0.4536  0.5317 -0.0080
  233SOD    SOD22293   0.857   5.819   0.056  0.0763 -0.0049  0.3736
  234SOD    SOD22294   0.270   0.687   5.484  0.3469  0.4013 -0.0397
  235SOD    SOD22295   6.677   3.961  15.878 -0.2587  0.3922  0.2341
  236SOD    SOD22296   5.927   3.186  12.928 -0.0745 -0.2229 -0.3433
  237SOD    SOD22297   2.921   5.186   0.687 -0.2748  0.0265 -0.1678
  238SOD    SOD22298   0.384   4.748   1.568 -0.2715 -1.1572  0.0427
  239SOD    SOD22299   0.450   4.791  15.658  0.5565  0.3263 -0.3435
  240SOD    SOD22300   1.205   3.323  13.908 -0.0900 -0.1112  0.0593
  241SOD    SOD22301   0.542   0.825  11.435 -0.1350  0.0737  0.2346
  242SOD    SOD22302   4.520   3.712  10.975 -0.2470  0.2805 -0.1055
  243SOD    SOD22303   0.905   0.243  15.745 -0.3675  0.3208 -0.4286
  244SOD    SOD22304   4.327   1.667   3.996 -0.2570  0.1791  0.2530
  245SOD    SOD22305   6.580   4.805   3.201 -0.1506 -0.1252  0.0949
  246SOD    SOD22306   5.079   4.028   4.114 -0.1940  0.0592  0.1526
  247SOD    SOD22307   6.405   4.384  13.264  0.1282 -0.3381  0.5446
  248SOD    SOD22308   5.579   6.244  15.472  0.2268 -0.3349  0.5334
  249SOD    SOD22309   1.354   6.025  12.996  0.4054  0.1340  0.1028
  250SOD    SOD22310   5.832   2.815   4.286  0.0882  0.1329 -0.9603
  251SOD    SOD22311   1.346   0.635   0.381  0.0460 -0.1312 -0.3972
  252SOD    SOD22312   4.511   5.590   5.451 -0.6813  0.0230 -0.1728
  253SOD    SOD22313   1.144   6.407   4.831  0.2961 -0.0928  0.2897
  254SOD    SOD22314   1.054   1.360  13.058 -0.2004  0.4512 -0.1853
  255SOD    SOD22315   6.053   2.193  17.180 -0.3661 -0.0511  0.2325
  256SOD    SOD22316   1.143   2.871   4.907 -0.1708  0.4122 -0.1774
  257SOD    SOD22317   0.387   1.644  14.938  0.5261  0.4569  0.1743
  258SOD    SOD22318   0.727   4.927   5.037  0.3000 -0.2213 -0.1612
  259SOD    SOD22319   6.765   4.717   5.519 -0.4886 -0.4496  0.2131
  260SOD    SOD22320   4.177   0.675  14.411 -0.5622  0.2757  0.1812
  261SOD    SOD22321   2.551   1.158   3.340 -0.0541  0.0330 -0.1689
  262SOD    SOD22322   1.458   5.214  10.679  0.4520 -0.0479  0.2664
  263SOD    SOD22323   1.269   3.982  13.200  0.2362 -0.2272 -0.2684
  264SOD    SOD22324   4.560   0.557  11.594  0.3694  0.1434 -0.6388
  265SOD    SOD22325   6.010   0.785   6.337 -0.4714 -0.3311 -0.0825
  266SOD    SOD22326   0.785   5.814   6.242 -0.0176 -0.1031 -0.0263
  267SOD    SOD22327   4.872   0.966   3.417 -0.2978  0.2196 -0.1543
  268SOD    SOD22328   5.928   6.698  17.274 -0.0096 -0.1474  0.1983
  269SOD    SOD22329   1.792   4.655  16.002  0.5499 -0.1029  0.4631
  270CLA    CLA22330   1.022   4.145   3.661  0.2066  0.0935 -0.0402
  271CLA    CLA22331   5.008   4.690  15.411  0.1128 -0.4967  0.4616
  272CLA    CLA22332   5.174   0.657   4.733  0.2701 -0.1010 -0.2884
  273CLA    CLA22333   4.837   4.470   4.196  0.2285 -0.3981 -0.2605
  274CLA    CLA22334   6.613   5.689   4.115  0.1929 -0.3868 -0.3370
  275CLA    CLA22335   6.510   2.052  14.811 -0.0687  0.1362  0.2050
  276CLA    CLA22336   2.559   0.087  14.332  0.1658  0.0318 -0.1102
  277CLA    CLA22337   2.272   0.362   5.900  0.1966  0.1670 -0.2397
  278CLA    CLA22338   1.469   0.306   5.193 -0.1813 -0.0263 -0.2660
  279CLA    CLA22339   4.982   6.061  14.546  0.3194  0.3463  0.0524
  280CLA    CLA22340   4.161   5.131  16.426 -0.2277  0.2390  0.2325
  281CLA    CLA22341   3.814   0.130   5.539 -0.2734  0.2783 -0.1316
  282CLA    CLA22342   4.396   4.180  13.126 -0.0010  0.2024 -0.0937
  283CLA    CLA22343   6.263   2.724   2.309  0.0243  0.3824 -0.3739
  284CLA    CLA22344   6.208   1.209  14.705  0.1120 -0.0858  0.0062
  285CLA    CLA22345   3.121   1.645   2.803 -0.1011 -0.5378 -0.1165
  286CLA    CLA22346   5.249   4.038  15.864 -0.3970 -0.0680  0.3638
  287CLA    CLA22347   6.080   1.252  15.444 -0.1120 -0.2918 -0.0363
  288CLA    CLA22348   0.937   4.380  16.064  0.2825 -0.0049 -0.0726
  289CLA    CLA22349   5.096   1.019  16.927 -0.1448 -0.2028 -0.0916
  290CLA    CLA22350   3.742   0.430  16.352 -0.0677 -0.2689 -0.0193
  291CLA    CLA22351   6.392   3.590  14.141 -0.0550  0.5771  0.4661
  292CLA    CLA22352   6.451   3.298   1.469 -0.3073  0.2289 -0.0731
  293CLA    CLA22353   6.612   2.425   5.959  0.0852 -0.0698 -0.3086
  294CLA    CLA22354   6.533   0.456  13.674 -0.1837 -0.0057 -0.3777
  295CLA    CLA22355   3.971   6.278  12.049 -0.0393  0.1625  0.1217
  296CLA    CLA22356   2.674   2.579  12.798 -0.4877  0.3704  0.5351
  297CLA    CLA22357   2.834   1.162   1.630  0.0187  0.2463 -0.0901
  298CLA    CLA22358   4.492   4.772  13.577  0.0642 -0.0134 -0.0387
  299CLA    CLA22359   1.164   2.256   1.606  0.1670  0.0851  0.1915
  300CLA    CLA22360   6.279   6.616  16.744  0.0264 -0.3112  0.0294
  301CLA    CLA22361   0.636   0.114   6.022 -0.1757  0.0218  0.2987
  302CLA    CLA22362   2.849   1.983   1.318 -0.0052  0.1923 -0.1471
  303CLA    CLA22363   0.453   0.909   2.535 -0.4426 -0.0181 -0.5313
  304CLA    CLA22364   1.388   3.368   0.263 -0.3075  0.1350  0.2257
  305CLA    CLA22365   2.540   3.579   0.200  0.1786 -0.5232 -0.2318
  306CLA    CLA22366   1.478   5.302  13.451  0.2592 -0.1380  0.2111
  307CLA    CLA22367   6.442   2.181  14.305 -0.1399 -0.2735  0.2624
  308CLA    CLA22368   3.081   3.246   3.393 -0.0190  0.0719 -0.2150
  309CLA    CLA22369   4.416   3.581  13.762 -0.4462 -0.0801  0.0234
  310CLA    CLA22370   3.282   1.682   0.872  0.2899 -0.2535  0.1369
  311CLA    CLA22371   5.862   2.434   2.870  0.0609  0.1294  0.1069
  312CLA    CLA22372   2.151   0.220   2.593 -0.0844  0.8234  0.3873
  313CLA    CLA22373   5.900   2.481   0.789 -0.0648 -0.1355  0.4420
  314CLA    CLA22374   2.430   6.455  16.804 -0.2720 -0.1508  0.1231
  315CLA    CLA22375   0.922   1.970   0.932  0.0035  0.2930  0.1149
  316CLA    CLA22376   1.821   4.645  15.709  0.2420 -0.1131 -0.5495
  317CLA    CLA22377   6.005   5.027   3.542  0.5949  0.1665  0.1103
  318CLA    CLA22378   6.049   5.482   2.710 -0.3591 -0.1924 -0.0031
  319CLA    CLA22379   4.916   6.622  15.964 -0.1255  0.5650 -0.0895
  320CLA    CLA22380   6.270   4.871  15.936 -0.1045  0.5404 -0.3185
  321CLA    CLA22381   1.665   1.474  16.776  0.1813 -0.2162 -0.0273
  322CLA    CLA22382   5.730   3.218   3.619  0.1194 -0.0669  0.0832
  323TIP3   OH222383   1.759   2.922   4.560  0.2982  0.7312  0.1769
  323TIP3    H122384   1.706   2.869   4.501 -0.8317 -0.3939  2.0993
  323TIP3    H222385   1.848   2.916   4.524 -0.0480 -1.3071 -0.4834
  324TIP3   OH222386   4.635   3.425   3.875  0.3322 -0.1670 -0.1161
  324TIP3    H122387   4.574   3.500   3.873 -1.2403 -1.3958 -0.6019
  324TIP3    H222388   4.696   3.442   3.803  0.5730  1.0967  0.3661
  325TIP3   OH222389   6.557   4.009   1.021 -0.7228 -0.2236 -0.6932
  325TIP3    H122390   6.637   3.971   1.056  0.7564  0.9061 -2.6482
  325TIP3    H222391   6.513   3.936   0.975  0.5709 -0.2995 -1.8737
  326TIP3   OH222392   6.081   4.164  13.297  0.3294  0.4250 -0.2301
  326TIP3    H122393   6.133   4.228  13.251  0.3354  0.5094 -0.1062
  326TIP3    H222394   6.021   4.216  13.351  2.6903  0.4325  2.6481
  327TIP3   OH222395   3.734   5.664   2.632 -0.4717  0.3844 -0.7223
  327TIP3    H122396   3.801   5.697   2.573  0.0561 -1.4806 -1.2615
  327TIP3    H222397   3.654   5.661   2.580 -0.1147 -0.8086 -1.2395
  328TIP3   OH222398   0.264   6.299  11.240 -0.2451 -0.1461  0.1289
  328TIP3    H122399   0.329   6.281  11.308 -1.4785 -1.1399  1.0937
  328TIP3    H222400   0.211   6.220  11.235 -1.4711  0.6770 -0.5289
  329TIP3   OH222401   2.809   5.730   2.016 -0.3809 -0.3286 -0.0088
  329TIP3    H122402   2.747   5.784   2.065  0.5802 -0.0538  0.9500
  329TIP3    H222403   2.870   5.699   2.083 -0.5089 -2.0391 -0.6623
  330TIP3   OH222404   2.460   2.710  15.133 -0.7205 -0.0834 -0.3814
  330TIP3    H122405   2.520   2.740  15.200  1.1922 -0.4774 -1.8300
  330TIP3    H222406   2.382   2.682  15.181  0.5614 -0.3753  1.6536
  331TIP3   OH222407   4.256   0.602  13.073 -0.0474 -0.4877  0.1097
  331TIP3    H122408   4.213   0.543  13.133  0.6307 -1.1050  0.0038
  331TIP3    H222409   4.350   0.587  13.087  0.1462  0.8195  0.3434
  332TIP3   OH222410   6.537   4.124  16.407  0.4257  0.0681  0.0992
  332TIP3    H122411   6.487   4.119  16.488  0.6990 -0.9771  0.2237
  332TIP3    H222412   6.494   4.192  16.355 -0.9854 -0.6604  0.2888
  333TIP3   OH222413   4.616   3.549   4.619 -0.9217 -0.0575 -0.3757
  333TIP3    H122414   4.680   3.502   4.566 -0.1736 -0.4077  0.8219
  333TIP3    H222415   4.659   3.564   4.703 -2.5594 -0.7458  0.6435
  334TIP3   OH222416   4.216   2.765  15.094  0.5523  0.5037  0.1709
  334TIP3    H122417   4.190   2.857  15.087 -0.3935  0.3337  1.2273
  334TIP3    H222418   4.185   2.725  15.012 -0.0809  0.8834  0.2219
  335TIP3   OH222419   0.260   4.094  16.084  0.6122  0.0522  0.1540
  335TIP3    H122420   0.194   4.068  16.148 -0.3311 -0.6990 -1.0802
  335TIP3    H222421   0.343   4.067  16.123  0.2638  1.3604  1.9015
  336TIP3   OH222422   4.991   5.228  16.699  0.2024 -0.4474  0.0229
  336TIP3    H122423   4.906   5.272  16.706 -0.2768 -1.1854 -0.9458
  336TIP3    H222424   4.972   5.136  16.715  0.4140 -0.9527 -2.2084
  337TIP3   OH222425   5.764   6.740   4.609 -0.6801 -0.5117  0.3602
  337TIP3    H122426   5.683   6.689   4.619 -0.6898 -0.7095 -0.5847
  337TIP3    H222427   5.827   6.678   4.571 -0.3995 -0.0845  0.1169
  338TIP3   OH222428   2.442   5.908  17.118  0.0801  0.6952  0.0050
  338TIP3    H122429   2.507   5.849  17.156  0.1922 -0.1122 -1.3723
  338TIP3    H222430   2.483   5.994  17.122  0.2095  0.5833  1.3896
  339TIP3   OH222431   1.404   5.857  14.741 -0.3429 -0.1493  0.1424
  339TIP3    H122432   1.384   5.861  14.834 -1.0298  0.3363 -0.0157
  339TIP3    H222433   1.423   5.764  14.724 -0.7264 -0.3278  0.6658
  340TIP3   OH222434   3.834   1.417   0.505  0.2893 -0.3619  0.4614
  340TIP3    H122435   3.848   1.359   0.580  0.4958  0.3749  0.9970
  340TIP3    H222436   3.754   1.383   0.465 -0.3255 -0.2274  1.5327
  341TIP3   OH222437   3.504   2.304   0.419 -0.3354  0.3576 -0.7058
  341TIP3    H122438   3.573   2.287   0.483  0.1591  1.2209 -1.0047
  341TIP3    H222439   3.451   2.224   0.420 -0.4134  0.4111  0.8694
  342TIP3   OH222440   0.285   2.231  13.978 -0.4516  0.1538 -0.7461
  342TIP3    H122441   0.379   2.225  13.996 -0.1741  1.5145 -1.6270
  342TIP3    H222442   0.250   2.281  14.052 -0.1466  1.3251 -1.3734
  343TIP3   OH222443   1.842   1.492  15.218  0.1845  0.4762 -0.1115
  343TIP3    H122444   1.927   1.465  15.254  0.2667 -0.6720 -1.1396
  343TIP3    H222445   1.792   1.411  15.211 -1.8511  1.3674  2.5184
  344TIP3   OH222446   3.317   5.924  13.903 -0.0974  0.0759 -0.8001
  344TIP3    H122447   3.318   6.012  13.866 -1.9476  0.1561 -0.7710
  344TIP3    H222448   3.284   5.869  13.831  0.1299 -0.4327 -0.5182
  345TIP3   OH222449   1.993   0.627  14.069  0.3278  0.3951  0.2757
  345TIP3    H122450   2.088   0.636  14.061  0.4784 -1.8156 -1.0692
  345TIP3    H222451   1.979   0.597  14.159  1.0368 -0.5683  0.0757
  346TIP3   OH222452   0.636   3.086  14.572  0.4093  0.0448  0.4581
  346TIP3    H122453   0.605   3.177  14.573  2.4383  0.7866 -0.0341
  346TIP3    H222454   0.580   3.043  14.508  0.2905  1.2983 -0.3207
  347TIP3   OH222455   0.624   4.496   1.062 -0.1409  0.1846  0.5039
  347TIP3    H122456   0.650   4.530   1.148 -2.0032  1.2210  0.7079
  347TIP3    H222457   0.658   4.406   1.061  0.9964  0.5624  1.7965
  348TIP3   OH222458   4.134   6.708   3.968  0.3995 -0.1351 -0.1922
  348TIP3    H122459   4.178   6.735   3.888  1.0021 -0.4387  0.0342
  348TIP3    H222460   4.172   6.623   3.989  0.5061  0.1018  0.6129
  349TIP3   OH222461   5.659   2.839  14.425  0.4115  0.8101  0.3961
  349TIP3    H122462   5.702   2.783  14.359  1.6460 -0.0227  1.8524
  349TIP3    H222463   5.668   2.791  14.507 -2.1144  1.2862  1.0260
  350TIP3   OH222464   4.662   1.424   1.873 -0.4541 -0.1509  0.3359
  350TIP3    H122465   4.715   1.366   1.818 -1.6225 -1.2213  0.3015
  350TIP3    H222466   4.693   1.512   1.852  0.3998 -0.6619 -0.6451
  351TIP3   OH222467   3.311   2.821   5.101 -0.0609  0.1233  0.6937
  351TIP3    H122468   3.388   2.849   5.149 -0.2641  1.2076  0.4009
  351TIP3    H222469   3.274   2.901   5.065  0.2885 -0.6558 -1.5935
  352TIP3   OH222470   6.343   4.723  16.199 -0.5278 -0.0623  0.6744
  352TIP3    H122471   6.313   4.775  16.125 -0.0369  0.4339  0.8196
  352TIP3    H222472   6.267   4.719  16.258 -0.2080  1.6058  1.2708
  353TIP3   OH222473   4.122   1.803  14.483  0.2454 -0.2377 -0.3305
  353TIP3    H122474   4.107   1.716  14.445  1.2507 -0.4156 -0.3578
  353TIP3    H222475   4.192   1.789  14.547  0.8836  0.6619 -0.8085
  354TIP3   OH222476   1.969   1.891   3.230 -0.9772 -0.1083  0.9263
  354TIP3    H122477   2.001   1.922   3.315  0.0520  1.1994  0.0954
  354TIP3    H222478   1.876   1.915   3.230 -0.7307  0.8916  1.2486
  355TIP3   OH222479   6.776   2.237  11.318  0.4204 -0.7645  0.3303
  355TIP3    H122480   6.775   2.303  11.249 -3.5368 -3.6426 -2.8170
  355TIP3    H222481   6.701   2.260  11.373  0.1980 -1.5493  0.3603
  356TIP3   OH222482   5.795   5.338   0.357 -0.2850 -0.6972  0.2993
  356TIP3    H122483   5.863   5.317   0.421 -1.1053 -1.7632  0.8435
  356TIP3    H222484   5.746   5.410   0.397  0.2203 -0.2399  0.1120
  357TIP3   OH222485   3.126   5.855  14.750 -0.2946 -0.1197 -0.1188
  357TIP3    H122486   3.199   5.792  14.758 -0.8748 -0.7579  0.2699
  357TIP3    H222487   3.162   5.937  14.783  0.7880  0.0326 -1.5267
  358TIP3   OH222488   0.291   3.042  14.347  0.1429 -0.0854 -0.2463
  358TIP3    H122489   0.362   2.986  14.377 -0.7333  0.1961  2.7115
  358TIP3    H222490   0.230   2.983  14.304 -0.2175 -1.3127  1.7974
  359TIP3   OH222491   4.227   0.935   4.686 -0.1122  0.1152  0.5131
  359TIP3    H122492   4.207   0.892   4.769 -1.7040  3.4322  2.0394
  359TIP3    H222493   4.158   0.907   4.626  0.8949 -2.0834  0.2696
  360TIP3   OH222494   1.150   5.982   6.106 -0.0389 -0.4109  0.2105
  360TIP3    H122495   1.079   6.011   6.049 -1.0348 -0.8579  1.1797
  360TIP3    H222496   1.199   5.918   6.054 -1.0960 -1.0307 -0.0516
  361TIP3   OH222497   3.555   6.022  16.543 -0.6960  0.1089 -0.1632
  361TIP3    H122498   3.526   5.945  16.592  0.0654 -0.8424 -1.1642
  361TIP3    H222499   3.485   6.037  16.479  0.5588 -1.7165 -2.0641
  362TIP3   OH222500   6.299   2.421   6.805  0.4538 -0.0840  0.0471
  362TIP3    H122501   6.276   2.391   6.893 -0.1733  0.8881  0.2321
  362TIP3    H222502   6.284   2.344   6.749  0.5073 -0.6028  0.7268
  363TIP3   OH222503   5.603   6.772   5.029  0.1841 -0.4206  0.3590
  363TIP3    H122504   5.529   6.771   4.967  1.2181  0.4440 -0.9284
  363TIP3    H222505   5.662   6.704   4.996  1.1508  0.6335 -0.1594
  364TIP3   OH222506   1.498   4.571  12.236  0.2254  0.2426  0.4442
  364TIP3    H122507   1.458   4.500  12.185  0.7399  0.5010 -0.3369
  364TIP3    H222508   1.433   4.641  12.234 -0.5963 -0.4403  1.8294
  365TIP3   OH222509   3.652   2.368   2.288  0.2384 -0.2434  0.0479
  365TIP3    H122510   3.695   2.423   2.353  0.3860 -0.6924  0.3397
  365TIP3    H222511   3.613   2.297   2.339 -0.2328 -0.2300 -0.2879
  366TIP3   OH222512   2.301   5.823   3.403 -0.0309  0.1371 -0.5203
  366TIP3    H122513   2.309   5.899   3.345 -1.4219  0.6972 -0.0142
  366TIP3    H222514   2.264   5.754   3.347 -0.1703  0.2921 -0.6223
  367TIP3   OH222515   6.766   2.400  15.803  0.3747  0.1131  0.2740
  367TIP3    H122516   6.762   2.410  15.898 -0.1107  0.7160  0.1987
  367TIP3    H222517   6.803   2.482  15.772 -1.5655  0.8590 -0.2098
  368TIP3   OH222518   5.752   5.021  13.476 -0.2280 -0.4925  0.2495
  368TIP3    H122519   5.767   5.046  13.385 -2.9400 -0.5962 -0.2973
  368TIP3    H222520   5.727   5.102  13.520  1.8112 -0.2884  1.1572
  369TIP3   OH222521   4.106   3.613  13.704 -0.2476 -0.2289  0.4274
  369TIP3    H122522   4.159   3.589  13.628  0.6028 -1.1886  1.3009
  369TIP3    H222523   4.170   3.624  13.775 -0.8294  2.3546  0.6412
  370TIP3   OH222524   3.784   4.005  16.181  0.1158 -0.3613  0.7844
  370TIP3    H122525   3.704   4.057  16.185  1.6236  2.0336  1.8170
  370TIP3    H222526   3.774   3.953  16.101 -0.9507  2.5138 -1.1241
  371TIP3   OH222527   2.575   2.444  14.297  0.0297  0.6986  0.4140
  371TIP3    H122528   2.501   2.485  14.254  0.4435  0.6733 -0.3448
  371TIP3    H222529   2.630   2.412  14.225 -0.4988 -1.6037  0.9589
  372TIP3   OH222530   3.705   0.757   4.196 -0.1735  0.0502 -0.1066
  372TIP3    H122531   3.626   0.811   4.190  0.6235  1.3137  0.1697
  372TIP3    H222532   3.675   0.667   4.185 -1.7686  0.4197  0.9156
  373TIP3   OH222533   0.631   4.691  15.975  0.1327  0.4064 -0.4733
  373TIP3    H122534   0.683   4.767  15.953  0.5535  0.2000 -0.1951
  373TIP3    H222535   0.678   4.617  15.936  1.1928 -0.0424  1.5061
  374TIP3   OH222536   0.490   6.134   3.078 -0.1503  0.0393  0.0203
  374TIP3    H122537   0.513   6.051   3.036 -0.2737 -0.2264  0.4671
  374TIP3    H222538   0.398   6.148   3.053  0.5652  1.3045 -2.0960
  375TIP3   OH222539   2.400   0.697  12.990  0.1482  0.3569 -0.6246
  375TIP3    H122540   2.458   0.621  12.987  2.0826  1.7593 -0.6555
  375TIP3    H222541   2.372   0.703  13.082  0.3802 -0.0882 -0.5244
  376TIP3   OH222542   5.116   5.317  14.803 -0.5144  0.2994  0.2221
  376TIP3    H122543   5.080   5.404  14.820  1.1368  1.3178 -1.1263
  376TIP3    H222544   5.146   5.320  14.712  2.2131 -0.6622  0.9874
  377TIP3   OH222545   4.833   0.935   4.878  0.4773  0.1519 -0.0357
  377TIP3    H122546   4.807   0.942   4.786 -0.6148 -2.1064  0.0462
  377TIP3    H222547   4.920   0.894   4.876  0.7788  0.7649 -0.0429
  378TIP3   OH222548   2.926   3.667  11.453 -0.2066  0.0391 -0.3773
  378TIP3    H122549   2.931   3.736  11.519 -2.3977  0.5147 -0.6186
  378TIP3    H222550   3.004   3.679  11.399 -0.2474  1.9870 -0.0703
  379TIP3   OH222551   1.205   2.948   2.892  0.5258  0.8377  0.0238
  379TIP3    H122552   1.269   2.911   2.953 -0.8388  0.5559  1.3829
  379TIP3    H222553   1.121   2.933   2.936 -0.7005 -0.7553 -2.6408
  380TIP3   OH222554   3.368   4.576   0.502 -0.1042 -0.5280 -0.4035
  380TIP3    H122555   3.338   4.632   0.431 -0.0443  0.4566  0.3261
  380TIP3    H222556   3.328   4.491   0.485 -0.2272 -0.2610 -1.5069
  381TIP3   OH222557   0.173   4.604   2.185 -0.6259  0.0971 -0.0197
  381TIP3    H122558   0.081   4.593   2.209 -0.6478 -0.5575 -0.3949
  381TIP3    H222559   0.211   4.651   2.260 -0.8441 -1.3154  1.0071
  382TIP3   OH222560   4.969   6.138  11.299  0.4112 -0.7045 -0.0933
  382TIP3    H122561   4.878   6.111  11.308 -0.0235 -1.3820 -4.5884
  382TIP3    H222562   5.016   6.057  11.280  1.4367  0.0199 -0.7431
  383TIP3   OH222563   3.299   4.841   2.552 -0.2167  0.0410  0.6336
  383TIP3    H122564   3.379   4.789   2.555 -0.4606 -0.3915 -0.1202
  383TIP3    H222565   3.327   4.927   2.520  0.7349  1.5112  4.7629
  384TIP3   OH222566   5.566   6.233  12.272 -0.4263  0.3905 -0.2564
  384TIP3    H122567   5.553   6.237  12.177  0.1585  0.6511 -0.3251
  384TIP3    H222568   5.510   6.160  12.300 -0.0061 -0.1909 -0.9042
  385TIP3   OH222569   4.574   5.039   5.215  0.6815  0.0117  0.5770
  385TIP3    H122570   4.570   5.134   5.226 -0.9319  0.2871 -1.5832
  385TIP3    H222571   4.485   5.010   5.235  0.8418 -0.8564  0.0528
  386TIP3   OH222572   4.302   1.269  15.264  0.3988 -0.1970 -0.0980
  386TIP3    H122573   4.383   1.312  15.237 -0.1801  0.9764 -0.0138
  386TIP3    H222574   4.234   1.336  15.256 -0.9823 -1.7007 -2.1508
  387TIP3   OH222575   4.131   4.825  14.543  0.5010 -0.1179  0.6708
  387TIP3    H122576   4.159   4.745  14.587 -1.9140 -0.3138  2.0195
  387TIP3    H222577   4.134   4.893  14.610 -0.4168  0.2295  0.3841
  388TIP3   OH222578   4.709   0.942  14.956  0.0819  0.2181 -0.6563
  388TIP3    H122579   4.760   0.880  15.008  0.7056  0.4808 -0.9406
  388TIP3    H222580   4.622   0.941  14.996  0.9305  1.5348  1.3795
  389TIP3   OH222581   5.106   5.968  16.635 -0.2159 -0.0007 -0.1178
  389TIP3    H122582   5.019   5.944  16.604  0.4624 -1.7221 -0.8032
  389TIP3    H222583   5.090   6.016  16.716 -1.8094  0.0715 -0.4423
  390TIP3   OH222584   1.054   3.953  15.774 -0.1519  0.3468  0.6897
  390TIP3    H122585   1.049   3.895  15.698 -0.7298  0.9185  0.2815
  390TIP3    H222586   0.969   3.945  15.817 -0.3017  1.0195  0.5305
  391TIP3   OH222587   5.400   1.195   5.677  0.3367 -0.2878 -0.1020
  391TIP3    H122588   5.370   1.225   5.763  0.4193  0.3306 -0.2836
  391TIP3    H222589   5.411   1.101   5.687 -1.1147 -0.4478  0.1272
  392TIP3   OH222590   5.473   0.735  11.616  0.3716 -0.1407 -0.2809
  392TIP3    H122591   5.484   0.656  11.669 -2.9437  0.6891  1.9543
  392TIP3    H222592   5.396   0.716  11.561 -0.2252  1.3727  0.0023
  393TIP3   OH222593   3.169   1.203  14.628 -0.0657  0.2995  0.2108
  393TIP3    H122594   3.136   1.251  14.552  1.3052  0.3715 -0.3668
  393TIP3    H222595   3.092   1.190  14.683 -0.9253  1.0057 -0.7782
  394TIP3   OH222596   4.040   1.214  11.496  0.0568  0.2833  0.2554
  394TIP3    H122597   4.012   1.124  11.506 -1.5454  0.5386 -1.3389
  394TIP3    H222598   3.961   1.266  11.513  0.2446  1.2060 -1.4202
  395TIP3   OH222599   0.515   3.319   3.479 -0.3861 -0.0294 -0.0213
  395TIP3    H122600   0.472   3.235   3.462  0.1047  0.0218 -1.7072
  395TIP3    H222601   0.456   3.364   3.538 -1.2403 -1.0935 -0.0242
  396TIP3   OH222602   5.424   6.271   3.205  0.5764 -0.0997  0.0698
  396TIP3    H122603   5.403   6.177   3.208  0.3216 -0.0238  0.8271
  396TIP3    H222604   5.475   6.286   3.285 -0.3161  0.6223  0.5227
  397TIP3   OH222605   1.796   6.209   0.506  0.2079  0.1278 -0.3048
  397TIP3    H122606   1.859   6.281   0.513 -0.4437  0.7778 -0.7967
  397TIP3    H222607   1.726   6.245   0.451  0.1863 -1.1198 -1.1435
  398TIP3   OH222608   5.877   5.622   2.999  0.3732 -0.1432 -0.7483
  398TIP3    H122609   5.953   5.572   2.970 -2.2206 -3.9530 -1.5939
  398TIP3    H222610   5.869   5.602   3.092  0.5301  0.5015 -0.5898
  399TIP3   OH222611   1.960   2.991  12.502  0.2958  0.5014 -0.1488
  399TIP3    H122612   1.971   2.911  12.451 -1.3514  0.0334  0.1723
  399TIP3    H222613   2.006   2.974  12.584  0.1231 -0.0543 -0.1622
  400TIP3   OH222614   3.664   4.231   4.802  0.1291  0.2631  0.5095
  400TIP3    H122615   3.598   4.181   4.754  1.1164 -0.7359  0.1390
  400TIP3    H222616   3.738   4.237   4.741  0.9895 -0.0612  1.4929
  401TIP3   OH222617   6.112   5.016   1.917  0.3890  0.3783 -0.3696
  401TIP3    H122618   6.021   5.041   1.935  0.0548 -1.4573  0.7988
  401TIP3    H222619   6.146   4.987   2.002  2.1038  1.0788 -0.7764
  402TIP3   OH222620   0.274   3.094   5.334  0.2029  0.3270  0.3581
  402TIP3    H122621   0.355   3.123   5.292  0.0313  1.9587  1.1021
  402TIP3    H222622   0.299   3.074   5.424  0.0158 -0.4107  0.2521
  403TIP3   OH222623   4.312   0.059  14.785 -0.3799 -0.3451  0.1555
  403TIP3    H122624   4.405   0.039  14.777 -0.1194  0.4626  1.0182
  403TIP3    H222625   4.284   0.012  14.864  0.1677  2.2658  2.0227
  404TIP3   OH222626   0.719   0.625   5.957  0.5682  0.0792  0.4518
  404TIP3    H122627   0.792   0.564   5.960 -0.3265 -1.0747 -0.3142
  404TIP3    H222628   0.645   0.575   5.992  0.2561  1.4203  1.8167
  405TIP3   OH222629   3.862   1.576  16.243  0.0829  0.1922 -0.1224
  405TIP3    H122630   3.815   1.498  16.215  0.5410 -0.2082  0.2180
  405TIP3    H222631   3.802   1.619  16.305 -0.4941  0.5347 -0.8958
  406TIP3   OH222632   1.228   5.404  15.815 -0.1126  0.0568  0.0412
  406TIP3    H122633   1.206   5.496  15.802  0.6834  0.1323 -0.8949
  406TIP3    H222634   1.318   5.406  15.848 -0.3974 -0.3571  0.8614
  407TIP3   OH222635   2.833   4.153   3.712  0.9241 -0.1335 -0.3411
  407TIP3    H122636   2.786   4.099   3.650  0.7308  0.7042 -0.9437
  407TIP3    H222637   2.789   4.137   3.796  0.0495  0.0508 -0.7491
  408TIP3   OH222638   1.706   3.609   5.195 -0.2796  0.6517 -0.9613
  408TIP3    H122639   1.767   3.589   5.265  1.5753 -0.2086 -2.7316
  408TIP3    H222640   1.624   3.566   5.221  0.5067 -0.0658  0.4107
  409TIP3   OH222641   6.525   5.771  17.176 -0.1216 -0.2706  0.2759
  409TIP3    H122642   6.528   5.738  17.086  2.5031 -0.5765  0.3861
  409TIP3    H222643   6.490   5.699  17.228  0.2974 -0.8405 -0.2320
  410TIP3   OH222644   2.842   3.485  13.536 -0.5850  0.0672  0.5284
  410TIP3    H122645   2.852   3.570  13.578 -0.0289 -0.5299  1.6787
  410TIP3    H222646   2.748   3.471  13.531 -0.6913  0.9343 -0.0933
  411TIP3   OH222647   0.455   1.766  16.767 -0.4277  0.1784 -0.4695
  411TIP3    H122648   0.481   1.847  16.723  0.6333  0.2373  0.2174
  411TIP3    H222649   0.363   1.778  16.789 -0.7314  0.5207 -1.8214
  412TIP3   OH222650   0.027   6.099  16.038 -0.2324 -0.8560  0.2465
  412TIP3    H122651   0.104   6.044  16.055  0.5240  0.1856  0.2953
  412TIP3    H222652   0.063   6.182  16.008 -1.3780 -0.6242 -0.5617
  413TIP3   OH222653   0.624   1.134  16.716 -0.3849 -0.2475  0.2643
  413TIP3    H122654   0.543   1.181  16.736 -0.8180 -1.1674  0.7728
  413TIP3    H222655   0.613   1.106  16.624  0.7900  2.3734 -0.7561
  414TIP3   OH222656   3.715   1.874   0.766 -0.4519  0.7040  0.4421
  414TIP3    H122657   3.766   1.820   0.705  0.7552  3.2328 -0.9447
  414TIP3    H222658   3.705   1.819   0.844  1.1746 -1.2842 -0.6394
  415TIP3   OH222659   6.184   6.108  13.462 -0.2956  0.2774  0.5230
  415TIP3    H122660   6.277   6.109  13.438  0.1067 -0.7003  1.9489
  415TIP3    H222661   6.165   6.017  13.483 -1.1793  0.7193  1.7351
  416TIP3   OH222662   0.197   6.604   4.903 -0.1212 -0.3482  0.3849
  416TIP3    H122663   0.108   6.579   4.928 -0.6367  0.1577 -0.8959
  416TIP3    H222664   0.253   6.544   4.953 -1.2161 -1.5897  0.1754
  417TIP3   OH222665   0.150   5.139   3.736  0.2846 -0.0183  0.4832
  417TIP3    H122666   0.107   5.218   3.767 -0.1904 -0.5391  1.1775
  417TIP3    H222667   0.112   5.123   3.649  0.0741  0.2744  0.5236
  418TIP3   OH222668   0.451   1.478   0.623  0.4306  0.7792 -0.2538
  418TIP3    H122669   0.410   1.396   0.653  2.4111 -1.5801 -3.3629
  418TIP3    H222670   0.524   1.492   0.683 -0.3980  0.7841  0.7883
  419TIP3   OH222671   3.658   0.095  14.701 -0.0857 -0.0500 -0.0263
  419TIP3    H122672   3.566   0.083  14.679 -0.0510 -1.2304  0.3930
  419TIP3    H222673   3.657   0.123  14.793 -0.0206 -0.0486 -0.0261
  420TIP3   OH222674   5.489   5.652  13.682 -0.3198 -0.1915 -0.3001
  420TIP3    H122675   5.427   5.720  13.656 -1.7294 -1.9083 -1.6857
  420TIP3    H222676   5.573   5.680  13.645 -0.6664  1.2211 -0.0525
  421TIP3   OH222677   0.790   0.807   4.472 -0.0086 -0.0026  0.3103
  421TIP3    H122678   0.821   0.717   4.478 -0.6497 -0.2895 -0.4817
  421TIP3    H222679   0.695   0.800   4.474 -0.0639  0.6484  0.1928
  422TIP3   OH222680   1.967   2.821  16.996 -0.1279  0.2684 -0.3225
  422TIP3    H122681   2.045   2.767  16.978 -0.5932 -0.4577 -0.2084
  422TIP3    H222682   1.942   2.797  17.085 -0.0092  1.1167 -0.0472
  423TIP3   OH222683   2.829   4.014  15.172 -0.2914  0.3830  0.4034
  423TIP3    H122684   2.899   4.080  15.164 -1.6685  1.8160 -0.5588
  423TIP3    H222685   2.873   3.931  15.155  1.1219  1.2721 -0.5928
  424TIP3   OH222686   1.444   6.627   0.348 -0.2658  0.5138 -0.2095
  424TIP3    H122687   1.512   6.560   0.344 -1.6885 -0.9578 -0.4776
  424TIP3    H222688   1.366   6.585   0.312 -1.3361  2.1613  0.0700
  425TIP3   OH222689   4.662   4.836   6.010  0.2658  0.6233 -0.2576
  425TIP3    H122690   4.605   4.867   6.081 -0.5873 -0.5064 -0.4208
  425TIP3    H222691   4.681   4.915   5.959 -0.5875  1.1489  0.2078
  426TIP3   OH222692   1.293   0.324   5.545 -0.1012 -1.0224  0.6509
  426TIP3    H122693   1.257   0.359   5.626 -0.1815 -1.5027  0.8277
  426TIP3    H222694   1.236   0.250   5.523 -1.4516  0.4246 -1.0509
  427TIP3   OH222695   4.441   5.546   2.508  0.2908 -0.7091 -0.4185
  427TIP3    H122696   4.427   5.452   2.493 -0.5721 -0.4234 -1.5414
  427TIP3    H222697   4.513   5.549   2.570  2.0095 -2.1067 -2.1943
  428TIP3   OH222698   4.775   2.960   5.298 -1.1017 -0.4235 -0.6958
  428TIP3    H122699   4.846   2.897   5.313  0.1647  1.1381  0.1720
  428TIP3    H222700   4.763   2.959   5.203 -0.9300 -1.7588 -0.7269
  429TIP3   OH222701   6.369   1.970   3.085 -0.2333  0.1300 -0.0600
  429TIP3    H122702   6.420   2.033   3.135 -0.3226  1.0481 -1.0915
  429TIP3    H222703   6.280   2.006   3.084 -0.3505 -0.1603 -0.4237
  430TIP3   OH222704   3.672   6.140   1.491  0.3848 -0.1541  0.7486
  430TIP3    H122705   3.694   6.077   1.560  0.5878 -0.1221  0.7136
  430TIP3    H222706   3.729   6.117   1.419 -0.7385 -1.0290  0.1051
  431TIP3   OH222707   1.343   6.413  16.074  0.5807 -0.7681 -0.1606
  431TIP3    H122708   1.311   6.502  16.090  0.7007 -0.5791 -0.9395
  431TIP3    H222709   1.344   6.372  16.161  0.1230 -0.1463  0.1487
  432TIP3   OH222710   6.062   0.042  15.101 -0.0267  0.7922 -0.6729
  432TIP3    H122711   6.017   0.041  15.016 -0.7894 -0.7627 -0.2885
  432TIP3    H222712   6.101  -0.045  15.108 -1.3640  0.2857  1.2783
  433TIP3   OH222713   3.703   2.278  16.711  0.2716  1.6599 -0.6726
  433TIP3    H122714   3.643   2.241  16.646 -0.9620 -0.1200  1.3325
  433TIP3    H222715   3.650   2.342  16.759  0.5164  1.4241 -0.0788
  434TIP3   OH222716   4.066   3.385   4.466 -0.5721 -0.0291  0.4112
  434TIP3    H122717   4.103   3.311   4.418  0.3757 -0.2694  1.4521
  434TIP3    H222718   4.092   3.369   4.557 -2.0880  0.5418  0.9716
  435TIP3   OH222719   3.308   5.003   3.198 -0.2517 -0.1856  0.2017
  435TIP3    H122720   3.234   5.055   3.165 -0.3274 -0.7036 -0.4551
  435TIP3    H222721   3.308   5.020   3.293  0.9089  2.5396 -0.1760
  436TIP3   OH222722   6.153   4.689   2.023 -0.2106 -0.3658  0.0630
  436TIP3    H122723   6.242   4.655   2.031 -0.4243 -0.6398  1.5691
  436TIP3    H222724   6.135   4.731   2.107 -0.8653  1.3086 -0.8554
  437TIP3   OH222725   0.788   2.525   2.194  0.0179 -0.2721  0.4819
  437TIP3    H122726   0.755   2.610   2.165  1.4978 -0.0159 -0.5835
  437TIP3    H222727   0.709   2.473   2.209 -0.9208  0.4515 -1.4847
  438TIP3   OH222728   3.520   0.414   0.610 -0.4927  0.2848  0.2908
  438TIP3    H122729   3.461   0.467   0.557 -0.4933 -1.1200 -1.1914
  438TIP3    H222730   3.584   0.379   0.548 -1.1047 -2.2563  0.9663
  439TIP3   OH222731   3.003   5.076  11.850 -0.2498  0.0199 -0.5402
  439TIP3    H122732   2.929   5.053  11.793 -0.1140  1.5570 -1.4042
  439TIP3    H222733   3.080   5.059  11.797  0.0346 -1.1825  0.2158
  440TIP3   OH222734   3.130   3.056  17.095 -0.2229 -0.4071  0.2864
  440TIP3    H122735   3.198   2.990  17.094 -0.5917 -0.8171  1.1943
  440TIP3    H222736   3.151   3.111  17.170  0.6340  1.1292 -1.0067
  441TIP3   OH222737   6.585   4.754   2.967  0.1304 -0.4486 -0.0080
  441TIP3    H122738   6.639   4.791   2.897 -1.6015  1.3400 -0.5112
  441TIP3    H222739   6.502   4.733   2.925 -1.4251  1.8689  1.6475
  442TIP3   OH222740   4.158   2.761  16.403  0.0004  0.0463 -0.1314
  442TIP3    H122741   4.136   2.759  16.496  1.3187  0.1539  0.2027
  442TIP3    H222742   4.079   2.730  16.359 -0.7407  0.2610  0.9983
  443TIP3   OH222743   6.377   2.041   4.048 -0.1512  0.0273 -0.2086
  443TIP3    H122744   6.464   2.023   4.013 -0.1228  0.0210 -0.1345
  443TIP3    H222745   6.366   1.979   4.120 -0.6149 -0.6730 -0.8582
  444TIP3   OH222746   2.093   5.949  11.192 -0.1084  0.1774 -0.0449
  444TIP3    H122747   2.066   6.040  11.201  0.1488  0.0720  2.5257
  444TIP3    H222748   2.175   5.953  11.142  0.9833  1.6175  1.7171
  445TIP3   OH222749   5.861   3.145   4.067 -0.0816 -0.5995  0.7599
  445TIP3    H122750   5.890   3.237   4.069  0.3919 -0.7581  1.3527
  445TIP3    H222751   5.778   3.148   4.019  0.5118 -0.0207 -0.2759
  446TIP3   OH222752   6.756   5.471   0.339 -0.3269 -0.0004  0.6866
  446TIP3    H122753   6.702   5.415   0.396 -0.0854 -1.5357 -0.5386
  446TIP3    H222754   6.809   5.409   0.289 -1.8195  1.1404 -2.5484
  447TIP3   OH222755   2.701   0.733  11.547 -0.0592 -0.3103 -0.1062
  447TIP3    H122756   2.773   0.679  11.513 -0.0876  0.2223 -1.0642
  447TIP3    H222757   2.636   0.670  11.578 -0.3620 -0.8720 -1.7581
  448TIP3   OH222758   6.029   2.425  10.315 -0.1739  0.5061 -0.0260
  448TIP3    H122759   6.097   2.474  10.361  0.0190  0.6379 -0.4427
  448TIP3    H222760   5.948   2.474  10.331 -0.0527  0.7283 -0.1012
  449TIP3   OH222761   0.692   0.854  13.338 -0.5104 -0.4522  0.4164
  449TIP3    H122762   0.663   0.879  13.426  0.4763 -0.8063  0.8544
  449TIP3    H222763   0.788   0.854  13.343 -0.4468 -1.0300 -0.4991
  450TIP3   OH222764   5.711   3.727   2.737  0.2749 -0.0861 -0.3391
  450TIP3    H122765   5.685   3.647   2.691 -2.0832 -0.4849  1.5169
  450TIP3    H222766   5.643   3.791   2.715  1.3119  0.9683 -0.5708
  451TIP3   OH222767   3.004   2.293   5.003 -0.2113 -0.4539  0.2952
  451TIP3    H122768   2.972   2.383   4.993 -1.1814 -0.8614 -0.4646
  451TIP3    H222769   3.040   2.291   5.092  2.1463  1.3534 -0.5050
  452TIP3   OH222770   4.994   1.152  14.259 -0.4252  0.0995  0.1095
  452TIP3    H122771   4.954   1.164  14.173 -2.8824  0.3814  1.2096
  452TIP3    H222772   4.925   1.175  14.321  0.2822 -2.8787  2.2214
  453TIP3   OH222773   2.103   4.663   1.412 -0.0367 -0.2754 -0.4479
  453TIP3    H122774   2.131   4.662   1.503  0.8626  0.0931 -0.7100
  453TIP3    H222775   2.058   4.747   1.402 -0.6945 -0.5901 -0.1899
  454TIP3   OH222776   0.599   1.987  14.413  0.3009 -0.2099 -0.3891
  454TIP3    H122777   0.600   2.080  14.437  1.3598 -0.4561  0.5794
  454TIP3    H222778   0.656   1.945  14.476 -0.6227 -1.6302 -0.4536
  455TIP3   OH222779   5.114   3.946   5.887 -0.0570  0.5680 -0.2294
  455TIP3    H122780   5.180   4.007   5.853 -1.3869  1.2137 -1.7798
  455TIP3    H222781   5.060   4.000   5.945  0.2110  0.2739  0.2942
  456TIP3   OH222782   4.562   5.300   5.276  0.2907 -0.1479  0.3444
  456TIP3    H122783   4.550   5.326   5.368 -2.4941  0.7790 -0.1794
  456TIP3    H222784   4.554   5.382   5.227 -0.6997 -0.9360 -0.8561
  457TIP3   OH222785   5.759   0.391  12.485 -1.0080  0.4869 -0.5586
  457TIP3    H122786   5.788   0.408  12.575 -0.0221 -0.7606 -0.6134
  457TIP3    H222787   5.840   0.384  12.435 -1.5638  2.2395 -1.7916
  458TIP3   OH222788   3.105   1.749   4.768 -0.0509  0.0388 -0.0172
  458TIP3    H122789   3.106   1.766   4.863  0.1500 -0.6338  0.1030
  458TIP3    H222790   3.130   1.833   4.729 -0.3455  0.3845  0.5138
  459TIP3   OH222791   3.316   5.506  16.730  0.0968 -0.0356  0.0931
  459TIP3    H122792   3.333   5.580  16.671 -0.9358 -0.3973 -0.6862
  459TIP3    H222793   3.402   5.484  16.765  0.7225  0.3044 -1.1595
  460TIP3   OH222794   0.510   2.228   1.596 -0.0965  0.1020  0.1443
  460TIP3    H122795   0.596   2.261   1.570 -0.9089  1.6904 -0.6215
  460TIP3    H222796   0.448   2.295   1.567 -1.5735 -0.8205  1.0333
  461TIP3   OH222797   2.875   5.575   2.244  0.0788 -0.4386 -0.0126
  461TIP3    H122798   2.970   5.563   2.249  0.1159 -0.1267  0.0093
  461TIP3    H222799   2.840   5.489   2.270  0.3557 -0.6725 -0.4005
  462TIP3   OH222800   0.211   4.803   5.825 -0.6746  0.4709  0.0305
  462TIP3    H122801   0.293   4.780   5.782  0.1790 -0.8551  2.1698
  462TIP3    H222802   0.143   4.764   5.770  0.4098 -1.9916  0.3174
  463TIP3   OH222803   1.579   6.467  12.526  0.3003  0.0077  0.0243
  463TIP3    H122804   1.563   6.539  12.587  1.8999  0.6467 -0.2530
  463TIP3    H222805   1.615   6.397  12.581  4.8645  1.6697 -0.3905
  464TIP3   OH222806   3.988   0.052   3.658 -0.0589  0.1350 -0.0729
  464TIP3    H122807   4.079   0.029   3.675  0.0677 -0.1928 -1.1037
  464TIP3    H222808   3.943   0.036   3.741  0.0465 -3.6698 -0.5402
  465TIP3   OH222809   6.768   1.297   4.892 -0.3109  0.2995  0.0339
  465TIP3    H122810   6.846   1.245   4.909 -0.9053 -0.3099  0.9939
  465TIP3    H222811   6.784   1.337   4.807  1.7946  1.5710  0.9553
  466TIP3   OH222812   2.858   2.140   3.015  0.8948 -0.0517 -0.3334
  466TIP3    H122813   2.870   2.226   2.975 -2.0801  0.1353 -1.0267
  466TIP3    H222814   2.854   2.079   2.941  2.5258 -0.7628  0.1305
  467TIP3   OH222815   3.215   6.761   1.539 -0.0984 -0.3706 -0.5629
  467TIP3    H122816   3.306   6.754   1.568 -0.2144  1.1873  0.2903
  467TIP3    H222817   3.166   6.783   1.619 -0.4361  4.0394 -1.7116
  468TIP3   OH222818   6.160   1.495   4.758  0.1947 -0.3713 -0.6399
  468TIP3    H122819   6.206   1.436   4.818  2.3617  0.1067 -1.7200
  468TIP3    H222820   6.068   1.490   4.785  1.0170 -0.1968  2.6845
  469TIP3   OH222821   3.614   6.291  15.684  0.0173  0.0585 -0.5480
  469TIP3    H122822   3.545   6.228  15.663 -2.9508  2.3225  1.5896
  469TIP3    H222823   3.681   6.239  15.728 -1.1239 -1.9845 -1.1036
  470TIP3   OH222824   2.334   0.035   6.116 -0.1317 -0.2082 -0.1469
  470TIP3    H122825   2.400  -0.003   6.174  0.8563 -0.5352 -1.4443
  470TIP3    H222826   2.281  -0.040   6.088  0.3917 -0.3017 -0.9095
  471TIP3   OH222827   4.919   1.000  14.586  0.0238  0.0320  0.4048
  471TIP3    H122828   4.870   1.041  14.658 -0.5615  0.7951 -0.3964
  471TIP3    H222829   5.010   1.004  14.613  0.0779  2.5974  0.0630
  472TIP3   OH222830   1.521   5.142  14.300 -0.0009 -0.2780 -0.1662
  472TIP3    H122831   1.590   5.176  14.244 -0.3445 -0.4006 -0.6742
  472TIP3    H222832   1.461   5.216  14.313  0.2859 -0.1336  0.3836
  473TIP3   OH222833   5.451   4.682   4.231  0.1255  0.3094  0.4612
  473TIP3    H122834   5.518   4.730   4.182 -0.1289  1.0348  0.8067
  473TIP3    H222835   5.469   4.704   4.323  0.0662 -0.3434  0.6341
  474TIP3   OH222836   4.141   0.112  14.542 -0.2683  0.3007  0.0658
  474TIP3    H122837   4.206   0.083  14.606  1.0411  0.0437 -1.3174
  474TIP3    H222838   4.074   0.044  14.543  0.3354 -0.3070  0.3136
  475TIP3   OH222839   6.423   0.352   5.419  0.4097  0.3690  0.1087
  475TIP3    H122840   6.507   0.315   5.393 -0.4285 -2.1510  0.6706
  475TIP3    H222841   6.359   0.309   5.362 -0.6380  1.1131  0.6757
  476TIP3   OH222842   1.447   6.039  11.071  0.2518  0.0642  0.4626
  476TIP3    H122843   1.507   6.005  11.004 -0.0715  1.9985 -0.9045
  476TIP3    H222844   1.360   6.014  11.040  0.1023  0.9579  0.1093
  477TIP3   OH222845   4.513   5.110   0.082 -0.3546 -0.0334 -0.7653
  477TIP3    H122846   4.462   5.032   0.062 -0.5329 -0.1085 -0.0503
  477TIP3    H222847   4.554   5.091   0.166 -1.6063  1.1953  0.1832
  478TIP3   OH222848   6.346   3.693   4.828 -0.2436 -0.1490 -0.0600
  478TIP3    H122849   6.288   3.618   4.821 -0.2747 -0.2241  0.9048
  478TIP3    H222850   6.288   3.768   4.840 -0.1729 -0.1343  0.2020
  479TIP3   OH222851   2.823   5.655   6.227  0.1257  1.0897  0.1611
  479TIP3    H122852   2.880   5.579   6.213  0.5022  0.9526  2.1397
  479TIP3    H222853   2.878   5.718   6.273 -0.7524  1.7977  0.2678
  480TIP3   OH222854   0.392   4.524  16.921  0.0704  0.5195  0.2458
  480TIP3    H122855   0.306   4.487  16.899 -0.8027  1.8761  1.2031
  480TIP3    H222856   0.384   4.617  16.901  0.3269  1.2079  2.9064
  481TIP3   OH222857   3.465   2.372  16.363  0.2828 -0.5377 -0.2645
  481TIP3    H122858   3.534   2.308  16.345  0.9217 -0.3473  1.3760
  481TIP3    H222859   3.391   2.320  16.393 -0.0096 -0.6740 -1.1973
  482TIP3   OH222860   1.355   3.649  16.038  0.4038 -0.3520 -0.1050
  482TIP3    H122861   1.331   3.645  16.130  2.3696 -2.2830  0.4156
  482TIP3    H222862   1.308   3.724  16.003 -0.8292  0.0729  2.3283
  483TIP3   OH222863   4.534   4.870   6.237 -0.1733  0.1248 -0.3517
  483TIP3    H122864   4.472   4.807   6.274  0.2418 -0.3423 -0.4344
  483TIP3    H222865   4.507   4.954   6.273 -0.7267 -0.1026 -0.2223
  484TIP3   OH222866   2.653   6.340  14.847 -0.8462 -0.3944  0.2101
  484TIP3    H122867   2.563   6.356  14.819 -0.6277 -0.0898 -0.3485
  484TIP3    H222868   2.692   6.289  14.775  0.0693  1.4241 -0.6551
  485TIP3   OH222869   3.023   4.608   2.020 -0.2647 -0.3234 -0.2667
  485TIP3    H122870   2.928   4.615   2.006 -0.5927 -0.5587  1.6066
  485TIP3    H222871   3.044   4.517   2.000 -0.6679 -0.5948  0.5231
  486TIP3   OH222872   0.740   5.668   6.421  0.2575  0.1613 -0.0178
  486TIP3    H122873   0.657   5.622   6.430  0.1652  0.3494  0.0937
  486TIP3    H222874   0.769   5.683   6.511  0.6027 -0.2472 -0.0560
  487TIP3   OH222875   3.316   2.922  14.818  0.3169  0.7851 -0.1339
  487TIP3    H122876   3.297   2.882  14.733  0.6164 -0.5782  0.4206
  487TIP3    H222877   3.324   2.848  14.879  0.1176  1.7317  1.0859
  488TIP3   OH222878   1.665   6.088  15.296 -0.4846 -0.0912  0.1919
  488TIP3    H122879   1.620   6.125  15.219 -0.8247 -2.4674 -0.8366
  488TIP3    H222880   1.710   6.163  15.335  0.0659  1.1553 -2.5786
  489TIP3   OH222881   1.572   1.654  17.247  0.2700 -0.3661 -0.3134
  489TIP3    H122882   1.553   1.719  17.180  0.4343 -1.8210 -1.8357
  489TIP3    H222883   1.590   1.705  17.326 -2.2886  1.3416 -0.7109
  490TIP3   OH222884   6.610   0.299  12.282  0.0316 -0.8667  0.6071
  490TIP3    H122885   6.627   0.245  12.359  1.9048  0.4532  1.1812
  490TIP3    H222886   6.648   0.384  12.303 -1.1837  0.1368 -1.0054
  491TIP3   OH222887   6.597   6.232   4.732  0.1388  0.0968 -1.1272
  491TIP3    H122888   6.671   6.293   4.732 -0.4992  0.9007 -2.1504
  491TIP3    H222889   6.520   6.288   4.747 -0.3383 -0.6245 -0.8236
  492TIP3   OH222890   4.352   0.899  15.890  0.0128  0.0837 -0.6745
  492TIP3    H122891   4.292   0.861  15.826 -0.0789 -0.0401 -0.5144
  492TIP3    H222892   4.295   0.943  15.954 -0.0243 -1.6948  0.5698
  493TIP3   OH222893   5.364   2.217  10.980 -0.3303  0.5290  0.0299
  493TIP3    H122894   5.368   2.257  10.893  0.7715  0.9720  0.2639
  493TIP3    H222895   5.310   2.139  10.968  0.6212  0.0259 -1.2890
  494TIP3   OH222896   0.539   1.448  14.061  0.0869  0.0723  0.2464
  494TIP3    H122897   0.495   1.465  14.145 -0.8776  0.2298 -0.2732
  494TIP3    H222898   0.517   1.523  14.007 -0.9999 -0.9631 -0.8139
  495TIP3   OH222899   1.327   5.845   0.433 -0.2556  0.2042 -0.5545
  495TIP3    H122900   1.321   5.781   0.504 -0.0567  1.6882  0.8814
  495TIP3    H222901   1.380   5.916   0.470 -1.6762  1.8471 -1.5463
  496TIP3   OH222902   6.015   3.621   1.178 -0.3090 -0.3722  0.0073
  496TIP3    H122903   6.019   3.660   1.265  2.4032 -0.5388  0.0543
  496TIP3    H222904   6.036   3.528   1.193 -0.2700 -0.4953 -0.7735
  497TIP3   OH222905   0.901   3.234  14.947 -0.6192 -0.2091 -0.4280
  497TIP3    H122906   0.841   3.163  14.971 -0.0442 -0.5584  0.0165
  497TIP3    H222907   0.879   3.254  14.856 -0.2888 -1.4925 -0.8189
  498TIP3   OH222908   2.249   4.321   1.645  0.1780  0.3407  0.1607
  498TIP3    H122909   2.288   4.233   1.645 -0.8151 -0.1132  0.6886
  498TIP3    H222910   2.297   4.368   1.713 -0.6736 -0.4468  1.3335
  499TIP3   OH222911   1.232   0.413   6.781  0.6805 -0.3519 -0.1182
  499TIP3    H122912   1.162   0.418   6.846 -0.0234 -0.1609 -0.8700
  499TIP3    H222913   1.204   0.346   6.720  0.5076  0.6462 -1.1623
  500TIP3   OH222914   1.908   4.199   5.531  0.7154 -0.3916  0.1409
  500TIP3    H122915   1.932   4.154   5.450  1.2581 -1.9720  1.1380
  500TIP3    H222916   1.812   4.192   5.534  0.7367 -0.7971 -0.0870
  501TIP3   OH222917   4.274   2.951   1.875 -0.0637 -0.0339 -1.0316
  501TIP3    H122918   4.297   2.970   1.784  0.5487 -0.5292 -0.9854
  501TIP3    H222919   4.344   2.991   1.926 -0.4441  0.3034 -0.7705
  502TIP3   OH222920   2.017   3.608  16.414  0.3283  0.3779 -0.1289
  502TIP3    H122921   2.033   3.514  16.401  0.6926 -0.1158  3.0332
  502TIP3    H222922   1.972   3.636  16.334  0.6073 -2.3718 -1.3638
  503TIP3   OH222923   3.900   5.229   2.308  0.1538  0.4637 -0.3552
  503TIP3    H122924   3.912   5.306   2.364 -1.3056  0.9981 -0.7446
  503TIP3    H222925   3.893   5.155   2.369  0.1450  0.8279  0.0871
  504TIP3   OH222926   3.870   5.579   0.548  0.1178  0.0853 -0.0693
  504TIP3    H122927   3.849   5.649   0.486  1.7560 -0.6533 -1.5475
  504TIP3    H222928   3.837   5.499   0.506  0.4133 -0.3121  0.4479
  505TIP3   OH222929   2.799   6.383  15.325 -0.8467  0.9987 -0.0422
  505TIP3    H122930   2.840   6.333  15.255 -1.1324  1.4392 -0.5299
  505TIP3    H222931   2.785   6.470  15.287  1.5926  2.1537  1.4495
  506TIP3   OH222932   2.846   0.447  14.825 -0.7979 -0.3829 -0.1803
  506TIP3    H122933   2.792   0.513  14.784  0.2713  0.0353 -0.9667
  506TIP3    H222934   2.889   0.402  14.753  2.7599  1.7458  0.3421
  507TIP3   OH222935   5.249   6.425   1.786 -0.6230 -0.7847 -0.3800
  507TIP3    H122936   5.331   6.470   1.764 -0.1607 -1.0835  0.6500
  507TIP3    H222937   5.196   6.491   1.830 -1.9735  0.1148 -3.1480
  508TIP3   OH222938   2.224   5.900   2.311 -0.1113  0.4514 -0.0848
  508TIP3    H122939   2.296   5.963   2.316  0.2074  0.0444  0.6602
  508TIP3    H222940   2.220   5.861   2.399  0.7907 -1.7698 -0.9510
  509TIP3   OH222941   3.885   6.675  12.334 -0.3445  0.2052  0.4231
  509TIP3    H122942   3.875   6.610  12.403 -1.5134  0.1682  0.2360
  509TIP3    H222943   3.855   6.757  12.374 -0.2243  0.3483  0.2227
  510TIP3   OH222944   1.416   5.597   5.075  0.0562  0.8335  0.6541
  510TIP3    H122945   1.388   5.627   5.161 -3.1137  0.4379 -0.1047
  510TIP3    H222946   1.413   5.676   5.020  2.4203  1.1630  0.8795
  511TIP3   OH222947   0.287   6.502   4.359 -0.1354  0.1742 -0.3873
  511TIP3    H122948   0.347   6.542   4.295  0.1267  1.0453  0.3738
  511TIP3    H222949   0.200   6.517   4.323  0.0706 -1.7772 -1.8960
  512TIP3   OH222950   4.646   4.114  13.570 -0.6629  0.1994 -0.9397
  512TIP3    H122951   4.628   4.021  13.556 -1.0126 -0.0538  0.9557
  512TIP3    H222952   4.669   4.147  13.483 -1.5696 -1.4193 -1.8441
  513TIP3   OH222953   3.652   4.959   3.294  0.3258 -0.4276  0.1237
  513TIP3    H122954   3.654   4.926   3.383 -1.0945 -2.2333 -0.4675
  513TIP3    H222955   3.610   5.045   3.301 -2.2613 -1.6745  0.9260
  514TIP3   OH222956   1.754   3.706  12.904 -0.4245 -0.1201 -0.6307
  514TIP3    H122957   1.775   3.693  12.997  1.2917 -0.7968 -1.0816
  514TIP3    H222958   1.826   3.759  12.870 -0.9425 -0.0251 -1.6162
  515TIP3   OH222959   4.140   4.466   5.300 -0.2699 -0.0458  0.2159
  515TIP3    H122960   4.120   4.476   5.207  0.8204  0.4673  0.0225
  515TIP3    H222961   4.100   4.543   5.341  0.6487  0.5977 -0.0663
  516TIP3   OH222962   2.451   0.514   1.532 -0.4850 -0.8755 -0.0209
  516TIP3    H122963   2.398   0.531   1.454 -2.6705 -0.4667  1.4606
  516TIP3    H222964   2.454   0.419   1.538 -2.5377 -0.9508  0.7323
  517TIP3   OH222965   2.034   4.086  16.941  0.0638  0.0841 -0.0113
  517TIP3    H122966   2.113   4.032  16.932 -0.5482 -0.8164 -0.0381
  517TIP3    H222967   2.026   4.102  17.035  1.3123  1.7794 -0.1348
  518TIP3   OH222968   1.812   5.309  16.943  0.0764 -0.1005 -0.1649
  518TIP3    H122969   1.790   5.237  17.002  1.2194 -0.3619 -0.0413
  518TIP3    H222970   1.818   5.386  17.000  1.6253 -0.4313  0.1712
  519TIP3   OH222971   2.951   5.953  12.668 -0.6321  0.6372  0.1885
  519TIP3    H122972   2.880   6.004  12.708  0.2265  1.2975  0.9289
  519TIP3    H222973   2.907   5.883  12.620 -1.7898  1.2150  0.3747
  520TIP3   OH222974   2.367   0.942   6.724  0.3288  0.1458 -0.4940
  520TIP3    H122975   2.426   1.015   6.708  0.4840  0.5639  1.6577
  520TIP3    H222976   2.425   0.866   6.735  0.4666  0.4278  0.9306
  521TIP3   OH222977   6.040   4.234   3.663 -0.0696 -0.1091 -0.1011
  521TIP3    H122978   6.096   4.249   3.740 -0.8318 -1.1587  0.6854
  521TIP3    H222979   6.097   4.191   3.600  0.3736  0.1011  0.1472
  522TIP3   OH222980   1.285   0.945   3.553  0.5011 -0.0688  0.7235
  522TIP3    H122981   1.239   1.029   3.549  0.4834 -0.0000  2.0798
  522TIP3    H222982   1.373   0.964   3.521 -0.1351 -0.0472 -1.1926
  523TIP3   OH222983   3.737   2.281  10.805  0.0800  0.5597  0.1643
  523TIP3    H122984   3.784   2.294  10.722 -0.5754  0.3481 -0.2453
  523TIP3    H222985   3.767   2.352  10.861  0.8188  0.4827 -0.1230
  524TIP3   OH222986   1.760   4.551  12.635  0.0381  0.0450  0.2771
  524TIP3    H122987   1.709   4.629  12.612  0.9494  0.4012 -0.5963
  524TIP3    H222988   1.804   4.575  12.716 -0.8495 -0.1192  0.8210
  525TIP3   OH222989   2.026   0.540   5.932  0.1946 -0.4769  0.3708
  525TIP3    H122990   2.098   0.478   5.919  1.3373  0.9272 -0.2264
  525TIP3    H222991   1.997   0.560   5.843 -0.7139 -0.7574  0.5974
  526TIP3   OH222992   3.124   2.714  15.852 -0.1302 -0.0496 -0.1676
  526TIP3    H122993   3.180   2.792  15.846  0.7596 -0.6374  0.3114
  526TIP3    H222994   3.055   2.729  15.787 -1.6158  2.4455  1.7517
  527TIP3   OH222995   4.779   4.144  17.105  0.2233 -0.0668  0.7706
  527TIP3    H122996   4.850   4.159  17.043  0.3264 -0.6283  0.7496
  527TIP3    H222997   4.810   4.071  17.159 -0.5257 -0.6131  0.4715
  528TIP3   OH222998   6.318   4.050   5.151 -0.6806 -0.2527 -0.5330
  528TIP3    H122999   6.328   3.955   5.162  1.8956 -0.2444 -2.0091
  528TIP3    H223000   6.264   4.077   5.225  0.3252 -2.5973  1.1788
  529TIP3   OH223001   2.967   1.263   5.721 -0.0465 -0.5565 -0.2969
  529TIP3    H123002   2.890   1.231   5.675 -0.2691 -0.3780 -0.0470
  529TIP3    H223003   3.003   1.186   5.765  1.8465 -1.4385 -3.0719
  530TIP3   OH223004   3.990   3.798  16.235 -0.4993 -0.6219  0.4072
  530TIP3    H123005   3.921   3.863  16.235  0.8176  0.8569 -0.9865
  530TIP3    H223006   4.051   3.827  16.304 -1.0689 -1.7510  1.4278
  531TIP3   OH223007   5.650   5.205  13.657  0.1896 -0.1888 -0.3368
  531TIP3    H123008   5.722   5.236  13.712 -0.7356  0.2403  0.6657
  531TIP3    H223009   5.578   5.266  13.674 -0.6094 -0.9594 -0.8540
  532TIP3   OH223010   6.555   5.335  12.944 -0.1119  0.1766  0.3664
  532TIP3    H123011   6.539   5.424  12.912  0.3350 -0.1212 -0.7263
  532TIP3    H223012   6.628   5.303  12.891  0.1682 -0.6103  1.2024
  533TIP3   OH223013   1.386   6.347   6.166 -0.0152  0.8006  0.2451
  533TIP3    H123014   1.292   6.327   6.175 -0.5252  1.7964 -2.1778
  533TIP3    H223015   1.394   6.436   6.200  0.5206 -0.0540  2.4933
  534TIP3   OH223016   0.434   0.082   5.195 -0.4266  0.1965  0.7522
  534TIP3    H123017   0.350   0.107   5.156 -0.0046  1.0795  0.3846
  534TIP3    H223018   0.467   0.012   5.139 -1.3192 -0.7879  1.4126
  535TIP3   OH223019   0.992   2.073  12.657  0.1279  0.1390  0.1722
  535TIP3    H123020   1.062   2.009  12.669  0.1014  0.2433  0.9250
  535TIP3    H223021   1.019   2.148  12.709 -1.0115 -0.1964  1.2958
  536TIP3   OH223022   5.261   2.630  12.517 -0.0735 -0.0627 -0.5508
  536TIP3    H123023   5.334   2.588  12.472 -0.0470 -0.9991  0.3233
  536TIP3    H223024   5.276   2.610  12.610 -0.7611  0.8013 -0.2387
  537TIP3   OH223025   3.462   4.615  12.967 -0.0666  0.4568 -0.0649
  537TIP3    H123026   3.481   4.674  12.894 -0.3113  3.1796  1.9277
  537TIP3    H223027   3.545   4.571  12.985  0.6225  1.5706 -0.4460
  538TIP3   OH223028   4.518   3.399   0.813 -0.6663 -0.3364 -0.8352
  538TIP3    H123029   4.424   3.416   0.824 -1.1561 -2.8185 -0.6751
  538TIP3    H223030   4.545   3.355   0.893  1.2704  2.3412  0.1519
  539TIP3   OH223031   3.883   1.990  14.184 -0.6115 -0.1099  0.0522
  539TIP3    H123032   3.907   1.909  14.139 -1.8945 -0.3640 -0.2128
  539TIP3    H223033   3.958   2.010  14.240  1.0198  0.1647 -2.0778
  540TIP3   OH223034   6.738   4.919  14.909 -0.1062  0.2024  0.0578
  540TIP3    H123035   6.730   4.838  14.859  0.3012  1.3714 -2.0327
  540TIP3    H223036   6.671   4.977  14.871 -0.1220  0.9837  1.2287
  541TIP3   OH223037   2.933   3.373  16.287  0.8479  0.3713 -0.0616
  541TIP3    H123038   2.855   3.364  16.233  0.0607  1.7419  0.7730
  541TIP3    H223039   2.901   3.365  16.377  1.7292  0.5313  0.2800
  542TIP3   OH223040   1.617   0.469  15.649 -0.0853 -0.0785 -0.1744
  542TIP3    H123041   1.657   0.382  15.654  0.2330 -0.0202 -1.3050
  542TIP3    H223042   1.613   0.499  15.740  0.0158 -1.1700  0.2101
  543TIP3   OH223043   5.966   3.824  15.468 -0.4189  0.0598  0.4383
  543TIP3    H123044   5.890   3.870  15.431  0.0777  0.4519 -0.1042
  543TIP3    H223045   6.010   3.785  15.393  0.1224  0.1430  0.7069
  544TIP3   OH223046   5.303   3.718   5.542  0.1080  0.6599  0.3123
  544TIP3    H123047   5.264   3.670   5.468  0.7507  0.1910  0.2615
  544TIP3    H223048   5.244   3.792   5.557 -1.5122 -0.7140  1.0798
  545TIP3   OH223049   1.383   6.554  14.064  0.2979 -0.2193 -0.6368
  545TIP3    H123050   1.477   6.543  14.053  0.0045 -2.5255 -1.4006
  545TIP3    H223051   1.353   6.589  13.980  0.8575  4.5294  0.8673
  546TIP3   OH223052   0.732   4.508  10.683  0.4739  0.3604 -0.2115
  546TIP3    H123053   0.811   4.476  10.638  0.2499  1.2882 -1.3209
  546TIP3    H223054   0.720   4.597  10.649 -1.5546 -0.0745 -0.7593
  547TIP3   OH223055   1.297   3.880   4.968  0.2575  0.7363 -0.0516
  547TIP3    H123056   1.357   3.901   4.896  2.1408 -0.1165  1.1750
  547TIP3    H223057   1.321   3.790   4.993 -1.0614  0.6432  0.9648
  548TIP3   OH223058   0.666   1.144  16.015  0.1492  0.2487 -0.0712
  548TIP3    H123059   0.636   1.057  16.043 -0.5479  0.5874  0.2417
  548TIP3    H223060   0.586   1.193  15.997  0.5433  0.7941 -0.3638
  549TIP3   OH223061   0.318   6.535  14.918 -0.1113  0.3785  0.0847
  549TIP3    H123062   0.304   6.630  14.922 -2.4457  0.1976 -1.3800
  549TIP3    H223063   0.339   6.519  14.826 -2.5756 -0.7236 -0.3802
  550TIP3   OH223064   5.724   0.890   4.688 -0.1877 -0.6569 -0.1933
  550TIP3    H123065   5.699   0.883   4.596  0.1060  2.7081 -0.6435
  550TIP3    H223066   5.640   0.890   4.736 -0.7426  2.2655 -0.9703
  551TIP3   OH223067   5.213   0.216  15.470  0.5130 -0.5284  0.1291
  551TIP3    H123068   5.191   0.145  15.410 -1.5399  0.8661 -0.8856
  551TIP3    H223069   5.265   0.277  15.417 -1.6930  0.9334 -0.4973
  552TIP3   OH223070   1.429   0.383  12.752  0.7529  0.2174 -0.0079
  552TIP3    H123071   1.478   0.390  12.670 -1.5074  0.6592 -1.4285
  552TIP3    H223072   1.459   0.457  12.805  1.5945  0.4752 -0.8229
  553TIP3   OH223073   2.808   5.673   6.868  0.1626  0.4169  0.0360
  553TIP3    H123074   2.841   5.755   6.906  1.1868 -0.2552  0.6569
  553TIP3    H223075   2.717   5.692   6.846 -0.3698  1.0070  2.4359
  554TIP3   OH223076   5.383   1.155  13.828  0.5294 -0.0950  0.3334
  554TIP3    H123077   5.463   1.203  13.848  0.4731 -0.3948  1.3367
  554TIP3    H223078   5.344   1.136  13.913 -0.2114 -0.6309 -0.1073
  555TIP3   OH223079   1.407   4.527   5.706 -0.6428 -0.5086  0.0039
  555TIP3    H123080   1.457   4.599   5.744 -0.4811 -0.1253 -0.9275
  555TIP3    H223081   1.447   4.448   5.744  0.5051 -0.1953 -0.5107
  556TIP3   OH223082   0.648   6.742  14.839 -0.0715  0.9335 -0.1693
  556TIP3    H123083   0.583   6.810  14.822 -2.1103 -0.4119  1.6286
  556TIP3    H223084   0.618   6.667  14.787  0.2229  0.3973  0.4205
  557TIP3   OH223085   5.071   1.598  11.737  0.2753  0.7463  0.0378
  557TIP3    H123086   5.006   1.645  11.685  0.0873  1.6164  1.0194
  557TIP3    H223087   5.040   1.607  11.827  1.4472  0.6698  0.4664
  558TIP3   OH223088   1.106   6.071  15.787 -0.5779  0.7065 -0.2635
  558TIP3    H123089   1.154   6.025  15.719 -0.6759  1.0852 -0.5906
  558TIP3    H223090   1.090   6.158  15.751  0.8576  1.5014  0.8917
  559TIP3   OH223091   3.730   5.520   3.072  0.7837  0.0815 -0.3104
  559TIP3    H123092   3.646   5.566   3.064  0.1262 -0.6656  1.7164
  559TIP3    H223093   3.784   5.557   3.002 -1.1031  0.8321 -1.4545
  560TIP3   OH223094   6.731   4.896  16.904  0.6312  0.2444  0.5251
  560TIP3    H123095   6.665   4.835  16.937  1.9298 -0.6810  1.4954
  560TIP3    H223096   6.797   4.841  16.862  1.2257  1.0745  0.3364
  561TIP3   OH223097   0.696   4.274   1.501  0.8234  0.0524  0.2479
  561TIP3    H123098   0.703   4.204   1.435  1.2164  0.1184  0.2143
  561TIP3    H223099   0.656   4.232   1.577  0.6257 -0.0944  0.0633
  562TIP3   OH223100   2.246   2.012   2.838 -0.5266 -0.5292  0.1529
  562TIP3    H123101   2.275   2.078   2.775 -2.8528  0.4021 -0.0379
  562TIP3    H223102   2.248   1.930   2.788  0.4812 -0.2925 -0.2195
  563TIP3   OH223103   2.164   6.002  17.139 -0.2982 -0.5712 -0.1778
  563TIP3    H123104   2.133   6.019  17.050 -0.0318  1.4643  0.0729
  563TIP3    H223105   2.254   5.973  17.127 -0.4630 -0.9163 -0.6096
  564TIP3   OH223106   4.228   1.331  11.677  0.5729  0.4729  0.6394
  564TIP3    H123107   4.301   1.269  11.671  0.5396  0.3641  1.2633
  564TIP3    H223108   4.174   1.313  11.601  1.5995  1.0789 -0.2635
  565TIP3   OH223109   1.648   1.653   3.362 -0.1481 -0.3411 -0.0601
  565TIP3    H123110   1.672   1.574   3.312 -1.2750 -0.6058 -0.2084
  565TIP3    H223111   1.561   1.635   3.395 -1.1252  1.4719 -1.4571
  566TIP3   OH223112   5.259   4.584   1.178  0.1145 -0.2087 -0.4071
  566TIP3    H123113   5.211   4.532   1.112  2.2992  0.2914 -2.5468
  566TIP3    H223114   5.317   4.640   1.126  1.4178  0.7692  1.9717
  567TIP3   OH223115   2.218   6.273   3.592  0.3531  0.2113 -0.7896
  567TIP3    H123116   2.200   6.184   3.624  0.1757  1.0255  1.5669
  567TIP3    H223117   2.311   6.287   3.610  0.1775  0.8025 -0.3048
  568TIP3   OH223118   2.915   0.641   6.062 -0.3804 -0.1198 -0.8044
  568TIP3    H123119   3.000   0.638   6.105 -0.0865  1.9447 -1.1221
  568TIP3    H223120   2.859   0.691   6.121 -0.8844  0.0051 -1.3663
  569TIP3   OH223121   4.239   2.182   2.357 -0.1388 -0.3376  0.4942
  569TIP3    H123122   4.220   2.099   2.400 -2.3080  0.4293  1.1221
  569TIP3    H223123   4.304   2.224   2.414 -0.2233 -0.9051  1.0163
  570TIP3   OH223124   5.282   2.524   1.211 -0.7847 -0.3493  0.7503
  570TIP3    H123125   5.269   2.605   1.161  0.4480 -1.1565 -0.9813
  570TIP3    H223126   5.358   2.541   1.265  1.3215 -1.2038 -1.7474
  571TIP3   OH223127   3.032   0.512   1.139  0.5999 -0.1353  0.1487
  571TIP3    H123128   3.042   0.591   1.192 -0.4391  0.0122  0.1340
  571TIP3    H223129   3.032   0.543   1.049 -0.1594 -0.0996  0.1529
  572TIP3   OH223130   3.504   3.750  14.511 -0.5629 -0.2193 -0.2721
  572TIP3    H123131   3.589   3.793  14.517 -0.2286 -0.8826 -0.1768
  572TIP3    H223132   3.519   3.662  14.546 -1.4798 -0.0801  0.5048
  573TIP3   OH223133   0.019   5.168  16.987  0.3475 -0.3112 -0.5937
  573TIP3    H123134   0.058   5.083  17.007 -0.1088 -0.6587 -1.1412
  573TIP3    H223135  -0.065   5.147  16.946 -1.0417  0.3849  1.6744
  574TIP3   OH223136   4.889   0.057   1.605  0.1357 -0.0768  0.1477
  574TIP3    H123137   4.881   0.063   1.700 -1.0802  0.7695  0.0140
  574TIP3    H223138   4.969   0.105   1.585 -1.5860  3.2220  0.4696
  575TIP3   OH223139   0.636   1.784  14.211 -0.1814 -0.5932  0.1305
  575TIP3    H123140   0.620   1.858  14.270  1.2390 -0.1052 -0.0679
  575TIP3    H223141   0.711   1.739  14.250  0.0519 -0.9189 -0.6913
  576TIP3   OH223142   4.810   3.323   4.759 -0.5096  0.3905  0.0549
  576TIP3    H123143   4.905   3.314   4.764 -0.3182  0.1601 -2.7477
  576TIP3    H223144   4.782   3.331   4.851  2.0965 -0.3497  0.9953
  577TIP3   OH223145   2.332   2.035   5.900 -0.4202  0.0771 -0.1910
  577TIP3    H123146   2.251   1.986   5.908 -0.2404  0.1792  4.1943
  577TIP3    H223147   2.311   2.122   5.933  1.3958  0.1674  0.8363
  578TIP3   OH223148   4.120   5.881  15.098  0.1451  0.2009 -0.4108
  578TIP3    H123149   4.144   5.788  15.100  0.6666  0.3386  1.0133
  578TIP3    H223150   4.086   5.898  15.186  0.0658  1.3702 -0.6566
  579TIP3   OH223151   1.258   2.195   5.226 -0.3729  0.3088 -0.1593
  579TIP3    H123152   1.283   2.109   5.257 -0.7774  0.5197  0.7849
  579TIP3    H223153   1.196   2.178   5.155  2.8241 -0.2465 -3.0766
  580TIP3   OH223154   0.772   5.250  10.777 -0.2899  0.1402 -0.8818
  580TIP3    H123155   0.738   5.186  10.840 -0.0136 -0.2425 -1.1185
  580TIP3    H223156   0.863   5.224  10.763  0.3252  1.5602  0.2628
  581TIP3   OH223157   1.009   6.738   6.215  0.7994  0.3667  0.2630
  581TIP3    H123158   1.081   6.777   6.264  0.3447  0.9833  0.4436
  581TIP3    H223159   0.947   6.710   6.281  0.1686  1.2297  0.0504
  582TIP3   OH223160   6.161   3.771  14.655  0.3252  0.1178 -0.7487
  582TIP3    H123161   6.085   3.746  14.603  1.0159 -1.2351 -1.1646
  582TIP3    H223162   6.145   3.733  14.741 -0.1398  1.0997 -0.3937
  583TIP3   OH223163   1.524   2.307  15.516 -1.5554  0.3658  0.3962
  583TIP3    H123164   1.616   2.312  15.489 -2.0241  1.4586 -1.2056
  583TIP3    H223165   1.523   2.338  15.606 -0.3470  0.3064  0.4423
  584TIP3   OH223166   2.248   5.900  14.491 -0.3512 -0.5378  0.2093
  584TIP3    H123167   2.261   5.971  14.554 -2.0919 -0.0328  0.0432
  584TIP3    H223168   2.214   5.827  14.544  2.1073 -1.5506  0.5028
  585TIP3   OH223169   4.177   3.454  11.149 -0.8495  0.3220 -0.0520
  585TIP3    H123170   4.208   3.465  11.239  1.3991  0.3353 -0.7674
  585TIP3    H223171   4.097   3.506  11.145 -0.9131  0.4504  1.8917
  586TIP3   OH223172   1.659   3.356  15.194 -1.1193 -0.4282  0.0535
  586TIP3    H123173   1.643   3.270  15.154 -0.8832 -0.1254 -0.6947
  586TIP3    H223174   1.671   3.336  15.287  1.4874 -1.5682 -0.4359
  587TIP3   OH223175   3.804   2.224  13.522  0.0169  0.5922 -0.1312
  587TIP3    H123176   3.819   2.141  13.568  4.2661  2.2401  2.0071
  587TIP3    H223177   3.719   2.254  13.554  0.1193 -1.1534  2.0176
  588TIP3   OH223178   0.513   5.134   5.160  0.5726  0.6330 -0.5063
  588TIP3    H123179   0.606   5.122   5.143  1.3272  2.1243  2.0614
  588TIP3    H223180   0.500   5.229   5.154 -0.8804  0.4244 -1.1512
  589TIP3   OH223181   6.456   4.226   4.677 -0.2826  0.2701 -0.1761
  589TIP3    H123182   6.432   4.134   4.679 -0.2033  0.2557  0.2059
  589TIP3    H223183   6.428   4.257   4.591 -1.6452  0.2553  0.2358
  590TIP3   OH223184   0.939   1.107   6.743  0.0772  0.3659  0.0642
  590TIP3    H123185   0.930   1.202   6.739  2.1860  0.5988 -0.1484
  590TIP3    H223186   0.982   1.090   6.827  0.0700 -0.3702 -0.0705
  591TIP3   OH223187   4.303   5.365   1.721 -0.0925  0.0098 -0.1861
  591TIP3    H123188   4.245   5.358   1.646 -0.6986  2.8956 -0.0744
  591TIP3    H223189   4.391   5.370   1.682 -0.3513  0.8528 -0.6947
  592TIP3   OH223190   5.791   6.430  14.138 -0.4403 -0.1244  0.1186
  592TIP3    H123191   5.814   6.413  14.046 -0.8574  1.0677 -0.2223
  592TIP3    H223192   5.789   6.343  14.178 -0.3650 -0.6812 -1.0274
  593TIP3   OH223193   3.459   6.500   4.281  0.2584  0.9232 -0.0337
  593TIP3    H123194   3.540   6.518   4.233 -0.2691  1.2617 -0.8095
  593TIP3    H223195   3.481   6.426   4.337  0.5531 -0.2849 -1.6852
  594TIP3   OH223196   0.857   3.408   6.428 -0.1352  0.7645  0.6903
  594TIP3    H123197   0.939   3.401   6.477 -0.7531  0.1196  1.6763
  594TIP3    H223198   0.806   3.474   6.475 -0.6594  0.2856  0.8146
  595TIP3   OH223199   6.569   1.324  12.013 -0.1923 -0.1145  0.0366
  595TIP3    H123200   6.540   1.410  12.042 -0.6338 -0.5164  0.8286
  595TIP3    H223201   6.636   1.342  11.948 -2.9189  0.8939 -2.7564
  596TIP3   OH223202   4.475   2.746  16.114  0.1712 -0.0181 -0.3838
  596TIP3    H123203   4.452   2.721  16.024 -0.3191  0.5280 -0.4189
  596TIP3    H223204   4.449   2.838  16.120  0.1661 -0.0661  0.3336
  597TIP3   OH223205   1.666   3.126   1.541 -0.6781  0.4571  0.1129
  597TIP3    H123206   1.632   3.199   1.593  0.2713 -0.0164  1.4568
  597TIP3    H223207   1.598   3.059   1.548 -0.2637  0.1325  1.3901
  598TIP3   OH223208   2.474   1.317   5.164  0.2290 -0.3509 -0.1395
  598TIP3    H123209   2.423   1.239   5.187  0.2842  0.3421  2.6757
  598TIP3    H223210   2.416   1.390   5.182  0.6198  0.3414 -1.5308
  599TIP3   OH223211   0.866   0.298   0.477  0.6673  0.0969 -0.6237
  599TIP3    H123212   0.928   0.232   0.445  0.0514  0.0281 -1.7203
  599TIP3    H223213   0.780   0.257   0.468  0.5024 -0.7428  3.1069
  600TIP3   OH223214   0.897   2.749  14.208  0.1402  0.5608  0.1638
  600TIP3    H123215   0.915   2.721  14.298 -0.2122  1.9092  0.6707
  600TIP3    H223216   0.927   2.675  14.155  2.5730  0.6584  1.2251
  601TIP3   OH223217   4.400   5.893  15.015 -0.2729 -0.4469 -0.0044
  601TIP3    H123218   4.420   5.800  15.026 -0.0085 -0.4288 -0.3017
  601TIP3    H223219   4.306   5.896  15.002 -0.3619 -0.6167  0.5923
  602TIP3   OH223220   2.515   1.490  16.986  0.2964  0.6057  0.2574
  602TIP3    H123221   2.442   1.535  16.945  0.9696  0.2090 -1.4593
  602TIP3    H223222   2.591   1.545  16.968  0.5040  0.8984  1.8307
  603TIP3   OH223223   2.818   4.306  15.570 -0.3224  0.2531 -0.4528
  603TIP3    H123224   2.797   4.362  15.645 -1.5398  0.4546 -0.9148
  603TIP3    H223225   2.850   4.367  15.504 -0.6284  0.2730 -0.5858
  604TIP3   OH223226   2.261   2.513   0.468 -0.0940  0.3110 -0.7282
  604TIP3    H123227   2.187   2.572   0.457 -0.5747 -0.0380  0.4589
  604TIP3    H223228   2.333   2.571   0.494 -0.7841  0.3408  1.3196
  605TIP3   OH223229   5.906   0.024   0.638  0.2862  0.4568 -0.3438
  605TIP3    H123230   5.973   0.077   0.593 -1.3012  2.2575 -0.7243
  605TIP3    H223231   5.920  -0.065   0.605  1.0527  1.2017 -2.1723
  606TIP3   OH223232   1.152   5.869  11.187 -0.1551  0.2608  0.0475
  606TIP3    H123233   1.163   5.850  11.281 -1.8386  0.6234  0.3553
  606TIP3    H223234   1.154   5.782  11.146  2.1029  0.1858  0.1837
  607TIP3   OH223235   1.767   6.617   4.779  0.0347 -0.0967  0.2554
  607TIP3    H123236   1.793   6.525   4.784 -1.1012 -0.3814  1.5816
  607TIP3    H223237   1.671   6.614   4.770 -0.1633  0.9252  1.6371
  608TIP3   OH223238   4.156   4.039   1.382  0.5540  0.2156  0.1936
  608TIP3    H123239   4.219   4.003   1.444 -0.7316  0.2913  1.6095
  608TIP3    H223240   4.182   4.131   1.371 -1.2049  1.2621  3.4961
  609TIP3   OH223241   0.332   5.967   2.754  0.5851  0.0603  0.0278
  609TIP3    H123242   0.393   6.037   2.732  1.0655 -0.5442 -0.6074
  609TIP3    H223243   0.245   6.005   2.742  0.7887 -0.2149 -3.0012
  610TIP3   OH223244   2.015   3.493  17.006 -0.3750  0.2940  0.5906
  610TIP3    H123245   2.041   3.454  16.923  0.1389 -0.7008  1.2005
  610TIP3    H223246   1.969   3.574  16.982  1.5051  1.0613 -0.5794
  611TIP3   OH223247   6.395   5.966   2.753  0.3081 -0.4075 -0.0627
  611TIP3    H123248   6.390   5.871   2.740  0.0411 -0.8112  2.5137
  611TIP3    H223249   6.304   5.995   2.759  0.3578  0.2105 -1.7312
  612TIP3   OH223250   6.332   2.484  12.878  0.3034 -0.0082  0.2730
  612TIP3    H123251   6.243   2.480  12.843  0.1938  0.6691  0.4653
  612TIP3    H223252   6.320   2.496  12.972  0.5981 -1.8519  0.5903
  613TIP3   OH223253   4.270   5.280   0.075 -0.4983 -0.6266 -0.0645
  613TIP3    H123254   4.336   5.214   0.092 -1.7388 -2.0022 -0.3749
  613TIP3    H223255   4.238   5.261  -0.013 -1.2497  0.0453  0.0461
  614TIP3   OH223256   6.394   2.350  13.717 -0.0949 -0.6613 -0.2201
  614TIP3    H123257   6.315   2.305  13.748  0.1973 -0.6363  0.6096
  614TIP3    H223258   6.415   2.309  13.633 -1.6998  0.1933 -1.0634
  615TIP3   OH223259   5.959   0.464   3.620 -0.1126 -0.0891  0.0500
  615TIP3    H123260   5.879   0.506   3.589  0.0328  0.5111  0.4537
  615TIP3    H223261   6.025   0.487   3.555  0.1283  0.9316  0.6316
  616TIP3   OH223262   6.742   2.199   1.030  0.0372  0.3664  0.2007
  616TIP3    H123263   6.759   2.287   0.998 -3.2971  1.1683  0.2859
  616TIP3    H223264   6.667   2.208   1.088 -1.4071 -2.7045 -0.9516
  617TIP3   OH223265   1.902   4.852  13.777 -0.1474  0.1566  0.1528
  617TIP3    H123266   1.885   4.942  13.808 -3.5449 -0.3515  0.2099
  617TIP3    H223267   1.849   4.844  13.698 -1.0232 -2.1580  0.8842
  618TIP3   OH223268   4.065   4.505   2.649 -0.4065  0.5108  0.4851
  618TIP3    H123269   4.140   4.513   2.708 -0.0249  1.4579 -0.0985
  618TIP3    H223270   3.989   4.499   2.708 -0.0082  1.1404  1.0839
  619TIP3   OH223271   0.890   5.220  14.158  0.1498  0.0637  0.1022
  619TIP3    H123272   0.866   5.298  14.208 -0.4659  0.0704 -0.1958
  619TIP3    H223273   0.867   5.241  14.067  1.5357  0.1656 -0.2520
  620TIP3   OH223274   2.833   4.573   4.211 -0.2427 -0.4271 -0.0181
  620TIP3    H123275   2.767   4.505   4.198  1.8591 -2.9631  1.4431
  620TIP3    H223276   2.874   4.550   4.295  1.4292  1.9476 -0.0954
  621TIP3   OH223277   4.214   6.236   0.683  0.5788  0.3686 -0.2190
  621TIP3    H123278   4.268   6.189   0.747  2.0759  1.1534 -0.8832
  621TIP3    H223279   4.124   6.210   0.705  1.2736 -2.1474 -0.0198
  622TIP3   OH223280   5.883   3.212   3.020 -0.8150 -0.5292 -0.4029
  622TIP3    H123281   5.972   3.247   3.017 -0.2963 -1.5841  1.3006
  622TIP3    H223282   5.848   3.228   2.932  1.5045 -1.2956 -1.5398
  623TIP3   OH223283   5.502   1.761  13.305  0.0070 -0.4224 -0.1265
  623TIP3    H123284   5.493   1.688  13.244 -0.7311 -0.0598 -0.4633
  623TIP3    H223285   5.422   1.757  13.358 -0.4223  0.6127 -0.6708
  624TIP3   OH223286   5.184   2.706  16.613 -0.1797 -0.4600 -0.3689
  624TIP3    H123287   5.195   2.796  16.643 -2.7699  0.1209 -0.9295
  624TIP3    H223288   5.176   2.655  16.693 -1.6870  0.2745 -0.0275
  625TIP3   OH223289   4.463   1.776  15.882  0.7408  0.6773 -0.1621
  625TIP3    H123290   4.444   1.694  15.836  0.4875  0.6460 -0.0033
  625TIP3    H223291   4.379   1.805  15.915  0.7373  1.2931 -0.6910
  626TIP3   OH223292   2.070   4.644   1.742 -0.1646 -0.6229 -0.4812
  626TIP3    H123293   2.026   4.575   1.692  1.3287 -0.4623 -2.0893
  626TIP3    H223294   2.093   4.602   1.825 -1.8786 -1.1672 -0.2485
  627TIP3   OH223295   0.796   6.575   5.258  0.0602  0.0475 -0.4147
  627TIP3    H123296   0.870   6.627   5.290  1.2725 -1.7719 -0.0758
  627TIP3    H223297   0.744   6.636   5.206  1.1036  1.7013  0.3974
  628TIP3   OH223298   2.620   1.167  11.964 -0.4781  0.2800 -0.1542
  628TIP3    H123299   2.694   1.157  12.023  0.6118 -0.6917 -1.6206
  628TIP3    H223300   2.549   1.118  12.006  0.6258 -1.4433 -0.2107
  629TIP3   OH223301   3.562   3.957  15.570 -0.6267  0.3959  0.0556
  629TIP3    H123302   3.496   3.910  15.621 -0.0574 -0.4021  0.0680
  629TIP3    H223303   3.568   4.043  15.613 -0.5212 -0.0818  1.0274
  630TIP3   OH223304   2.323   2.495   6.221 -0.0617 -0.5405 -0.2875
  630TIP3    H123305   2.368   2.566   6.266  1.8227 -2.0790  0.3733
  630TIP3    H223306   2.248   2.475   6.277  0.0475  0.1327  0.1112
  631TIP3   OH223307   4.408   1.795   0.631 -0.0634  0.1917 -0.0939
  631TIP3    H123308   4.416   1.848   0.710 -0.1746 -0.0464  0.0783
  631TIP3    H223309   4.351   1.847   0.574 -1.3332 -0.3578  0.6177
  632TIP3   OH223310   2.070   0.320  17.038 -0.0028 -0.1060 -0.0682
  632TIP3    H123311   1.991   0.289  17.082  0.2342 -0.7795 -0.0968
  632TIP3    H223312   2.043   0.336  16.948  0.0398 -0.9826 -0.2424
  633TIP3   OH223313   6.472   5.955   4.925  0.6153 -0.3547  0.1250
  633TIP3    H123314   6.445   5.867   4.952  1.7556 -0.5391  0.6856
  633TIP3    H223315   6.537   5.941   4.856 -0.1489  0.0867 -0.7187
  634TIP3   OH223316   1.922   1.086  12.599 -0.3526 -0.2433 -0.2855
  634TIP3    H123317   2.003   1.038  12.581 -0.2625  0.1460 -0.9630
  634TIP3    H223318   1.921   1.099  12.693 -0.6779 -2.1064  0.0015
  635TIP3   OH223319   6.294   5.214  12.911  0.2515 -0.9474  0.0048
  635TIP3    H123320   6.316   5.144  12.973 -0.1757 -1.9562 -0.9437
  635TIP3    H223321   6.379   5.251  12.886  0.5426 -1.6530 -0.0714
  636TIP3   OH223322   2.654   3.011  16.351 -0.5247 -0.5048 -0.1261
  636TIP3    H123323   2.685   3.013  16.442 -1.7397 -0.4610  0.2999
  636TIP3    H223324   2.725   3.051  16.301  0.6088 -1.4488  0.6593
  637TIP3   OH223325   2.944   2.966   0.286 -0.1148  0.4003 -0.4434
  637TIP3    H123326   3.017   2.907   0.307  0.0074  1.7664  4.0849
  637TIP3    H223327   2.876   2.908   0.252  0.7584 -2.0947  1.6812
  638TIP3   OH223328   0.946   0.361  15.131  0.0664 -0.3067  0.4580
  638TIP3    H123329   0.873   0.374  15.191 -1.2297 -0.0178 -1.1045
  638TIP3    H223330   1.005   0.301  15.177 -1.1803 -0.5888  1.7387
  639TIP3   OH223331   6.665   5.008   5.866 -0.1575  0.3064 -0.0329
  639TIP3    H123332   6.675   5.042   5.777 -1.7561 -1.0319 -0.7948
  639TIP3    H223333   6.677   5.084   5.922  0.3875  1.2921 -1.4261
  640TIP3   OH223334   2.852   1.435   2.709 -0.4719  0.0510 -0.2352
  640TIP3    H123335   2.814   1.493   2.776 -0.8245  0.9581 -1.1969
  640TIP3    H223336   2.945   1.457   2.708 -0.1770 -0.9821  0.9325
  641TIP3   OH223337   4.426   2.160  15.896  0.0095  0.1111 -0.1077
  641TIP3    H123338   4.356   2.220  15.922 -1.2309 -1.1569 -0.4175
  641TIP3    H223339   4.424   2.090  15.962  2.0513  0.8007  0.7876
  642TIP3   OH223340   5.432   0.179   3.910 -0.3544 -0.3709  0.2012
  642TIP3    H123341   5.478   0.228   3.978  0.5440  1.1627 -1.4273
  642TIP3    H223342   5.429   0.089   3.943  1.1280  0.0781  1.6895
  643TIP3   OH223343   0.911   0.260  15.976 -0.1052  0.1451  0.5006
  643TIP3    H123344   0.986   0.226  16.024  0.1305  3.6382  3.0401
  643TIP3    H223345   0.837   0.252  16.036 -0.6406  1.2381  0.0346
  644TIP3   OH223346   0.790   3.023  15.700 -0.1959  0.5091  0.2035
  644TIP3    H123347   0.791   3.090  15.631 -3.2942  2.8972  2.1809
  644TIP3    H223348   0.769   2.942  15.654 -2.5305  2.0624 -1.7385
  645TIP3   OH223349   6.282   5.145   0.590 -0.0334  0.4741 -0.3459
  645TIP3    H123350   6.346   5.114   0.655 -0.6483  0.4918  0.2871
  645TIP3    H223351   6.224   5.070   0.575  0.4795  0.2677 -1.3689
  646TIP3   OH223352   4.258   0.212  17.107 -0.4970 -0.3829 -0.1779
  646TIP3    H123353   4.313   0.287  17.085  1.7622 -1.8591  0.1060
  646TIP3    H223354   4.296   0.139  17.059 -0.3109 -2.0933  2.3835
  647TIP3   OH223355   1.877   3.812   0.422  0.1151 -0.1789  0.0205
  647TIP3    H123356   1.792   3.798   0.465 -0.2193  0.3019 -0.4610
  647TIP3    H223357   1.942   3.782   0.486 -0.4182 -0.6156  0.3723
  648TIP3   OH223358   0.335   2.267   3.841 -0.0861  0.4266 -0.1709
  648TIP3    H123359   0.247   2.292   3.815  0.1153  0.4006 -0.8947
  648TIP3    H223360   0.362   2.202   3.776 -0.0686 -0.6323  0.8544
  649TIP3   OH223361   2.927   4.131  13.129 -0.2597 -0.0920  0.1858
  649TIP3    H123362   3.017   4.099  13.130 -0.5486 -0.9316  1.1793
  649TIP3    H223363   2.900   4.129  13.221 -1.7620 -1.2036 -0.2416
  650TIP3   OH223364   2.963   3.218  14.794  0.4299  0.3473 -0.5916
  650TIP3    H123365   3.008   3.194  14.875  1.1032 -1.3843 -1.4300
  650TIP3    H223366   2.878   3.252  14.823 -0.8437 -3.4478  0.8645
  651TIP3   OH223367   5.090   6.033  16.277  0.1463 -1.2638 -1.0053
  651TIP3    H123368   5.077   6.112  16.329  0.7851 -0.4004 -2.0971
  651TIP3    H223369   5.072   6.060  16.187 -1.4601 -2.8459 -1.2201
  652TIP3   OH223370   4.270   0.627   1.988 -0.1625  0.6511  0.4583
  652TIP3    H123371   4.242   0.573   2.062 -0.4110 -1.5420 -1.1338
  652TIP3    H223372   4.189   0.667   1.956 -0.0837  1.4422  1.2246
  653TIP3   OH223373   2.761   4.049  15.532  0.7077  0.1000  0.5467
  653TIP3    H123374   2.821   4.121  15.516 -0.6868  0.7584 -2.4086
  653TIP3    H223375   2.817   3.972  15.539  1.9908  0.9466 -0.1572
  654TIP3   OH223376   5.873   4.164  12.134  0.2326 -0.0327 -0.1790
  654TIP3    H123377   5.827   4.193  12.213 -1.6786 -1.1868 -0.7855
  654TIP3    H223378   5.817   4.192  12.062  0.3347 -1.6784 -0.9432
  655TIP3   OH223379   2.548   4.560  13.347  0.1504 -0.2671 -0.0055
  655TIP3    H123380   2.488   4.605  13.407  1.6485  0.2204  1.1703
  655TIP3    H223381   2.547   4.469  13.378  0.9710 -0.0044  0.8308
  656TIP3   OH223382   2.830   3.903  12.528 -0.2370 -0.3836  0.2699
  656TIP3    H123383   2.781   3.826  12.498  0.3054 -0.1924 -1.1786
  656TIP3    H223384   2.775   3.977  12.505 -0.0332 -0.2571  0.1897
  657TIP3   OH223385   2.166   0.437   2.276 -0.1096  0.6410 -0.1204
  657TIP3    H123386   2.153   0.429   2.371 -1.4180  0.7937 -0.2584
  657TIP3    H223387   2.248   0.391   2.259 -1.5949 -2.5777  0.6507
  658TIP3   OH223388   0.904   6.024  10.781  0.0357 -0.2310  0.2895
  658TIP3    H123389   0.922   6.050  10.871 -1.0134 -0.4523  0.5799
  658TIP3    H223390   0.955   6.084  10.727  1.3572 -0.6577  1.0380
  659TIP3   OH223391   0.510   5.516  11.971 -0.6581  0.1127 -0.1536
  659TIP3    H123392   0.542   5.510  12.061 -0.8761  0.7301 -0.0266
  659TIP3    H223393   0.426   5.470  11.971 -0.6333  0.0682 -0.0564
  660TIP3   OH223394   4.688   6.077  11.898 -0.3654  0.3140  0.0389
  660TIP3    H123395   4.777   6.096  11.928  0.4185 -1.6511 -0.8594
  660TIP3    H223396   4.699   6.012  11.829 -2.4554  0.7451 -0.7812
  661TIP3   OH223397   1.434   2.310   3.583  0.0846  0.3246  0.1229
  661TIP3    H123398   1.357   2.255   3.595  0.8558 -0.7531  0.3413
  661TIP3    H223399   1.469   2.284   3.497 -1.7623  3.3692 -1.7091
  662TIP3   OH223400   5.377   4.400   2.952 -0.7251  0.2526 -0.2928
  662TIP3    H123401   5.329   4.478   2.979  1.9478  1.0837  2.7575
  662TIP3    H223402   5.325   4.327   2.986 -0.4425  1.0691  2.1144
  663TIP3   OH223403   0.971   5.474   5.916  0.1153 -0.1909  0.3198
  663TIP3    H123404   0.975   5.379   5.921  0.2399 -0.1807  0.4156
  663TIP3    H223405   0.908   5.499   5.983  1.4394 -0.0812  1.5790
  664TIP3   OH223406   1.680   5.614  15.413  0.2828  0.4800 -0.0780
  664TIP3    H123407   1.754   5.653  15.368  0.7048 -0.3725 -0.1413
  664TIP3    H223408   1.651   5.544  15.354 -0.7174  0.9407 -0.1590
  665TIP3   OH223409   6.364   3.436  14.802  0.2806 -0.6122  0.4059
  665TIP3    H123410   6.328   3.382  14.732 -1.2192 -1.9682  2.1099
  665TIP3    H223411   6.411   3.374  14.858 -1.1902 -0.1586  2.2297
  666TIP3   OH223412   3.729   3.428  13.991 -0.6562  0.4830 -0.0600
  666TIP3    H123413   3.651   3.383  14.023 -1.1523 -0.0714 -1.9542
  666TIP3    H223414   3.796   3.407  14.056 -2.1127  1.2128  1.7560
  667TIP3   OH223415   2.192   3.385  11.370 -0.3645  0.1157 -0.2132
  667TIP3    H123416   2.121   3.365  11.309 -1.1018  0.9502  0.3676
  667TIP3    H223417   2.257   3.316  11.353 -1.5396 -1.0096 -0.3512
  668TIP3   OH223418   6.546   1.705  11.249  0.6433 -0.0199 -0.1777
  668TIP3    H123419   6.638   1.703  11.223  0.5962 -2.3672 -0.2976
  668TIP3    H223420   6.497   1.698  11.167  0.3050  1.4078 -0.1332
  669TIP3   OH223421   0.720   3.231   5.491  0.3192  0.3634  0.3376
  669TIP3    H123422   0.786   3.251   5.426  0.5932 -0.7476  0.2637
  669TIP3    H223423   0.761   3.167   5.549  0.0212  1.2048  1.5061
  670TIP3   OH223424   0.510   0.803  16.962 -0.0200 -0.0541 -0.3966
  670TIP3    H123425   0.579   0.870  16.965  0.6633 -0.6673 -1.5989
  670TIP3    H223426   0.551   0.729  16.918 -0.6860 -1.3983  1.1693
  671TIP3   OH223427   3.135   2.180  15.761 -0.5221 -0.0864 -0.3487
  671TIP3    H123428   3.227   2.201  15.775 -0.5553 -0.1838  0.0111
  671TIP3    H223429   3.094   2.190  15.846 -0.8760  0.1095 -0.5401
  672TIP3   OH223430   4.319   1.754  14.198 -0.0636 -0.2277  0.3846
  672TIP3    H123431   4.406   1.733  14.164 -0.9139 -1.9455 -0.8454
  672TIP3    H223432   4.305   1.690  14.268 -0.5308 -0.2302  0.2878
  673TIP3   OH223433   5.509   4.916   7.005 -0.6961  0.4687 -0.9080
  673TIP3    H123434   5.435   4.913   6.945 -0.7786  1.3420 -0.8607
  673TIP3    H223435   5.555   4.997   6.983 -0.1618  0.2995 -0.4536
  674TIP3   OH223436   0.532   5.489   6.709 -0.2875 -0.5719 -0.2105
  674TIP3    H123437   0.627   5.497   6.714 -0.3228  0.9198 -1.4384
  674TIP3    H223438   0.513   5.479   6.616 -1.4073  0.2653 -0.0959
  675TIP3   OH223439   4.657   1.327   1.410  0.0165 -0.0501  0.0234
  675TIP3    H123440   4.726   1.385   1.377  0.0994 -0.7331 -1.0676
  675TIP3    H223441   4.691   1.292   1.491  1.3141 -0.9735 -0.8859
  676TIP3   OH223442   2.860   0.429  13.539  0.3651 -0.0101  0.2357
  676TIP3    H123443   2.938   0.390  13.500  0.5856  0.4379  0.2232
  676TIP3    H223444   2.852   0.386  13.625  1.3411  0.8290  0.7665
  677TIP3   OH223445   2.686   4.741   5.505  0.5170  0.6856  0.1363
  677TIP3    H123446   2.777   4.756   5.531  0.3518  3.1758 -0.3882
  677TIP3    H223447   2.634   4.777   5.578 -0.0908 -1.0644  0.6099
  678TIP3   OH223448   0.626   5.747  11.919  0.3721 -0.1820  0.0111
  678TIP3    H123449   0.711   5.739  11.962 -0.1960  0.5467  1.3165
  678TIP3    H223450   0.596   5.657  11.910  1.3063 -0.4562 -0.5589
  679TIP3   OH223451   4.562   2.829  15.800  0.1691 -0.2203  0.1584
  679TIP3    H123452   4.513   2.747  15.791  0.9333 -0.5740 -1.0909
  679TIP3    H223453   4.637   2.818  15.741  0.2570  1.3957 -0.0659
  680TIP3   OH223454   5.020   3.329   3.024 -0.4383  0.4471 -0.4297
  680TIP3    H123455   5.088   3.352   2.961 -0.2516 -0.1643 -0.4611
  680TIP3    H223456   4.950   3.392   3.009 -0.0343  0.8452 -0.6537
  681TIP3   OH223457   0.206   3.408   5.138 -0.1717  0.1283  0.2775
  681TIP3    H123458   0.262   3.439   5.210  0.2260  1.8647 -0.7160
  681TIP3    H223459   0.122   3.391   5.179  0.2705  0.2892  1.3049
  682TIP3   OH223460   2.641   0.113   3.814 -0.2731 -0.4648  0.4572
  682TIP3    H123461   2.620   0.108   3.907 -0.3511 -1.7874  0.3920
  682TIP3    H223462   2.599   0.194   3.784 -0.5673 -0.2225  1.4869
  683TIP3   OH223463   6.372   6.601  11.394 -0.4396 -0.5881 -0.2792
  683TIP3    H123464   6.362   6.546  11.472 -0.0854 -0.6262 -0.2608
  683TIP3    H223465   6.466   6.610  11.383 -0.4614  1.2214  0.5627
  684TIP3   OH223466   4.187   6.700  14.995 -0.0945  0.5432 -0.1763
  684TIP3    H123467   4.216   6.648  15.070 -2.2775 -0.7176 -0.1161
  684TIP3    H223468   4.105   6.740  15.024 -0.8870  0.1768 -1.8122
  685TIP3   OH223469   1.187   5.919   1.760 -0.2577 -0.1789  0.2754
  685TIP3    H123470   1.182   5.916   1.664 -1.4475 -0.1037  0.3158
  685TIP3    H223471   1.187   5.827   1.787  0.0721 -0.2001  0.2029
  686TIP3   OH223472   5.210   1.444  11.929  0.2524 -0.1848 -0.2256
  686TIP3    H123473   5.121   1.409  11.936 -0.4637  1.6505  0.4465
  686TIP3    H223474   5.219   1.468  11.836 -0.8789  1.7681  0.1026
  687TIP3   OH223475   5.059   5.990   1.193 -0.1648  0.6669  0.2214
  687TIP3    H123476   5.142   5.977   1.239  1.0489 -0.9359 -2.1950
  687TIP3    H223477   5.000   5.925   1.231  0.2112  0.6251  0.7536
  688TIP3   OH223478   3.849   2.595   5.797 -0.3564 -0.1070  0.1314
  688TIP3    H123479   3.870   2.504   5.775  0.1863 -0.2943  1.3758
  688TIP3    H223480   3.835   2.637   5.712  2.5570 -0.6014 -0.7131
  689TIP3   OH223481   6.748   3.330   3.940 -0.4033 -0.5073 -0.0935
  689TIP3    H123482   6.841   3.351   3.950 -0.0376 -1.4541 -1.2626
  689TIP3    H223483   6.745   3.271   3.864 -1.7914 -1.6679  0.8196
  690TIP3   OH223484   6.350   5.605  15.335 -0.1629  0.1069 -0.0603
  690TIP3    H123485   6.425   5.647  15.292 -0.2409  0.1112 -0.1914
  690TIP3    H223486   6.389   5.534  15.387 -0.0897 -0.0345 -0.3083
  691TIP3   OH223487   0.661   6.468   0.924 -0.0206 -0.1122 -0.7733
  691TIP3    H123488   0.749   6.504   0.920  0.1320 -0.6104 -2.3067
  691TIP3    H223489   0.670   6.389   0.977  0.3676  0.0234 -0.6309
  692TIP3   OH223490   0.671   2.160   2.964 -0.3818 -0.2853  0.1978
  692TIP3    H123491   0.725   2.110   3.025  1.2901  0.6370 -0.4476
  692TIP3    H223492   0.734   2.193   2.899 -1.9766 -0.5418 -1.5470
  693TIP3   OH223493   4.349   2.402  15.657  0.1708 -0.5560  0.6663
  693TIP3    H123494   4.258   2.431  15.645  0.6596  0.6675 -0.3477
  693TIP3    H223495   4.352   2.315  15.619 -0.7971 -1.0211  1.6006
  694TIP3   OH223496   4.247   5.929   6.013 -0.2137  0.6237  0.3325
  694TIP3    H123497   4.246   5.929   5.917  0.5362 -0.8110  0.2904
  694TIP3    H223498   4.164   5.969   6.038 -0.2576  1.3659 -0.9051
  695TIP3   OH223499   4.768   1.647   1.741  0.1338 -0.3963  0.2998
  695TIP3    H123500   4.785   1.653   1.647 -0.0794  2.0247  0.3637
  695TIP3    H223501   4.850   1.615   1.778  0.0180 -1.9877 -0.7454
  696TIP3   OH223502   1.521   3.684  11.780 -0.3338  0.4111  0.2272
  696TIP3    H123503   1.570   3.694  11.698 -0.1300  0.6314  0.3763
  696TIP3    H223504   1.565   3.614  11.827 -1.3515 -0.7822 -0.5127
  697TIP3   OH223505   0.444   0.898   1.266  0.4511 -0.3798  0.2991
  697TIP3    H123506   0.427   0.837   1.195  0.8883 -0.9869  0.7105
  697TIP3    H223507   0.376   0.878   1.331 -0.0615  0.2957 -0.0094
  698TIP3   OH223508   4.788   6.690  11.155 -0.2937 -0.2061 -0.5985
  698TIP3    H123509   4.778   6.674  11.061  1.2837  0.0499 -0.8431
  698TIP3    H223510   4.730   6.764  11.174  1.5108  1.6785 -2.0017
  699TIP3   OH223511   5.465   3.656   5.146 -0.3025 -0.5129 -0.4844
  699TIP3    H123512   5.382   3.667   5.100  0.2848  1.9482 -1.1047
  699TIP3    H223513   5.480   3.740   5.188  2.1026 -0.7267 -0.7882
  700TIP3   OH223514   5.961   0.414  11.953 -0.0374  0.1648  0.0905
  700TIP3    H123515   5.941   0.502  11.987 -1.0512  0.6686 -1.6700
  700TIP3    H223516   6.045   0.425  11.908  0.1654  0.0657  0.4440
  701TIP3   OH223517   6.268   4.640  14.488  0.2504 -0.0536  0.2550
  701TIP3    H123518   6.173   4.628  14.487  0.2603 -0.1572  0.6044
  701TIP3    H223519   6.285   4.690  14.568  0.4926 -0.0556  0.2037
  702TIP3   OH223520   0.904   1.966  14.432  0.1144  0.4898  0.1667
  702TIP3    H123521   0.972   1.900  14.442  0.4209  0.7338 -0.2537
  702TIP3    H223522   0.948   2.049  14.448 -0.2262  0.6077  0.5115
  703TIP3   OH223523   1.811   3.554   2.359  0.4190  0.0917  0.3634
  703TIP3    H123524   1.802   3.574   2.452  1.4417 -0.3256  0.5653
  703TIP3    H223525   1.753   3.479   2.345 -0.6683  0.8948  0.3793
  704TIP3   OH223526   3.317   5.108   5.681 -0.0845  0.7732 -0.2453
  704TIP3    H123527   3.359   5.135   5.599  0.7023  0.0883 -0.0836
  704TIP3    H223528   3.389   5.071   5.734 -0.2068  2.7569  1.4624
  705TIP3   OH223529   3.970   4.881  13.933 -0.0539 -0.2408 -0.3839
  705TIP3    H123530   4.031   4.816  13.966 -0.4975  0.7626  2.7804
  705TIP3    H223531   4.025   4.957  13.914 -0.0303 -0.0007  0.5614
  706TIP3   OH223532   2.997   4.410   2.379  0.1424 -0.5432  0.0898
  706TIP3    H123533   3.033   4.470   2.443 -0.9549  0.6256 -0.3653
  706TIP3    H223534   3.061   4.411   2.307 -1.3301  2.6357 -1.3574
  707TIP3   OH223535   1.467   3.732   5.455  0.0011 -0.4658  0.1164
  707TIP3    H123536   1.463   3.682   5.373  0.6972 -1.4692  0.6619
  707TIP3    H223537   1.386   3.710   5.500  0.9753 -2.4441  1.0537
  708TIP3   OH223538   1.170   2.321  12.495  0.7542 -0.4454 -0.1828
  708TIP3    H123539   1.106   2.266  12.451  3.2109 -0.9253 -3.6121
  708TIP3    H223540   1.119   2.376  12.555 -2.4735 -2.3376 -1.0035
  709TIP3   OH223541   3.063   2.076  11.965 -0.1117  0.0672 -0.3456
  709TIP3    H123542   3.118   2.104  12.038  1.8246 -0.4368 -1.5158
  709TIP3    H223543   3.125   2.039  11.902 -1.9309 -1.4026 -1.3630
  710TIP3   OH223544   0.994   2.337  13.372 -0.1843  0.9150  0.6452
  710TIP3    H123545   0.927   2.402  13.395 -1.0190 -0.5076  2.5766
  710TIP3    H223546   1.058   2.343  13.443 -1.2044 -1.5095  1.8952
  711TIP3   OH223547   1.589   1.584  12.027 -0.3207  0.0803 -0.3024
  711TIP3    H123548   1.602   1.525  11.953  0.7993 -0.0478 -0.0137
  711TIP3    H223549   1.587   1.672  11.988 -0.2180 -0.0215 -0.5380
  712TIP3   OH223550   5.075   6.650   3.942 -0.5139  0.1790 -0.7283
  712TIP3    H123551   5.160   6.646   3.986 -0.5276 -1.8259 -0.8093
  712TIP3    H223552   5.096   6.678   3.853 -0.1885  1.5921 -0.2379
  713TIP3   OH223553   2.121   4.025   1.432 -0.3372  0.7925  0.3694
  713TIP3    H123554   2.198   4.043   1.487  0.7793  1.7303 -1.4093
  713TIP3    H223555   2.120   4.097   1.369 -2.2408  0.3643 -0.1467
  714TIP3   OH223556   0.127   2.410  11.513  0.1321  0.1810  0.0072
  714TIP3    H123557   0.167   2.482  11.465  0.3434  0.2612  0.3010
  714TIP3    H223558   0.083   2.357  11.446 -1.6648  1.6081 -0.0304
  715TIP3   OH223559   2.821   2.989  10.347  0.4240 -0.3449  0.4060
  715TIP3    H123560   2.820   2.905  10.394  1.2641  1.0897  3.2655
  715TIP3    H223561   2.898   3.034  10.381  0.1039  1.5152 -1.1742
  716TIP3   OH223562   4.103   2.776   1.517  0.3398  0.4912 -0.2077
  716TIP3    H123563   4.147   2.828   1.450  1.3979  1.6149  1.2685
  716TIP3    H223564   4.107   2.686   1.485  3.3341  0.6001 -0.4230
  717TIP3   OH223565   6.447   1.737   0.999  0.9006  0.0319 -0.3368
  717TIP3    H123566   6.376   1.794   0.970 -0.5490 -1.9029 -0.7718
  717TIP3    H223567   6.483   1.781   1.076 -2.1821  0.1296  1.2205
  718TIP3   OH223568   0.377   2.179   5.869  0.1161 -0.6395 -0.0549
  718TIP3    H123569   0.430   2.232   5.809 -1.1631  0.2089 -0.4828
  718TIP3    H223570   0.307   2.143   5.814 -1.0115  0.0486  0.8899
  719TIP3   OH223571   3.660   2.007  12.627 -0.6096  0.2332  0.4792
  719TIP3    H123572   3.630   2.026  12.538 -0.9127 -0.8730  0.3360
  719TIP3    H223573   3.645   2.089  12.675  0.4476  1.1600 -0.6961
  720TIP3   OH223574   6.555   0.143   3.029 -0.5995 -0.1849 -0.2899
  720TIP3    H123575   6.619   0.148   2.958 -0.0244 -0.3226  0.2121
  720TIP3    H223576   6.593   0.082   3.092 -0.6236  0.6993  0.6139
  721TIP3   OH223577   2.686   6.080  15.334 -0.5192 -0.2654 -0.0674
  721TIP3    H123578   2.756   6.033  15.380 -0.0798 -1.0717 -1.4771
  721TIP3    H223579   2.704   6.173  15.351  0.5490 -0.4867  0.0889
  722TIP3   OH223580   0.801   0.557   6.754  0.1446 -0.0258 -0.0104
  722TIP3    H123581   0.707   0.540   6.755  0.1575 -0.5706  3.0030
  722TIP3    H223582   0.817   0.601   6.671 -3.0002  1.3024 -0.0549
  723TIP3   OH223583   2.591   5.388  15.118 -0.3669  0.0377 -0.3818
  723TIP3    H123584   2.594   5.339  15.200  0.2720  0.1032 -0.3585
  723TIP3    H223585   2.681   5.420  15.106 -0.6412  0.7190 -0.6857
  724TIP3   OH223586   4.719   4.477  13.774 -0.1522 -0.3880 -0.3977
  724TIP3    H123587   4.758   4.391  13.790  0.0929 -0.5942 -2.0103
  724TIP3    H223588   4.649   4.460  13.711 -0.2849  0.5551 -0.5148
  725TIP3   OH223589   1.909   3.517   1.084 -0.3199 -0.2676 -0.0230
  725TIP3    H123590   1.829   3.476   1.053 -1.1010  0.4104  1.0268
  725TIP3    H223591   1.895   3.529   1.178  0.1256  1.8075 -0.1684
  726TIP3   OH223592   4.605   1.211  12.908 -0.0783 -0.2392 -0.1831
  726TIP3    H123593   4.668   1.144  12.934 -0.5456 -0.4253  0.4834
  726TIP3    H223594   4.651   1.262  12.841 -0.7506 -3.0185 -2.9531
  727TIP3   OH223595   0.872   5.902  15.715  0.8183  0.4592 -0.1715
  727TIP3    H123596   0.923   5.961  15.771  1.2780  0.7187 -0.8510
  727TIP3    H223597   0.914   5.908  15.630  0.3064 -0.1623 -0.4750
  728TIP3   OH223598   3.457   1.913  11.173 -0.1805  0.2523  0.3593
  728TIP3    H123599   3.499   1.995  11.203  0.2466  0.1381  0.0788
  728TIP3    H223600   3.423   1.874  11.253  0.4748  0.2246  0.6320
  729TIP3   OH223601   5.761   4.696   3.667  0.0351  0.2834 -0.5506
  729TIP3    H123602   5.725   4.680   3.580  1.0255 -1.5921 -0.6725
  729TIP3    H223603   5.701   4.650   3.726  0.1037  0.4362 -0.3613
  730TIP3   OH223604   4.622   0.459   4.188 -0.4071 -0.4967 -0.2616
  730TIP3    H123605   4.657   0.370   4.195 -1.1624 -1.0681 -2.6217
  730TIP3    H223606   4.541   0.448   4.137  0.2625  1.6876 -1.9442
  731TIP3   OH223607   2.144   0.434  15.972 -0.5028  0.0170  0.5029
  731TIP3    H123608   2.078   0.498  16.001  0.0253  1.1379 -0.6568
  731TIP3    H223609   2.226   0.465  16.009 -0.2877 -0.1446  0.1681
  732TIP3   OH223610   5.549   1.524   6.021 -0.1077  0.5082  0.3285
  732TIP3    H123611   5.564   1.596   6.082 -0.4400 -0.5611  1.7331
  732TIP3    H223612   5.460   1.494   6.040  0.4799 -1.1083  0.7295
  733TIP3   OH223613   5.237   2.236  17.101  0.3884 -0.2482  0.3374
  733TIP3    H123614   5.256   2.259  17.192 -0.2048  2.6746 -0.1801
  733TIP3    H223615   5.323   2.222  17.061  0.8645  1.5183  0.6669
  734TIP3   OH223616   2.437   2.796   4.532  0.3021  0.1820 -0.5970
  734TIP3    H123617   2.445   2.704   4.557  2.2492  0.7259  0.9540
  734TIP3    H223618   2.526   2.830   4.534 -0.3569  2.0877 -1.3064
  735TIP3   OH223619   2.961   0.763  13.821 -0.1230  0.2885  0.1422
  735TIP3    H123620   3.016   0.822  13.873  2.8335 -1.3282 -0.9044
  735TIP3    H223621   2.951   0.684  13.876  0.9845 -0.4887 -0.7333
  736TIP3   OH223622   1.959   3.751   2.203  0.0644 -0.4217 -0.0476
  736TIP3    H123623   1.998   3.675   2.161  0.4009 -0.7015  0.7598
  736TIP3    H223624   1.902   3.715   2.271 -0.6878  0.0190 -0.4339
  737TIP3   OH223625   0.301   5.198   5.756 -0.2781  0.1295  0.0212
  737TIP3    H123626   0.388   5.229   5.779 -0.5179  0.9043 -0.0868
  737TIP3    H223627   0.295   5.208   5.661 -0.1024 -0.9371 -0.1098
  738TIP3   OH223628   6.359   2.739   2.667 -0.2729 -0.0569 -0.2833
  738TIP3    H123629   6.317   2.682   2.603 -1.8518 -0.3625  0.9653
  738TIP3    H223630   6.295   2.747   2.738  1.1042  0.8825  0.9143
  739TIP3   OH223631   6.299   4.153  15.246  0.2645  0.4814 -0.4564
  739TIP3    H123632   6.215   4.186  15.277  0.7106  0.6972  0.5612
  739TIP3    H223633   6.363   4.213  15.283  0.8458  0.5860 -1.5982
  740TIP3   OH223634   3.839   4.632  15.386 -0.2165  0.0518 -0.1460
  740TIP3    H123635   3.863   4.668  15.301  0.9640 -0.2547  0.0299
  740TIP3    H223636   3.877   4.544  15.387 -0.1373  0.0785  0.7107
  741TIP3   OH223637   2.121   1.037  15.825  0.4147 -0.2164 -0.2193
  741TIP3    H123638   2.201   1.011  15.871  0.8075  1.3905  0.0698
  741TIP3    H223639   2.150   1.100  15.759 -0.4344 -0.7972 -1.1766
  742TIP3   OH223640   4.842   3.911   5.762 -0.0957  0.1060 -0.7120
  742TIP3    H123641   4.804   3.828   5.790  0.9453 -0.1038  0.1279
  742TIP3    H223642   4.936   3.899   5.771  0.0639  1.5316 -0.1184
  743TIP3   OH223643   5.496   2.565  16.266  0.5552  0.6170 -0.0022
  743TIP3    H123644   5.529   2.588  16.180 -0.0953  1.7076  0.0145
  743TIP3    H223645   5.573   2.561  16.322  0.8323  1.5265 -0.3003
  744TIP3   OH223646   5.713   4.886   0.149 -0.5241  0.3276  0.4531
  744TIP3    H123647   5.689   4.979   0.152 -0.4287  0.3967 -0.4240
  744TIP3    H223648   5.715   4.865   0.055 -1.5106 -0.8251  0.6738
  745TIP3   OH223649   5.453   4.346   0.891 -0.1679  0.9545 -0.0731
  745TIP3    H123650   5.459   4.385   0.979 -0.3210  1.3690 -0.2447
  745TIP3    H223651   5.363   4.314   0.886  0.3622 -0.7416  0.6112
  746TIP3   OH223652   5.637   4.360   0.555 -0.0182 -0.5858  0.0574
  746TIP3    H123653   5.646   4.334   0.463  0.7519  1.0425 -0.3643
  746TIP3    H223654   5.602   4.282   0.598  1.1125 -1.9116 -1.3087
  747TIP3   OH223655   2.978   1.202   5.343 -0.3799 -0.1641 -0.3588
  747TIP3    H123656   2.917   1.133   5.368  0.0791  0.0131  1.3448
  747TIP3    H223657   2.978   1.201   5.247 -0.0201 -2.8556 -0.3983
  748TIP3   OH223658   0.571   2.050   3.959  0.2183 -0.0084 -0.5390
  748TIP3    H123659   0.529   2.019   3.879 -0.1625  1.4448 -0.9146
  748TIP3    H223660   0.663   2.024   3.949  0.0447 -0.4200 -1.1308
  749TIP3   OH223661   5.977   3.543   2.137  0.2325  0.3801  0.4784
  749TIP3    H123662   5.950   3.570   2.049 -1.1883  1.8223  1.2981
  749TIP3    H223663   6.070   3.523   2.129  0.0131 -0.0139 -1.4506
  750TIP3   OH223664   0.064   2.446   0.917  0.0401 -0.4670  0.1132
  750TIP3    H123665   0.023   2.493   0.844 -0.5973  0.3622  0.9788
  750TIP3    H223666   0.157   2.446   0.896 -0.0509  0.4031 -0.3490
  751TIP3   OH223667   2.575   1.281  15.716 -0.2509 -0.2053 -0.3111
  751TIP3    H123668   2.649   1.235  15.755 -0.3857 -1.6273 -1.6254
  751TIP3    H223669   2.529   1.320  15.791  1.4911  0.2433  0.5681
  752TIP3   OH223670   2.642   5.564   4.856  0.2737 -0.3827  0.2325
  752TIP3    H123671   2.649   5.476   4.818  1.1990  0.2516 -1.1449
  752TIP3    H223672   2.578   5.555   4.926 -0.3925 -1.9425 -0.5290
  753TIP3   OH223673   2.498   5.309   6.340  0.1954  0.1172 -0.1156
  753TIP3    H123674   2.585   5.310   6.302  0.3711  2.5727  0.1692
  753TIP3    H223675   2.513   5.325   6.434 -0.5717  1.2066 -0.1663
  754TIP3   OH223676   6.665   5.975   1.273 -0.2276  0.0642  0.2855
  754TIP3    H123677   6.623   5.936   1.349  0.5602 -0.7549  0.3206
  754TIP3    H223678   6.679   6.066   1.297 -0.7248  0.0144  0.7916
  755TIP3   OH223679   5.028   4.726   3.797  0.3369 -0.2482  0.2861
  755TIP3    H123680   4.985   4.743   3.881 -1.0697  0.1154 -0.4812
  755TIP3    H223681   5.092   4.796   3.789 -0.5190  0.5744  0.4112
  756TIP3   OH223682   1.930   0.172   1.220  0.1473  0.2687 -0.0883
  756TIP3    H123683   1.846   0.183   1.177 -0.5175 -1.4974  0.6587
  756TIP3    H223684   1.992   0.154   1.149 -0.7483 -1.6340 -0.4370
  757TIP3   OH223685   4.340   5.630  13.867 -0.0935 -0.3882 -0.3217
  757TIP3    H123686   4.290   5.683  13.930  0.2619 -1.0299  0.5229
  757TIP3    H223687   4.393   5.694  13.819 -0.1087  0.0914  0.2760
  758TIP3   OH223688   3.410   0.337   1.740 -0.3490  0.0804 -0.5005
  758TIP3    H123689   3.489   0.388   1.755 -0.6081  0.4466 -0.3534
  758TIP3    H223690   3.406   0.325   1.646 -0.4287  0.5732 -0.5632
  759TIP3   OH223691   3.078   1.778  10.923  0.0797  0.4629 -0.4017
  759TIP3    H123692   3.072   1.867  10.957 -1.6127  0.2609 -0.0753
  759TIP3    H223693   3.150   1.781  10.860  0.9095  1.7202  0.5504
  760TIP3   OH223694   4.410   5.477  12.895  0.2654  0.5338 -0.1142
  760TIP3    H123695   4.497   5.498  12.929  1.2451 -0.7766 -1.6594
  760TIP3    H223696   4.391   5.548  12.834  1.4577 -0.4673 -1.7389
  761TIP3   OH223697   0.716   4.388   2.177  0.0749  0.2574 -1.1341
  761TIP3    H123698   0.785   4.327   2.204  0.1906  0.9019  0.0755
  761TIP3    H223699   0.763   4.464   2.143  0.1030  1.8132  2.0885
  762TIP3   OH223700   2.585   0.484  11.600  0.0999 -0.5695 -0.1418
  762TIP3    H123701   2.552   0.396  11.615 -4.6100  1.2471  1.9451
  762TIP3    H223702   2.561   0.504  11.510 -1.4956 -0.4716  0.2877
  763TIP3   OH223703   5.971   0.697   4.318  0.0324  0.4180  0.0459
  763TIP3    H123704   6.028   0.690   4.395  0.9461  2.1680 -0.4172
  763TIP3    H223705   6.013   0.763   4.264 -1.2698  0.1180 -1.3882
  764TIP3   OH223706   5.793   3.047   0.263  0.2476  0.3358 -0.0878
  764TIP3    H123707   5.837   3.084   0.339  1.1011 -0.1950 -0.3159
  764TIP3    H223708   5.708   3.017   0.297  0.4078  0.5764  0.5359
  765TIP3   OH223709   0.636   3.692  15.266  0.2527  0.5937 -0.2561
  765TIP3    H123710   0.563   3.636  15.294  1.7358  0.3365  3.6463
  765TIP3    H223711   0.654   3.664  15.176 -1.5288 -2.4938  0.2050
  766TIP3   OH223712   1.578   6.218   5.765  0.4709  0.2742 -0.9172
  766TIP3    H123713   1.503   6.277   5.775  1.7208  1.9933 -1.2432
  766TIP3    H223714   1.576   6.163   5.843 -1.0943  0.3023 -0.9023
  767TIP3   OH223715   4.499   3.126   1.294 -0.5479 -0.3448 -0.2235
  767TIP3    H123716   4.458   3.039   1.294  0.1133 -0.7236  2.0245
  767TIP3    H223717   4.586   3.111   1.331  0.9048  0.7981 -2.8881
  768TIP3   OH223718   4.535   5.458   4.483  0.0428  0.5827  0.0506
  768TIP3    H123719   4.600   5.388   4.483  0.1406  0.6733  0.1367
  768TIP3    H223720   4.565   5.518   4.551 -0.1432  0.6128  0.1051
  769TIP3   OH223721   2.004   0.770  16.746 -0.0164  0.3535  0.0110
  769TIP3    H123722   2.092   0.734  16.732 -0.7242 -1.5244  0.0778
  769TIP3    H223723   1.975   0.796  16.659  0.3823  0.4098 -0.1074
  770TIP3   OH223724   0.736   4.863  16.371 -0.2348  0.1744  0.3022
  770TIP3    H123725   0.658   4.871  16.426  0.1644 -3.0250  1.5903
  770TIP3    H223726   0.706   4.890  16.284 -3.2023 -1.9336  0.4919
  771TIP3   OH223727   3.192   2.009   1.663 -0.7342 -0.0188 -0.6805
  771TIP3    H123728   3.273   2.007   1.612 -1.3496  1.8303 -1.8027
  771TIP3    H223729   3.128   1.966   1.607 -0.6256 -1.3023  0.1274
  772TIP3   OH223730   5.070   5.964  11.902  1.3264  0.4380 -0.3773
  772TIP3    H123731   5.007   5.895  11.884  0.3938  1.0784  0.3209
  772TIP3    H223732   5.016   6.037  11.933  2.5193  0.5948  1.4389
  773TIP3   OH223733   3.067   1.324   0.352 -0.1209 -0.3171  0.1241
  773TIP3    H123734   3.056   1.328   0.257  0.1795  3.1216  0.1147
  773TIP3    H223735   2.978   1.310   0.386 -0.3495 -0.6954 -0.6076
  774TIP3   OH223736   2.075   0.955   0.916 -0.0372 -0.3142 -0.2765
  774TIP3    H123737   2.111   0.972   1.003  0.8719 -1.9244 -0.2854
  774TIP3    H223738   2.066   1.041   0.876  1.8312  0.3176  0.5385
  775TIP3   OH223739   5.415   5.132   3.390  0.5473  0.4705  0.7432
  775TIP3    H123740   5.332   5.084   3.396 -0.6374  1.7341 -2.8682
  775TIP3    H223741   5.397   5.217   3.430 -0.3131  1.1084 -0.9045
  776TIP3   OH223742   5.975   5.330  16.562 -0.2777  0.7349 -0.5291
  776TIP3    H123743   5.916   5.384  16.509 -2.1228  0.8768  1.5519
  776TIP3    H223744   5.954   5.240  16.537  0.3082  0.8388 -1.4543
  777TIP3   OH223745   3.137   5.331   3.999 -0.1423 -0.0487 -0.0598
  777TIP3    H123746   3.222   5.326   3.954 -0.3072  0.0776 -0.3879
  777TIP3    H223747   3.100   5.244   3.989  0.1235 -0.2194  0.4306
  778TIP3   OH223748   5.813   6.600   5.721 -0.0664  0.2069  0.5836
  778TIP3    H123749   5.884   6.660   5.700  0.7594 -0.8062  0.3879
  778TIP3    H223750   5.791   6.619   5.812 -0.2233  1.1951  0.3475
  779TIP3   OH223751   3.598   3.367   0.579  0.2635 -0.0393 -0.3498
  779TIP3    H123752   3.522   3.406   0.623 -1.0964 -0.9598 -1.7858
  779TIP3    H223753   3.581   3.272   0.583  1.3993 -0.2576 -0.6120
  780TIP3   OH223754   3.003   6.549   4.418 -0.5949 -0.1606  0.3430
  780TIP3    H123755   3.031   6.468   4.377 -2.8815  0.2901 -2.3713
  780TIP3    H223756   2.940   6.522   4.485  0.5994 -0.6930  1.3010
  781TIP3   OH223757   4.548   1.804   5.880  0.0274 -0.1046  0.0504
  781TIP3    H123758   4.540   1.777   5.972 -0.8652  0.0600  0.0309
  781TIP3    H223759   4.463   1.784   5.841  0.0123  0.8672 -0.4567
  782TIP3   OH223760   2.894   0.881  16.842 -0.4148  0.1735  0.1370
  782TIP3    H123761   2.868   0.970  16.865 -1.1957  0.0254 -0.1374
  782TIP3    H223762   2.814   0.840  16.810 -0.2455 -0.8742  1.0056
  783TIP3   OH223763   2.025   1.729   2.076 -0.5756 -0.6635 -0.0252
  783TIP3    H123764   2.063   1.757   1.993 -0.5319 -0.4497  0.0652
  783TIP3    H223765   1.932   1.749   2.068 -0.3511  0.7232  0.5239
  784TIP3   OH223766   5.206   6.597   0.785  0.1350  0.2429 -0.6079
  784TIP3    H123767   5.202   6.637   0.872  0.5719 -0.0143 -0.4653
  784TIP3    H223768   5.279   6.535   0.790  0.8298  0.9557 -1.4605
  785TIP3   OH223769   5.520   4.602  15.624  0.1596  0.0812 -0.2337
  785TIP3    H123770   5.508   4.565  15.711 -1.3499 -1.8426 -1.1869
  785TIP3    H223771   5.435   4.640  15.601  0.5449  0.5822 -0.8841
  786TIP3   OH223772   5.735   1.072  16.310  0.5740 -0.1687  0.2090
  786TIP3    H123773   5.742   1.082  16.405 -0.8444  0.0411  0.3188
  786TIP3    H223774   5.823   1.051  16.281  0.9135 -0.8397  1.6510
  787TIP3   OH223775   0.797   0.741   4.057 -0.4079 -0.5881  0.9199
  787TIP3    H123776   0.793   0.653   4.095  0.6994 -0.8157  0.5477
  787TIP3    H223777   0.719   0.747   4.001 -1.2944 -0.7646  2.0996
  788TIP3   OH223778   0.008   2.307  14.985 -0.3063 -0.5927 -0.1180
  788TIP3    H123779   0.093   2.268  15.007 -0.0339 -0.5519 -1.0428
  788TIP3    H223780  -0.014   2.270  14.899 -1.6004 -1.1968  0.4471
  789TIP3   OH223781   4.736   6.052   5.434  0.3236  0.2171  0.1601
  789TIP3    H123782   4.822   6.083   5.405  0.7799  0.3060  1.5603
  789TIP3    H223783   4.674   6.113   5.395  1.0833  1.7800  1.2953
  790TIP3   OH223784   2.563   2.705   4.218  0.6687 -0.0374 -0.1511
  790TIP3    H123785   2.552   2.680   4.126  2.1538  0.5881 -0.5372
  790TIP3    H223786   2.541   2.799   4.219  0.3328 -0.1227  0.1927
  791TIP3   OH223787   0.035   3.816   0.426 -0.0159 -0.1166 -0.5362
  791TIP3    H123788   0.113   3.767   0.398 -0.2005 -0.4655 -0.4497
  791TIP3    H223789   0.070   3.887   0.481  0.1152 -1.7094  1.5735
  792TIP3   OH223790   4.103   3.384  14.813  0.7027 -0.0839 -0.3972
  792TIP3    H123791   4.188   3.366  14.853  2.1315  3.1217 -1.6457
  792TIP3    H223792   4.112   3.356  14.722  0.7400  0.9398 -0.7236
  793TIP3   OH223793   5.279   1.423  14.747  0.2235 -0.0046 -0.2941
  793TIP3    H123794   5.344   1.387  14.809 -0.1856 -1.4880 -0.6969
  793TIP3    H223795   5.255   1.350  14.692  0.3904  1.2385 -2.1003
  794TIP3   OH223796   3.317   3.176  14.324 -0.4836 -0.1606  0.0618
  794TIP3    H123797   3.324   3.164  14.418  0.3059 -0.7463 -0.0550
  794TIP3    H223798   3.408   3.176  14.293 -0.6538  1.4179 -0.5459
  795TIP3   OH223799   1.440   6.212  12.901 -0.1305 -0.2978  0.4437
  795TIP3    H123800   1.365   6.269  12.885  1.8113  1.9307 -1.4512
  795TIP3    H223801   1.492   6.258  12.966  0.5602 -0.8281  0.2768
  796TIP3   OH223802   1.205   1.199   5.446 -0.0341  0.2150 -0.6498
  796TIP3    H123803   1.221   1.148   5.525  0.9642  0.7384 -0.5064
  796TIP3    H223804   1.234   1.287   5.467 -1.7474  0.8718 -0.8956
  797TIP3   OH223805   5.067   1.914  12.263 -0.2247 -0.4206 -0.6842
  797TIP3    H123806   5.035   1.860  12.335  0.7414 -1.3218 -0.9209
  797TIP3    H223807   5.068   1.856  12.188  1.2765 -0.2144 -0.8439
  798TIP3   OH223808   1.337   6.599   5.237 -0.5388 -0.5944 -0.0843
  798TIP3    H123809   1.307   6.689   5.246  1.1252 -0.0687  0.5628
  798TIP3    H223810   1.271   6.547   5.284  0.6508  0.7324  3.3891
  799TIP3   OH223811   1.796   6.576  16.265  0.1924  0.0849 -0.5890
  799TIP3    H123812   1.758   6.645  16.318 -1.4277 -0.3702 -1.0948
  799TIP3    H223813   1.825   6.510  16.328 -0.0369  0.3575 -0.1930
  800TIP3   OH223814   0.301   5.867  16.585  0.0763 -0.7626 -0.2825
  800TIP3    H123815   0.332   5.892  16.672  2.2572 -1.5002 -0.7827
  800TIP3    H223816   0.246   5.790  16.600  1.0916 -1.3797  0.3905
  801TIP3   OH223817   1.842   6.736   1.388  0.0620 -0.4012 -0.3088
  801TIP3    H123818   1.916   6.676   1.389 -0.5067 -1.1649 -1.6899
  801TIP3    H223819   1.881   6.823   1.387  0.8992 -0.7205  1.0985
  802TIP3   OH223820   5.324   4.834  15.528 -0.6143 -0.8635 -0.0487
  802TIP3    H123821   5.246   4.886  15.545 -0.3138 -0.9331  1.6989
  802TIP3    H223822   5.312   4.802  15.438 -2.0294  0.0669 -0.2253
  803TIP3   OH223823   1.517   5.299   3.974  0.2846 -0.2469  0.6755
  803TIP3    H123824   1.498   5.382   4.018 -0.0285  0.3699 -0.5750
  803TIP3    H223825   1.601   5.272   4.010  0.6217  0.8581  0.7774
  804TIP3   OH223826   0.237   5.827  16.175  0.3436 -0.1597  0.0028
  804TIP3    H123827   0.150   5.806  16.208 -0.1976 -0.4321 -1.5012
  804TIP3    H223828   0.288   5.747  16.190 -0.5626 -1.1779 -1.9005
  805TIP3   OH223829   6.534   1.526   3.016 -0.1759 -0.1134 -0.3143
  805TIP3    H123830   6.446   1.486   3.019  1.2831 -3.7467 -0.2671
  805TIP3    H223831   6.522   1.613   3.053 -3.7332 -0.4910 -0.2077
  806TIP3   OH223832   4.123   1.631   3.386  0.0370  0.3091 -0.1208
  806TIP3    H123833   4.050   1.691   3.400  0.0950  0.1827  0.7912
  806TIP3    H223834   4.201   1.685   3.402  0.0737 -0.2270  1.7606
  807TIP3   OH223835   1.825   3.927  11.247 -0.1379 -0.3091 -0.1218
  807TIP3    H123836   1.902   3.877  11.274 -0.2879 -0.3279  0.2716
  807TIP3    H223837   1.803   3.893  11.160 -0.3929 -1.0976  0.2515
  808TIP3   OH223838   6.627   6.289  11.139  0.0985 -0.6771 -0.4146
  808TIP3    H123839   6.650   6.353  11.072 -0.3270  0.3780  0.4038
  808TIP3    H223840   6.663   6.207  11.107  1.7847  0.1952 -0.9004
  809TIP3   OH223841   4.864   6.118   2.412 -0.3723  0.0774 -0.8314
  809TIP3    H123842   4.799   6.177   2.451 -0.1171  2.1016 -3.3081
  809TIP3    H223843   4.812   6.041   2.386 -0.5273 -1.5544  3.4392
  810TIP3   OH223844   4.488   4.997  14.591 -0.2342 -0.0055  0.0569
  810TIP3    H123845   4.486   4.910  14.630  0.6495 -0.2453 -0.4090
  810TIP3    H223846   4.515   5.055  14.662 -0.6272 -0.1332  0.3135
  811TIP3   OH223847   5.534   5.384  16.872 -0.4712 -0.0176  0.6746
  811TIP3    H123848   5.571   5.469  16.849  0.0225 -0.4049  0.0248
  811TIP3    H223849   5.557   5.326  16.799  1.1683 -1.3019  2.1073
  812TIP3   OH223850   0.891   4.169   6.039  0.4110 -0.2139  0.3688
  812TIP3    H123851   0.881   4.257   6.004  0.2717 -0.0570  0.7963
  812TIP3    H223852   0.985   4.159   6.054  0.4415 -0.1884  0.1951
  813TIP3   OH223853   4.950   1.323  11.968 -0.1302 -0.1213 -0.0076
  813TIP3    H123854   4.964   1.265  11.894  0.1852  1.9283 -1.6483
  813TIP3    H223855   4.892   1.274  12.026  0.5506 -2.2531 -1.0162
  814TIP3   OH223856   6.255   1.616  16.895  0.1063  0.0555  0.0809
  814TIP3    H123857   6.321   1.546  16.904 -1.4526 -1.5446 -0.4277
  814TIP3    H223858   6.297   1.693  16.934  2.8880 -0.4569 -1.6571
  815TIP3   OH223859   2.068   0.725  13.788  0.7977 -0.0040 -0.5105
  815TIP3    H123860   2.162   0.720  13.772  1.3908 -1.2007  2.5698
  815TIP3    H223861   2.045   0.639  13.824 -1.8345 -0.2419 -2.4176
  816TIP3   OH223862   5.582   0.071  15.069  0.5245  0.0498  0.0881
  816TIP3    H123863   5.615   0.043  14.984  0.9219 -0.0009  0.2578
  816TIP3    H223864   5.660   0.075  15.125  0.2078 -0.3415  0.5668
  817TIP3   OH223865   0.519   1.133   1.391  0.7518 -0.0718  0.1689
  817TIP3    H123866   0.502   1.053   1.342  0.0328  0.3883 -0.3502
  817TIP3    H223867   0.449   1.137   1.456  1.2994 -0.3194  0.7803
  818TIP3   OH223868   5.794   4.706  14.230  0.2204 -0.2748  0.4652
  818TIP3    H123869   5.710   4.718  14.274  0.4072 -1.2944  1.1104
  818TIP3    H223870   5.776   4.730  14.139 -0.3521  1.0984  0.9133
  819TIP3   OH223871   4.089   3.830   4.393  0.7584 -0.0687  0.4514
  819TIP3    H123872   4.088   3.836   4.298  0.6242  1.4493  0.5204
  819TIP3    H223873   4.023   3.893   4.422  1.0502 -0.2441  1.5605
  820TIP3   OH223874   5.244   1.531   3.873 -0.2945  0.2644  0.2183
  820TIP3    H123875   5.255   1.541   3.778  0.4076  0.5185  0.3160
  820TIP3    H223876   5.231   1.437   3.885  0.0548  0.1711 -0.0959
  821TIP3   OH223877   1.091   3.268  13.455 -0.5102 -0.0178  0.2432
  821TIP3    H123878   1.127   3.318  13.381 -0.4773  0.1035  0.3406
  821TIP3    H223879   1.154   3.283  13.526  0.1389 -1.1609 -0.0615
  822TIP3   OH223880   3.520   4.382   1.394  0.3183 -0.5152 -0.6688
  822TIP3    H123881   3.588   4.402   1.458  0.8902 -0.7852 -1.1784
  822TIP3    H223882   3.468   4.462   1.388 -0.9671 -1.1162  1.5910
  823TIP3   OH223883   5.294   4.358   0.003 -0.1224  0.2384  0.4413
  823TIP3    H123884   5.295   4.335  -0.090  0.3163  1.0747  0.2377
  823TIP3    H223885   5.226   4.301   0.041 -1.0426  0.6327 -0.5736
  824TIP3   OH223886   0.210   4.438  16.429 -0.1094  0.6455 -0.2352
  824TIP3    H123887   0.144   4.501  16.456  1.7662  2.4688  0.3108
  824TIP3    H223888   0.258   4.418  16.509  1.5786  1.3234 -1.0469
  825TIP3   OH223889   3.089   0.553   2.382 -0.5741 -0.1426 -0.1268
  825TIP3    H123890   3.075   0.541   2.476 -2.0119 -1.4440 -0.4672
  825TIP3    H223891   3.084   0.465   2.345  1.3425  0.1706 -1.2944
  826TIP3   OH223892   3.366   0.486   3.074 -0.2902  0.3742 -0.2807
  826TIP3    H123893   3.445   0.461   3.121 -1.3807  1.8338  2.5694
  826TIP3    H223894   3.397   0.533   2.997  1.5903 -2.2759 -1.2820
  827TIP3   OH223895   5.022   6.023   6.617 -0.3025  0.8204  0.4158
  827TIP3    H123896   4.971   5.945   6.639  0.8892 -0.2915 -0.6086
  827TIP3    H223897   4.968   6.070   6.553 -0.1629 -0.2442 -0.5170
  828TIP3   OH223898   4.034   0.481   0.114 -0.0328  0.2409  0.4985
  828TIP3    H123899   4.010   0.396   0.076  2.0727  0.0441 -0.5810
  828TIP3    H223900   4.031   0.466   0.208 -1.4425 -0.4900  0.3569
  829TIP3   OH223901   5.026   0.219   0.002 -0.1222 -0.0306  0.3274
  829TIP3    H123902   5.016   0.136   0.049  0.2788  0.8549  2.0739
  829TIP3    H223903   5.095   0.201  -0.063  2.5976 -0.2152  3.0169
  830TIP3   OH223904   1.548   1.988   1.977 -0.2073  0.1327  0.1490
  830TIP3    H123905   1.480   1.963   2.040  0.5826  1.0748  1.4089
  830TIP3    H223906   1.519   1.948   1.895 -0.2463 -2.8480  1.4716
  831TIP3   OH223907   4.353   3.137  13.898  0.3978  0.2137  0.3756
  831TIP3    H123908   4.321   3.087  13.974  2.1567 -0.4702  0.7288
  831TIP3    H223909   4.307   3.221  13.904  0.2889  0.0859  2.0779
  832TIP3   OH223910   0.704   3.314  11.318 -0.5632 -0.4432 -0.3955
  832TIP3    H123911   0.683   3.405  11.341 -0.3024 -0.3861 -0.3773
  832TIP3    H223912   0.769   3.288  11.383 -1.3625 -0.9738  0.2149
  833TIP3   OH223913   4.586   1.937   3.389 -0.1352  0.5530  0.3099
  833TIP3    H123914   4.625   1.856   3.356  0.0958  1.1578 -0.9663
  833TIP3    H223915   4.634   2.006   3.345 -1.9352  1.3438 -0.5044
  834TIP3   OH223916   1.121   3.782  17.003  0.1894  0.3758  0.9259
  834TIP3    H123917   1.164   3.865  17.019 -0.9864  0.9949  1.0265
  834TIP3    H223918   1.027   3.803  17.003 -0.0870 -0.3349 -2.3406
  835TIP3   OH223919   5.178   0.189   3.036  0.3152 -0.4273 -0.2114
  835TIP3    H123920   5.128   0.178   3.117  0.9768 -1.7316  0.0523
  835TIP3    H223921   5.206   0.100   3.013  2.2505  0.1928 -0.4976
  836TIP3   OH223922   5.857   5.493   2.370  0.4299 -0.1718  0.2479
  836TIP3    H123923   5.822   5.554   2.435  1.2208 -1.3654  1.8501
  836TIP3    H223924   5.949   5.516   2.363  0.2292  0.3807 -1.0130
  837TIP3   OH223925   2.722   0.870  15.565 -0.0524 -0.2549  0.1489
  837TIP3    H123926   2.680   0.832  15.642 -0.4361 -0.8692 -0.3590
  837TIP3    H223927   2.807   0.825  15.560  0.7774  1.0978  1.2670
  838TIP3   OH223928   6.393   2.488  14.430  0.3338 -0.2245 -0.0833
  838TIP3    H123929   6.336   2.471  14.505 -0.5957 -0.9043 -0.9209
  838TIP3    H223930   6.403   2.403  14.388  0.8289  0.1545 -0.7503
  839TIP3   OH223931   5.538   5.728  11.780  0.1495  0.4404  0.9776
  839TIP3    H123932   5.444   5.745  11.783  0.0029 -0.4237  1.8652
  839TIP3    H223933   5.578   5.809  11.812 -0.2974  0.7376  0.7942
  840TIP3   OH223934   0.604   6.298  14.847  0.0485  0.1474 -0.5249
  840TIP3    H123935   0.573   6.306  14.937 -1.2134 -0.1939 -0.9084
  840TIP3    H223936   0.624   6.205  14.836  2.3732  0.5099  0.0488
  841TIP3   OH223937   1.555   5.414  16.398 -0.4760  0.6262 -0.7239
  841TIP3    H123938   1.463   5.425  16.374 -0.3544  1.9392 -0.6275
  841TIP3    H223939   1.561   5.323  16.427 -1.6113  0.3560 -1.2950
  842TIP3   OH223940   0.170   0.788   2.574 -0.0009 -0.4159 -0.3085
  842TIP3    H123941   0.118   0.818   2.649 -0.0926 -0.0374 -0.5221
  842TIP3    H223942   0.257   0.824   2.589 -0.3685  0.8516 -1.0905
  843TIP3   OH223943   1.991   6.292   1.271 -0.0446 -0.4006  0.4588
  843TIP3    H123944   1.908   6.304   1.317  0.0647 -0.4840  0.6816
  843TIP3    H223945   1.974   6.221   1.210  0.1493 -1.1213  1.2252
  844TIP3   OH223946   3.852   0.918   5.339 -0.1255 -0.2721 -0.0030
  844TIP3    H123947   3.921   0.884   5.283 -0.3959 -0.9195  0.0483
  844TIP3    H223948   3.897   0.973   5.402  0.3846 -0.9625  0.2436
  845TIP3   OH223949   3.753   5.090  17.010  0.1328  0.0124 -0.1404
  845TIP3    H123950   3.780   5.091  17.102  2.0933  0.1821 -0.6814
  845TIP3    H223951   3.784   5.005  16.977  0.9844  0.6666 -1.0681
  846TIP3   OH223952   3.586   0.252  12.007  0.2758 -0.2350  0.1250
  846TIP3    H123953   3.607   0.160  12.022 -1.3850 -1.1698 -2.4872
  846TIP3    H223954   3.490   0.253  12.001  0.1276  2.0351  1.9122
  847TIP3   OH223955   1.958   0.727   3.837 -0.1150  0.2219 -0.1758
  847TIP3    H123956   1.976   0.659   3.902  0.6265  1.8775  1.4085
  847TIP3    H223957   1.873   0.763   3.862  0.1105  0.7809 -0.2095
  848TIP3   OH223958   5.799   1.830  16.359  0.2876 -0.7024 -0.0569
  848TIP3    H123959   5.814   1.764  16.426 -1.6924 -1.3637 -0.1901
  848TIP3    H223960   5.776   1.780  16.280  1.3380  0.0972 -0.9080
  849TIP3   OH223961   4.131   4.372  12.704 -0.2657 -0.2474 -0.5492
  849TIP3    H123962   4.052   4.426  12.700 -0.4834 -0.6111 -1.2470
  849TIP3    H223963   4.119   4.317  12.781 -0.5166 -0.0395 -0.4371
  850TIP3   OH223964   1.004   6.523  13.742 -0.2058 -0.0014 -0.4110
  850TIP3    H123965   1.051   6.464  13.801  0.6519  0.6311 -0.4345
  850TIP3    H223966   1.063   6.598  13.732 -0.5400  0.1085 -1.6987
  851TIP3   OH223967   6.540   4.285  15.344  0.1519  0.4657 -0.3459
  851TIP3    H123968   6.531   4.339  15.424  0.4214 -0.1575  0.1096
  851TIP3    H223969   6.588   4.208  15.373  0.4297  0.3317 -1.1687
  852TIP3   OH223970   5.871   4.447  16.180  0.5039  0.1318  0.3045
  852TIP3    H123971   5.893   4.394  16.103 -0.6325  0.1797 -0.0643
  852TIP3    H223972   5.941   4.511  16.185  1.1836 -0.5631 -0.0407
  853TIP3   OH223973   0.745   3.153  16.552 -0.0667 -0.3908  0.4615
  853TIP3    H123974   0.724   3.194  16.636 -2.5645  1.0139 -0.7215
  853TIP3    H223975   0.824   3.102  16.569  0.7492  1.5160  3.1314
  854TIP3   OH223976   2.661   5.139   1.689  0.3679  0.1805 -0.6320
  854TIP3    H123977   2.662   5.202   1.761 -3.0701 -1.4568  1.0535
  854TIP3    H223978   2.753   5.132   1.663  1.6007  1.8215  2.7103
  855TIP3   OH223979   6.333   2.506   5.139  0.5047  0.1715  0.6114
  855TIP3    H123980   6.335   2.477   5.230  0.3004  1.3696  1.0134
  855TIP3    H223981   6.424   2.526   5.117  0.2823  2.2766  1.3821
  856TIP3   OH223982   6.074   2.477   1.690 -0.0755  0.2336  0.0235
  856TIP3    H123983   6.142   2.542   1.709  0.4069 -0.4504  0.7363
  856TIP3    H223984   6.056   2.436   1.775 -0.1264 -0.7913 -0.4638
  857TIP3   OH223985   0.961   2.776   0.331 -0.6686  0.2067 -0.4609
  857TIP3    H123986   0.984   2.861   0.295  0.9383  0.3604  0.7766
  857TIP3    H223987   1.046   2.733   0.346 -1.4251 -1.3867 -0.5490
  858TIP3   OH223988   4.646   0.163   0.377  0.2898 -0.3110  0.0896
  858TIP3    H123989   4.735   0.131   0.365  0.3704  0.5713 -2.2665
  858TIP3    H223990   4.653   0.228   0.447  1.2452 -1.0613  0.7188
  859TIP3   OH223991   6.036   1.278   0.575 -0.2802 -0.2618 -0.5182
  859TIP3    H123992   5.960   1.237   0.617  0.4156 -1.0683 -0.0175
  859TIP3    H223993   6.067   1.213   0.512  1.0121 -0.6629  0.4859
  860TIP3   OH223994   0.277   5.310   5.472  0.0106  0.2343  0.0198
  860TIP3    H123995   0.247   5.348   5.390 -1.0932  1.9166  1.1488
  860TIP3    H223996   0.341   5.373   5.506  0.0231 -0.1525  0.7365
  861TIP3   OH223997   1.684   2.283  15.216  0.0305 -0.0244  0.5786
  861TIP3    H123998   1.729   2.271  15.299  1.6470  3.6186  0.4091
  861TIP3    H223999   1.591   2.269  15.237  0.6394 -2.4910  2.1178
  862TIP3   OH224000   5.770   4.124  10.879  0.0489 -0.1939 -0.3990
  862TIP3    H124001   5.724   4.179  10.942  0.5410 -1.3063  0.9890
  862TIP3    H224002   5.739   4.035  10.898  0.6561 -0.6174 -1.3304
  863TIP3   OH224003   0.961   1.978   0.074  0.1497 -0.2824 -0.1085
  863TIP3    H124004   1.009   2.046   0.027  1.7858 -1.6996 -0.5856
  863TIP3    H224005   0.894   2.025   0.123 -0.2807  1.4621 -2.2038
  864TIP3   OH224006   0.469   6.445   6.655  0.5774  0.7835  0.0992
  864TIP3    H124007   0.409   6.391   6.706 -1.1820  3.0468  0.5923
  864TIP3    H224008   0.426   6.454   6.570  1.7423 -0.0014 -0.6031
  865TIP3   OH224009   6.563   4.643  12.251  0.1697 -0.3508 -0.4068
  865TIP3    H124010   6.572   4.570  12.312  3.1005  0.9209  0.8994
  865TIP3    H224011   6.640   4.698  12.269 -1.5674  2.7368 -1.7402
  866TIP3   OH224012   0.583   3.633   4.160  0.0535 -0.3076  0.4057
  866TIP3    H124013   0.641   3.698   4.120  1.9948 -1.3464  1.3552
  866TIP3    H224014   0.498   3.647   4.118  0.5170  2.4322  0.1838
  867TIP3   OH224015   0.464   6.033   1.496  0.5398  0.0267  0.3694
  867TIP3    H124016   0.435   6.107   1.550  1.2384  0.4580  0.1634
  867TIP3    H224017   0.385   5.981   1.483  0.2456  0.1929  1.3671
  868TIP3   OH224018   2.727   4.949   4.514 -0.9053 -0.0506  0.6454
  868TIP3    H124019   2.775   4.959   4.596 -0.5538 -1.5778  0.6607
  868TIP3    H224020   2.794   4.929   4.449 -1.3072 -0.0941  0.2365
  869TIP3   OH224021   6.112   0.837   3.959  0.2580 -0.3172 -0.4981
  869TIP3    H124022   6.159   0.876   4.033  0.8686 -0.9717 -0.5267
  869TIP3    H224023   6.180   0.822   3.893 -0.1203 -0.5972 -0.8270
  870TIP3   OH224024   5.291   5.215   2.151 -0.9030 -0.3517 -0.7003
  870TIP3    H124025   5.329   5.298   2.180 -0.6607 -1.2181  1.7197
  870TIP3    H224026   5.295   5.159   2.228 -0.3691 -2.8902 -2.4486
  871TIP3   OH224027   4.309   1.537  15.437 -0.0401  0.1918 -0.5313
  871TIP3    H124028   4.396   1.509  15.463  0.0992  0.2650 -0.9019
  871TIP3    H224029   4.293   1.617  15.486 -0.7552 -0.9159  1.1190
  872TIP3   OH224030   3.080   1.153   0.914 -0.0608 -0.6491 -0.7696
  872TIP3    H124031   3.171   1.136   0.892  0.5540  1.9255 -0.5371
  872TIP3    H224032   3.080   1.161   1.010 -0.7108 -1.4348 -0.6926
  873TIP3   OH224033   4.833   3.609   3.382 -0.3862 -0.7352  0.3090
  873TIP3    H124034   4.740   3.602   3.359 -0.4296 -2.0541  0.7980
  873TIP3    H224035   4.877   3.546   3.324  0.0234 -1.0512  0.9459
  874TIP3   OH224036   4.555   3.003  17.036 -0.1160 -0.5098 -0.0128
  874TIP3    H124037   4.517   2.959  16.960 -0.7582  0.6696 -0.4057
  874TIP3    H224038   4.500   2.975  17.110 -0.6074 -0.2561 -0.2808
  875TIP3   OH224039   4.965   4.497  16.912 -0.4124  0.0592  0.1206
  875TIP3    H124040   4.994   4.452  16.832 -0.8590  0.0783 -0.0574
  875TIP3    H224041   4.896   4.556  16.882 -0.2195  0.4506  0.4436
  876TIP3   OH224042   3.237   3.851   0.550 -0.0117  0.3198 -0.1275
  876TIP3    H124043   3.255   3.781   0.612  0.4447 -1.9228 -2.5900
  876TIP3    H224044   3.317   3.858   0.498 -1.1591  0.3739 -1.9751
  877TIP3   OH224045   0.936   5.196  15.837  0.8554 -0.5112 -0.5583
  877TIP3    H124046   0.932   5.145  15.918  0.1841  0.6536  0.1676
  877TIP3    H224047   0.975   5.280  15.863  1.7231 -0.5369 -1.6811
  878TIP3   OH224048   0.413   5.181   3.874 -0.0742  0.0582  0.3003
  878TIP3    H124049   0.465   5.201   3.796 -1.3829  3.6894  0.1502
  878TIP3    H224050   0.325   5.162   3.840 -1.0159  3.0462  0.7752
  879TIP3   OH224051   3.912   4.077  12.835  0.0396 -0.3344  0.0438
  879TIP3    H124052   3.965   4.142  12.881 -0.3896  0.2626 -0.2981
  879TIP3    H224053   3.943   4.081  12.744  0.1323 -0.7317  0.0566
  880TIP3   OH224054   1.929   4.445  12.397 -0.4335 -0.0994 -0.5328
  880TIP3    H124055   1.886   4.494  12.467  0.8939  1.4031 -0.7028
  880TIP3    H224056   2.008   4.409  12.438 -0.8441 -1.2122 -0.6906
  881TIP3   OH224057   0.244   4.097  14.787 -0.5451  0.1385 -0.0467
  881TIP3    H124058   0.222   4.037  14.858 -1.4232 -0.0317 -0.4516
  881TIP3    H224059   0.165   4.100  14.733  0.4809 -0.7050 -1.6976
  882TIP3   OH224060   3.863   1.412  11.548  0.4797 -0.0517 -0.6128
  882TIP3    H124061   3.803   1.444  11.615  1.1948 -0.3846  0.2168
  882TIP3    H224062   3.915   1.489  11.523  1.1580 -0.2056  0.2587
  883TIP3   OH224063   3.131   4.764  12.915 -0.0433  0.0731 -0.3557
  883TIP3    H124064   3.087   4.690  12.873 -0.8878  0.9758 -1.1371
  883TIP3    H224065   3.133   4.741  13.008 -2.7050  0.1957 -0.1926
  884TIP3   OH224066   5.907   2.754  15.248  0.3483  0.1859  0.0320
  884TIP3    H124067   5.865   2.821  15.301  0.9817  0.2444  0.4738
  884TIP3    H224068   5.917   2.679  15.306 -1.4431 -0.7451 -0.7983
  885TIP3   OH224069   0.992   2.963   5.556  0.5681 -0.0647 -0.1934
  885TIP3    H124070   0.983   2.872   5.586  4.3613 -0.4896  0.1721
  885TIP3    H224071   1.009   3.013   5.635  1.3704  0.4431 -0.6734
  886TIP3   OH224072   3.637   5.956  12.348 -0.7187 -0.3534 -0.0115
  886TIP3    H124073   3.557   5.986  12.305  1.3929  1.1421 -3.3255
  886TIP3    H224074   3.701   6.025  12.330  1.5920 -1.8979  1.6935
  887TIP3   OH224075   2.021   5.283   2.350  0.3776  0.2301 -0.2286
  887TIP3    H124076   2.081   5.263   2.278 -0.3814 -0.4372 -0.6901
  887TIP3    H224077   1.962   5.349   2.315  1.2474  1.4119  0.4522
  888TIP3   OH224078   1.289   1.558   4.459 -0.8808  0.0438  0.2160
  888TIP3    H124079   1.229   1.595   4.395 -0.3002 -1.2923 -1.1559
  888TIP3    H224080   1.367   1.535   4.409 -0.2077 -0.5694  1.4910
  889TIP3   OH224081   5.665   2.707   2.809 -0.1326  0.1598  0.5890
  889TIP3    H124082   5.741   2.749   2.849  1.1873 -0.6840 -0.9054
  889TIP3    H224083   5.684   2.614   2.813  0.0224  0.0275 -1.8038
  890TIP3   OH224084   4.649   5.177   3.303 -0.4930  0.1611 -0.2008
  890TIP3    H124085   4.728   5.230   3.300 -0.2961 -0.0238  1.0937
  890TIP3    H224086   4.603   5.198   3.221  0.6271  0.6613 -0.7244
  891TIP3   OH224087   2.805   3.096   2.777 -0.1907 -0.2023  0.0784
  891TIP3    H124088   2.736   3.127   2.719 -0.9656  0.5214  1.3662
  891TIP3    H224089   2.867   3.168   2.782 -1.9688  1.3100  3.0344
  892TIP3   OH224090   1.402   4.705  14.262 -0.4247 -0.7772 -0.9962
  892TIP3    H124091   1.329   4.666  14.214 -1.0975 -0.6264 -0.1228
  892TIP3    H224092   1.370   4.714  14.351  0.6787 -0.7296 -0.5846
  893TIP3   OH224093   3.746   6.180  12.269 -0.5691 -0.0043 -0.1011
  893TIP3    H124094   3.727   6.238  12.343 -0.3533  0.6679 -0.5568
  893TIP3    H224095   3.812   6.228  12.219 -0.1700 -0.7876 -0.3313
  894TIP3   OH224096   0.611   5.979  16.926  0.3141  0.0527 -0.1326
  894TIP3    H124097   0.527   5.964  16.969 -0.3418 -0.4721 -1.5645
  894TIP3    H224098   0.670   5.916  16.968 -0.4200 -0.7730 -0.3183
  895TIP3   OH224099   1.106   1.830  13.338  0.5110  0.9168 -0.3762
  895TIP3    H124100   1.028   1.836  13.393  0.1392  0.8531 -0.8855
  895TIP3    H224101   1.073   1.844  13.249  0.6163 -1.9281 -0.9450
  896TIP3   OH224102   0.474   3.853  16.430  0.0793  0.1413  0.0813
  896TIP3    H124103   0.547   3.911  16.408 -0.1421 -0.2445 -1.8275
  896TIP3    H224104   0.397   3.909  16.429  0.2275  0.3869  1.2804
  897TIP3   OH224105   3.164   2.942   2.691 -0.4434  0.4407 -0.5940
  897TIP3    H124106   3.250   2.941   2.651  0.1819 -1.1130  0.6425
  897TIP3    H224107   3.103   2.949   2.618  0.7105  1.0099 -1.5253
  898TIP3   OH224108   0.605   2.882  16.971 -0.4802  0.0810  0.0468
  898TIP3    H124109   0.696   2.895  16.946 -1.1492  1.7778 -1.7433
  898TIP3    H224110   0.610   2.836  17.055  2.0029  0.2168  0.0573
  899TIP3   OH224111   5.854   6.663   3.718 -0.0562 -0.4544 -0.1703
  899TIP3    H124112   5.829   6.719   3.792 -0.1675 -1.6198  0.7042
  899TIP3    H224113   5.933   6.704   3.683 -0.9553  1.0830 -0.5101
  900TIP3   OH224114   0.760   4.888   5.250  0.3421 -0.6587  0.2909
  900TIP3    H124115   0.691   4.862   5.311 -0.9468  2.1218  0.1461
  900TIP3    H224116   0.841   4.872   5.299 -0.5757 -0.3358  1.9981
  901TIP3   OH224117   1.944   0.306  10.979  0.8505 -0.0318 -0.1633
  901TIP3    H124118   1.917   0.302  10.887 -0.1613 -0.3312  0.1357
  901TIP3    H224119   1.942   0.214  11.008  1.9287 -0.0250 -0.0521
  902TIP3   OH224120   0.288   5.262  12.636  0.4141 -0.0943 -0.1403
  902TIP3    H124121   0.335   5.240  12.555  0.2013 -0.4342 -0.1696
  902TIP3    H224122   0.216   5.318  12.607  1.0364  0.7773 -0.0504
  903TIP3   OH224123   6.668   0.150  16.141 -0.0055  0.3378 -0.3650
  903TIP3    H124124   6.586   0.133  16.188 -0.0919 -2.0100 -1.2530
  903TIP3    H224125   6.724   0.194  16.205 -0.4045 -2.0008  1.7084
  904TIP3   OH224126   4.311   2.448   2.916 -0.5507  0.1670  0.1542
  904TIP3    H124127   4.334   2.413   3.002 -0.1506  0.2589  0.0826
  904TIP3    H224128   4.359   2.531   2.909 -1.6203  0.8246  0.3912
  905TIP3   OH224129   0.829   0.960  16.326 -0.9364  0.0138 -0.2590
  905TIP3    H124130   0.740   0.961  16.360 -1.0192  2.1250 -0.3887
  905TIP3    H224131   0.839   1.045  16.282  1.1179 -0.1726 -0.2669
  906TIP3   OH224132   3.029   6.689   6.388 -0.2543 -0.0808  0.1257
  906TIP3    H124133   3.023   6.779   6.417  1.5663  0.4763 -1.0400
  906TIP3    H224134   3.098   6.650   6.442 -1.3013 -0.9015  0.8934
  907TIP3   OH224135   1.770   0.838  15.053 -0.1850  0.4653 -0.1759
  907TIP3    H124136   1.717   0.806  15.126  0.8779 -0.9907  0.0215
  907TIP3    H224137   1.745   0.929  15.042 -1.0936  0.4266  1.3512
  908TIP3   OH224138   5.121   6.316   4.276  0.5919 -0.2904  0.4355
  908TIP3    H124139   5.204   6.304   4.230  0.9657 -0.9533  1.2559
  908TIP3    H224140   5.057   6.334   4.207  0.0564 -6.1184 -1.0887
  909TIP3   OH224141   2.307   0.207  16.063 -0.0027 -0.1940 -0.0843
  909TIP3    H124142   2.221   0.248  16.055 -0.1187 -0.2934  0.5593
  909TIP3    H224143   2.369   0.279  16.052 -0.1938  0.0494  0.4061
  910TIP3   OH224144   0.922   3.678  11.225  0.8890  0.6195  0.3890
  910TIP3    H124145   0.868   3.613  11.180  2.1652  1.2021 -2.1448
  910TIP3    H224146   0.890   3.762  11.191 -0.0399  1.3254  2.8291
  911TIP3   OH224147   5.281   5.833  16.295 -0.2946  0.5474  0.1626
  911TIP3    H124148   5.371   5.856  16.272 -0.5381  0.9670 -0.4084
  911TIP3    H224149   5.250   5.907  16.347  0.0007 -0.0486  1.2315
  912TIP3   OH224150   0.311   4.189  12.194  0.0329 -0.7046  0.7294
  912TIP3    H124151   0.404   4.165  12.204 -0.0383 -0.2750  3.0922
  912TIP3    H224152   0.311   4.261  12.131  1.4096 -0.2461  1.2080
  913TIP3   OH224153   1.246   3.917  13.436  0.5663  0.8861 -0.5294
  913TIP3    H124154   1.312   3.937  13.503  0.6912  4.1051 -1.4081
  913TIP3    H224155   1.183   3.860  13.480  0.8110  2.5702  2.2597
  914TIP3   OH224156   3.677   1.571   5.743  0.4807 -0.2048 -0.1617
  914TIP3    H124157   3.739   1.502   5.766  0.7437  0.1505  0.2243
  914TIP3    H224158   3.722   1.652   5.769 -0.7359 -0.0251  1.5443
  915TIP3   OH224159   4.080   5.652   3.920  0.3751  0.3082  0.2756
  915TIP3    H124160   4.092   5.577   3.861  1.8237  1.3979 -0.8906
  915TIP3    H224161   3.994   5.638   3.958 -1.1051 -0.0069 -2.8358
  916TIP3   OH224162   1.306   0.532  16.470 -0.4072  0.2184  0.0936
  916TIP3    H124163   1.244   0.525  16.542  0.0927  2.8023  0.8920
  916TIP3    H224164   1.366   0.458  16.482 -0.5483  0.3863  2.1600
  917TIP3   OH224165   2.823   0.555   5.520  0.6480 -0.3443 -0.2450
  917TIP3    H124166   2.875   0.631   5.546 -0.9550  1.2284 -1.3385
  917TIP3    H224167   2.810   0.505   5.601 -0.4307  1.9626  1.1035
  918TIP3   OH224168   3.401   5.165  16.891  0.1447 -0.2162  0.1940
  918TIP3    H124169   3.396   5.070  16.891  0.9218 -0.2685 -0.4698
  918TIP3    H224170   3.441   5.187  16.807  0.3631  0.6735  0.5156
  919TIP3   OH224171   1.691   1.711   1.786 -0.0237 -0.0774 -0.3861
  919TIP3    H124172   1.725   1.740   1.871  0.3159 -2.4129  0.3513
  919TIP3    H224173   1.765   1.720   1.726 -0.1038  1.0898 -0.3197
  920TIP3   OH224174   1.138   2.951  16.049  0.1773 -0.3656  0.7326
  920TIP3    H124175   1.180   3.035  16.033 -1.5935  0.8002  1.7681
  920TIP3    H224176   1.105   2.923  15.964 -3.4665  2.5030  0.9482
  921TIP3   OH224177   5.246   6.373  12.005 -0.0515  0.0993 -0.3348
  921TIP3    H124178   5.187   6.330  12.067 -1.0329  3.5085  1.3541
  921TIP3    H224179   5.201   6.368  11.921 -1.3627  0.0818  0.3456
  922TIP3   OH224180   6.152   0.012  17.283 -0.0231  0.4524  0.0104
  922TIP3    H124181   6.221  -0.043  17.247 -0.7356 -1.1075  0.9388
  922TIP3    H224182   6.146   0.086  17.222  2.3378  0.5711 -0.1665
  923TIP3   OH224183   1.513   6.674   2.104  0.4000 -0.9449 -0.6289
  923TIP3    H124184   1.437   6.704   2.154  1.0451  1.1736 -0.8169
  923TIP3    H224185   1.493   6.699   2.014  2.3315  2.0958 -0.3486
  924TIP3   OH224186   6.413   0.864   4.813  0.0561  0.2168  0.6988
  924TIP3    H124187   6.466   0.941   4.831  0.1232  0.3226  0.0448
  924TIP3    H224188   6.477   0.793   4.801  0.0849  0.4700 -0.7126
  925TIP3   OH224189   1.248   6.062  16.611 -0.1757 -0.2581 -0.3814
  925TIP3    H124190   1.223   6.121  16.540 -0.9248 -0.4494 -0.2913
  925TIP3    H224191   1.172   6.004  16.621  0.6464 -1.3993 -0.6331
  926TIP3   OH224192   1.126   4.824  16.156 -0.1878  0.2202 -0.1643
  926TIP3    H124193   1.042   4.784  16.138  0.2950 -0.6202 -0.6165
  926TIP3    H224194   1.146   4.799  16.246  0.1653 -0.6900 -0.4814
  927TIP3   OH224195   4.380   0.456   5.989 -0.1783 -0.2285  0.5672
  927TIP3    H124196   4.338   0.375   5.960 -0.2353 -0.5347  1.4768
  927TIP3    H224197   4.308   0.513   6.015 -0.1211 -0.0242  0.2806
  928TIP3   OH224198   0.986   0.534   5.238 -0.0619 -0.0261  0.1791
  928TIP3    H124199   0.982   0.617   5.286 -1.7418 -0.3020  0.5865
  928TIP3    H224200   1.079   0.517   5.226  0.3241  1.4644  0.8785
  929TIP3   OH224201   1.498   1.913  11.940 -0.7219  0.0394  0.5754
  929TIP3    H124202   1.426   1.871  11.987 -0.5585 -2.3672 -1.1335
  929TIP3    H224203   1.545   1.840  11.899 -0.2091  1.8595 -2.3483
  930TIP3   OH224204   6.288   0.120   4.691  1.1763  0.1895 -0.2938
  930TIP3    H124205   6.273   0.127   4.596  0.2633  0.6444 -0.1228
  930TIP3    H224206   6.201   0.129   4.730  1.4787 -0.5037  0.5719
  931TIP3   OH224207   5.585   4.155  13.352  0.4654 -0.1187  0.2151
  931TIP3    H124208   5.506   4.208  13.363  0.3888  0.1437 -1.4347
  931TIP3    H224209   5.553   4.065  13.353 -0.1126  0.0135 -2.0078
  932TIP3   OH224210   4.719   1.546  12.366 -0.3094 -0.2765  0.3751
  932TIP3    H124211   4.706   1.561  12.272 -0.1701 -0.8623  0.2642
  932TIP3    H224212   4.634   1.515  12.397 -0.1626 -0.7383  0.3142
  933TIP3   OH224213   2.037   3.962   3.190 -0.4893 -0.3501  0.3301
  933TIP3    H124214   2.056   3.970   3.284 -0.2831  0.7534  0.2056
  933TIP3    H224215   1.958   4.016   3.178 -0.6786 -0.7181 -0.0832
  934TIP3   OH224216   0.305   4.520   4.801 -0.5246  0.0689 -0.2260
  934TIP3    H124217   0.386   4.547   4.844 -1.0794  0.8769  0.3260
  934TIP3    H224218   0.333   4.495   4.713  0.4047 -0.2019  0.1246
  935TIP3   OH224219   4.039   5.458  11.480  0.0136  0.3726  0.1830
  935TIP3    H124220   3.980   5.516  11.528  0.7045 -0.0018  1.5434
  935TIP3    H224221   3.987   5.381  11.461 -0.5868  0.9695 -0.6540
  936TIP3   OH224222   4.352   4.867  15.464  0.3611 -0.0572  0.1416
  936TIP3    H124223   4.396   4.798  15.413  2.1615  0.5332  0.8143
  936TIP3    H224224   4.399   4.947  15.440 -0.5103  0.6479  0.7496
  937TIP3   OH224225   1.350   6.166   1.934 -0.4006 -0.1588 -0.4214
  937TIP3    H124226   1.367   6.252   1.971 -1.4935  0.2588 -0.8281
  937TIP3    H224227   1.424   6.150   1.875  0.1990  0.1522  0.2290
  938TIP3   OH224228   3.620   4.959  14.654  0.3019  0.1920  0.2520
  938TIP3    H124229   3.622   4.863  14.650 -1.5086  0.1249 -0.0421
  938TIP3    H224230   3.560   4.979  14.727  1.7018  1.1375  1.2001
  939TIP3   OH224231   3.779   5.058   2.579  0.4074  1.0007  0.3264
  939TIP3    H124232   3.724   5.094   2.649  0.0796 -0.7558  1.0460
  939TIP3    H224233   3.718   5.043   2.506  0.6831  2.5057 -0.2482
  940TIP3   OH224234   6.775   1.696  11.090  0.1276  0.0071  0.0805
  940TIP3    H124235   6.838   1.628  11.112 -0.0853 -0.5378 -0.9357
  940TIP3    H224236   6.823   1.757  11.034 -0.3819 -0.7130 -1.1691
  941TIP3   OH224237   5.056   3.210   2.731  0.2521  0.0149 -0.4935
  941TIP3    H124238   5.142   3.169   2.733 -0.2410 -1.0481 -0.4476
  941TIP3    H224239   4.997   3.141   2.703 -0.6247  0.6686 -0.3024
  942TIP3   OH224240   5.408   5.029   3.734  0.1979 -0.5314  0.1337
  942TIP3    H124241   5.489   5.078   3.718  0.2969 -0.8167 -0.2403
  942TIP3    H224242   5.392   4.981   3.653 -2.1669  2.1104 -1.1515
  943TIP3   OH224243   2.250   1.331  13.804  0.2101  0.1054 -0.4840
  943TIP3    H124244   2.285   1.368  13.723  2.6430  1.9422  1.2527
  943TIP3    H224245   2.159   1.363  13.808  0.3233  0.7017 -2.0243
  944TIP3   OH224246   5.360   4.037  12.174  0.0936 -0.4426 -0.1885
  944TIP3    H124247   5.451   4.026  12.145  0.3093 -0.8114  0.5993
  944TIP3    H224248   5.313   3.967  12.129  0.3522 -0.7690  0.0442
  945TIP3   OH224249   3.647   2.249  12.770 -0.3530 -0.3604  0.6157
  945TIP3    H124250   3.676   2.290  12.851  0.7178  0.1466 -0.0074
  945TIP3    H224251   3.573   2.303  12.741 -0.3973 -0.2281  0.9708
  946TIP3   OH224252   0.573   2.934  12.528 -0.6635 -0.0472 -0.2454
  946TIP3    H124253   0.639   3.001  12.511 -0.5387 -0.0956  0.0471
  946TIP3    H224254   0.526   2.966  12.605 -0.0098 -0.7361  0.4593
  947TIP3   OH224255   5.505   2.739  12.617 -0.3719 -1.1071  0.1321
  947TIP3    H124256   5.533   2.731  12.708 -2.0649 -3.4035  0.5397
  947TIP3    H224257   5.417   2.776  12.622  0.5261  1.3253 -0.8072
  948TIP3   OH224258   0.662   5.395  16.910 -0.6349  0.6186  0.2724
  948TIP3    H124259   0.647   5.314  16.957  0.1725  0.8002  0.8635
  948TIP3    H224260   0.613   5.385  16.828  0.5521 -1.0381 -0.3007
  949TIP3   OH224261   2.124   2.125   4.067  0.5026  0.3863 -0.2681
  949TIP3    H124262   2.100   2.215   4.047 -1.4366 -0.0492 -0.0683
  949TIP3    H224263   2.046   2.087   4.108  1.2023 -1.4460 -0.5192
  950TIP3   OH224264   4.491   2.183  16.338  0.2258  0.3701 -0.4873
  950TIP3    H124265   4.467   2.235  16.262 -0.2232 -0.7017 -1.1009
  950TIP3    H224266   4.417   2.191  16.397 -0.3976 -0.5536 -1.1161
  951TIP3   OH224267   5.651   5.737   0.624 -0.2210 -0.2911 -0.1084
  951TIP3    H124268   5.662   5.828   0.598  0.1997 -0.4556 -0.5235
  951TIP3    H224269   5.666   5.737   0.719 -2.7422  0.4729  0.3699
  952TIP3   OH224270   2.216   2.140  17.169 -0.1116  0.1665 -0.0767
  952TIP3    H124271   2.254   2.211  17.221 -1.1009 -0.4030  1.4683
  952TIP3    H224272   2.290   2.083  17.149  0.6099  1.3431 -0.9261
  953TIP3   OH224273   6.701   5.026   1.205  0.2504  0.5809  0.6038
  953TIP3    H124274   6.769   4.963   1.180 -0.2710  0.4882 -0.6807
  953TIP3    H224275   6.675   5.000   1.293  0.0109 -1.0477  0.0784
  954TIP3   OH224276   4.936   5.942  16.990  0.0180 -0.1552 -0.6883
  954TIP3    H124277   4.999   5.891  16.939  0.1254 -0.8010  0.0684
  954TIP3    H224278   4.974   5.945  17.078 -0.2360  0.8167 -0.6076
  955TIP3   OH224279   0.467   4.890   1.754  0.1943 -0.1373 -0.0549
  955TIP3    H124280   0.481   4.985   1.751  0.1658 -0.0863  1.0719
  955TIP3    H224281   0.482   4.867   1.846 -2.3724 -0.8270  0.2484
  956TIP3   OH224282   4.146   5.428   2.204 -0.3820 -0.1959 -0.1771
  956TIP3    H124283   4.068   5.447   2.152  0.3131  2.7383 -0.3547
  956TIP3    H224284   4.212   5.403   2.140 -0.1284  1.2890 -0.5434
  957TIP3   OH224285   0.618   5.136  16.999  0.1185  0.1007  0.1037
  957TIP3    H124286   0.657   5.123  17.086 -2.0843 -0.1414  1.1238
  957TIP3    H224287   0.547   5.073  16.995 -0.5517  0.9078 -1.4294
  958TIP3   OH224288   4.873   3.763  14.731  0.0402 -0.3686  0.1578
  958TIP3    H124289   4.854   3.686  14.676 -0.6454 -0.8509  1.0450
  958TIP3    H224290   4.963   3.751  14.760  0.1582 -0.4925 -0.2519
  959TIP3   OH224291   2.759   5.043  15.732 -0.0464 -0.6377 -0.3938
  959TIP3    H124292   2.697   4.986  15.687 -1.2409 -0.5330  1.0433
  959TIP3    H224293   2.722   5.131  15.723  0.4207 -0.4343 -0.3644
  960TIP3   OH224294   6.748   4.265  13.747  0.5007  0.2744  0.2881
  960TIP3    H124295   6.676   4.327  13.759 -0.5298 -0.8371  0.0143
  960TIP3    H224296   6.712   4.180  13.774  1.0298 -0.6660 -1.7542
  961TIP3   OH224297   0.348   0.362  16.494 -0.0070 -0.3194  0.0765
  961TIP3    H124298   0.284   0.319  16.437 -0.2271  0.0896  0.0152
  961TIP3    H224299   0.317   0.343  16.583  0.4719 -1.1659  0.0730
  962TIP3   OH224300   2.167   6.535  12.528  0.1686 -0.5590 -0.6762
  962TIP3    H124301   2.126   6.586  12.458 -0.2143  0.1510  0.0517
  962TIP3    H224302   2.174   6.596  12.601  3.9323 -0.1656 -1.1859
  963TIP3   OH224303   5.012   2.491   1.299  0.1491  0.1063 -0.4014
  963TIP3    H124304   5.108   2.496   1.305  0.0814 -0.2168  1.3176
  963TIP3    H224305   4.986   2.578   1.267  0.8418  1.4753  2.4145
  964TIP3   OH224306   3.430   6.021   0.412  0.0782  0.9415  0.2373
  964TIP3    H124307   3.499   6.018   0.345  0.7945 -1.3384  0.9793
  964TIP3    H224308   3.349   6.005   0.363  0.7233 -2.0693 -0.0499
  965TIP3   OH224309   5.202   0.786   4.284  0.3524 -0.4433  0.4180
  965TIP3    H124310   5.181   0.845   4.357 -1.6814 -0.4538 -0.0934
  965TIP3    H224311   5.213   0.701   4.325  0.1271 -0.2790  0.8366
  966TIP3   OH224312   1.769   1.162  12.390  0.5327  0.0068  0.2314
  966TIP3    H124313   1.811   1.132  12.309  0.7274 -0.5550  0.5375
  966TIP3    H224314   1.834   1.145  12.458  0.3766  0.4998  0.5033
  967TIP3   OH224315   1.020   3.873  12.896 -0.2197 -0.3774  0.6491
  967TIP3    H124316   0.959   3.817  12.848  0.3878 -1.0285  0.6268
  967TIP3    H224317   1.017   3.840  12.986  0.4695 -0.7377  0.5457
  968TIP3   OH224318   1.262   0.906   3.185 -0.0924 -0.0383  0.2405
  968TIP3    H124319   1.266   0.813   3.160 -1.1983 -0.3007  0.9655
  968TIP3    H224320   1.259   0.953   3.102  1.5965 -0.5610 -0.1656
  969TIP3   OH224321   6.620   1.076  16.177 -0.0546 -0.6093  0.1194
  969TIP3    H124322   6.638   0.982  16.186  1.3434 -0.5652 -1.5591
  969TIP3    H224323   6.684   1.118  16.233 -0.9534 -0.6309  1.1979
  970TIP3   OH224324   2.908   6.319  15.584 -0.1536 -0.2970  0.2319
  970TIP3    H124325   2.836   6.279  15.632  0.5358 -1.1170  0.6138
  970TIP3    H224326   2.873   6.338  15.497 -0.4291 -2.0204 -0.0599
  971TIP3   OH224327   5.687   2.929   3.743 -0.0135  0.1440 -0.0462
  971TIP3    H124328   5.712   3.016   3.712 -0.3590 -0.1354 -1.1230
  971TIP3    H224329   5.634   2.892   3.673 -2.0445  0.0357  1.4221
  972TIP3   OH224330   4.843   0.048  16.739  0.3680  0.1214 -0.4434
  972TIP3    H124331   4.764   0.101  16.730  1.3013  1.2504 -2.8236
  972TIP3    H224332   4.913   0.100  16.699  1.9338 -1.6616 -0.2168
  973TIP3   OH224333   5.058   3.479   2.659  0.6715 -0.2740  0.1952
  973TIP3    H124334   5.049   3.391   2.695 -0.1664  0.5793  2.1929
  973TIP3    H224335   5.120   3.522   2.717  0.9253  0.5207 -0.6556
  974TIP3   OH224336   6.556   5.437  15.434 -0.4594 -0.2291  0.5946
  974TIP3    H124337   6.496   5.376  15.476  0.5788 -1.1687  0.7572
  974TIP3    H224338   6.600   5.481  15.507 -0.8637  0.3877  0.4765
  975TIP3   OH224339   4.441   5.343   2.171  0.3182 -0.6537 -0.8421
  975TIP3    H124340   4.455   5.287   2.248 -1.3827  1.0099  0.8024
  975TIP3    H224341   4.387   5.290   2.113 -5.1869  0.2980  2.5581
  976TIP3   OH224342   6.405   5.503   4.250  0.5303  0.1057  0.5235
  976TIP3    H124343   6.423   5.503   4.344  0.3479 -1.1083  0.5773
  976TIP3    H224344   6.467   5.567   4.214 -0.4107  1.6953  1.6250
  977TIP3   OH224345   5.993   2.941  15.518 -0.2130  0.0155  0.5148
  977TIP3    H124346   5.926   3.008  15.533 -0.4486 -0.2322  0.5703
  977TIP3    H224347   6.032   2.965  15.434  0.3340  0.7566  0.9644
  978TIP3   OH224348   6.756   4.875   4.785 -0.2476  0.3417  0.7061
  978TIP3    H124349   6.841   4.918   4.776 -0.4285  0.6370  0.3456
  978TIP3    H224350   6.717   4.917   4.862 -0.2220  0.4720  0.6479
  979TIP3   OH224351   3.028   5.614  11.365 -0.1363  0.0019 -0.2011
  979TIP3    H124352   3.115   5.602  11.326 -0.0335  2.6779 -1.0236
  979TIP3    H224353   3.045   5.658  11.448 -0.6561 -1.2239  0.5875
  980TIP3   OH224354   1.704   3.061  13.884  0.0437  0.3922  0.3868
  980TIP3    H124355   1.767   3.058  13.955  0.5882 -1.1075 -0.1012
  980TIP3    H224356   1.672   2.971  13.877 -1.5388  0.9482  0.0744
  981TIP3   OH224357   6.298   3.464  16.307  0.6332  0.1588 -0.0290
  981TIP3    H124358   6.203   3.464  16.292  0.8989 -1.1127 -2.1667
  981TIP3    H224359   6.307   3.454  16.402 -1.3901 -1.3124  0.0764
  982TIP3   OH224360   0.627   0.229   2.134  0.2885  0.4005 -0.0144
  982TIP3    H124361   0.577   0.246   2.214  2.2907  0.0161  1.4075
  982TIP3    H224362   0.661   0.315   2.109  0.8599  0.3124  0.4275
  983TIP3   OH224363   5.100   5.518  16.594 -0.2482  0.2595  0.2433
  983TIP3    H124364   5.014   5.492  16.559 -0.4735  1.3469 -0.0315
  983TIP3    H224365   5.116   5.456  16.665 -1.3772  0.2009  0.4662
  984TIP3   OH224366   5.479   2.055   2.523  0.0968 -0.3875  0.5476
  984TIP3    H124367   5.453   2.131   2.471  1.5266 -1.1975 -1.4331
  984TIP3    H224368   5.570   2.071   2.546  0.3287 -1.3734  0.3480
  985TIP3   OH224369   0.832   1.478  14.648 -0.4199  0.1038  0.1584
  985TIP3    H124370   0.770   1.410  14.675 -0.0417  0.3741  1.8155
  985TIP3    H224371   0.917   1.435  14.647 -0.4769 -0.0247 -1.1805
  986TIP3   OH224372   0.381   0.401  12.080 -0.6872 -0.3611  0.4166
  986TIP3    H124373   0.454   0.398  12.142  1.4326 -0.5595 -1.9569
  986TIP3    H224374   0.400   0.477  12.025 -1.1171 -1.6709 -1.5983
  987TIP3   OH224375   5.232   6.761   1.046 -0.7628  0.0293  0.3487
  987TIP3    H124376   5.209   6.848   1.013 -2.4658 -0.9908 -1.4174
  987TIP3    H224377   5.311   6.775   1.097 -0.4393  2.4593 -0.6520
  988TIP3   OH224378   6.501   6.237   2.805 -0.4404  0.1244  0.4392
  988TIP3    H124379   6.470   6.164   2.858  0.5312 -0.4574  0.2191
  988TIP3    H224380   6.461   6.222   2.719  0.6756 -0.8029  0.0635
  989TIP3   OH224381   3.348   6.134  16.106 -0.1159 -0.4409  0.0878
  989TIP3    H124382   3.441   6.156  16.116 -0.2329  0.9704 -1.5005
  989TIP3    H224383   3.326   6.087  16.187  1.4791  0.9272  1.3949
  990TIP3   OH224384   0.196   2.796  16.323 -0.6847 -0.3070 -0.1742
  990TIP3    H124385   0.286   2.771  16.343 -0.4742  0.3726 -0.2153
  990TIP3    H224386   0.206   2.869  16.261 -1.1998  1.2053  1.4461
  991TIP3   OH224387   3.505   0.962   0.986 -0.3036  0.1592 -0.0542
  991TIP3    H124388   3.429   0.925   1.031 -0.1069  1.0421  1.0529
  991TIP3    H224389   3.568   0.890   0.982 -1.3576 -0.7428 -1.4636
  992TIP3   OH224390   4.539   2.828   0.826  0.1730  0.0902  0.2931
  992TIP3    H124391   4.563   2.744   0.865  0.0922 -1.1319 -2.1223
  992TIP3    H224392   4.445   2.838   0.846 -0.1297 -1.0441 -0.4989
  993TIP3   OH224393   2.404   3.908   4.136 -0.0716 -0.1116  0.5521
  993TIP3    H124394   2.434   3.824   4.102 -0.6830  0.0420 -0.4223
  993TIP3    H224395   2.422   3.905   4.230  1.4777 -0.6532  0.2662
  994TIP3   OH224396   4.499   5.045   2.670  0.3325  0.6058  0.2440
  994TIP3    H124397   4.422   5.017   2.620 -0.2210  3.3777 -0.6118
  994TIP3    H224398   4.474   5.129   2.707  2.5044  0.9332  1.0895
  995TIP3   OH224399   5.288   0.307   1.999  0.1949 -0.2694  0.4209
  995TIP3    H124400   5.282   0.384   1.942  0.5380 -0.2537  0.4046
  995TIP3    H224401   5.347   0.247   1.953 -0.0089 -0.5105  0.4717
  996TIP3   OH224402   3.540   5.058   0.717 -0.5130 -0.6100  0.7925
  996TIP3    H124403   3.621   5.048   0.767  0.1766 -2.3880 -0.5694
  996TIP3    H224404   3.472   5.023   0.774  0.0866 -1.5484  0.9445
  997TIP3   OH224405   3.185   1.649   1.727  0.1069  0.1932 -0.5668
  997TIP3    H124406   3.179   1.575   1.667 -0.4328 -0.3997  0.1987
  997TIP3    H224407   3.271   1.687   1.710  0.6402 -0.9729 -0.5701
  998TIP3   OH224408   5.973   1.419  12.820  0.0290  0.4305  0.0403
  998TIP3    H124409   5.997   1.328  12.802 -1.8191 -0.2174  0.5561
  998TIP3    H224410   5.924   1.447  12.742 -0.0668  0.7217  0.2009
  999TIP3   OH224411   4.509   3.843   0.495 -0.0381  0.9863 -0.2860
  999TIP3    H124412   4.508   3.756   0.455  0.0376  0.0278  1.6858
  999TIP3    H224413   4.466   3.899   0.430 -0.2050 -0.5185 -1.5579
 1000TIP3   OH224414   4.387   4.162   5.561 -0.4758  0.1747 -0.0304
 1000TIP3    H124415   4.311   4.130   5.610  0.3846 -0.8041  0.7014
 1000TIP3    H224416   4.350   4.197   5.480 -1.6975 -0.3692  0.2685
 1001TIP3   OH224417   5.379   0.052   0.383  0.4730 -0.9723  0.3655
 1001TIP3    H124418   5.346  -0.024   0.334  1.0141 -1.2900  0.4901
 1001TIP3    H224419   5.329   0.125   0.348  1.9400 -0.9381 -1.8427
 1002TIP3   OH224420   2.682   3.597  15.307 -0.6409  0.2605 -0.4489
 1002TIP3    H124421   2.721   3.556  15.229 -1.2441  1.3047 -1.3299
 1002TIP3    H224422   2.756   3.613  15.365 -0.1617 -0.4196 -0.8596
 1003TIP3   OH224423   4.938   3.208  14.969 -0.0785 -0.1171  0.4975
 1003TIP3    H124424   4.875   3.275  14.940  0.1385 -0.2868 -0.3799
 1003TIP3    H224425   5.019   3.229  14.922  0.7699  0.5400  2.1762
 1004TIP3   OH224426   1.466   4.003   5.145 -0.1342 -0.1038  0.0314
 1004TIP3    H124427   1.560   4.016   5.140  0.2236 -2.4566 -0.3146
 1004TIP3    H224428   1.442   3.968   5.059 -1.3417  0.4636  0.1174
 1005TIP3   OH224429   5.382   0.781  15.787  0.7021  0.3113 -0.0452
 1005TIP3    H124430   5.306   0.756  15.734 -0.4043  1.2673  1.0213
 1005TIP3    H224431   5.355   0.761  15.877  1.4671  1.2478  0.4083
 1006TIP3   OH224432   0.259   0.069  14.204 -0.0098 -0.3700  0.1728
 1006TIP3    H124433   0.295   0.091  14.290  0.4160  1.3323 -0.4019
 1006TIP3    H224434   0.322   0.104  14.142  0.4198 -2.8408 -0.8780
 1007TIP3   OH224435   5.492   0.922   4.919 -0.3000  0.0033 -0.2856
 1007TIP3    H124436   5.530   0.942   5.004 -2.1615  2.1046  0.1390
 1007TIP3    H224437   5.501   0.827   4.910  0.9587 -0.1188  1.7192
 1008TIP3   OH224438   3.038   6.213  15.205  0.0329  0.5831  0.0025
 1008TIP3    H124439   3.008   6.289  15.155 -0.3236  1.2434  1.1732
 1008TIP3    H224440   3.106   6.174  15.151  0.8246  2.2355 -0.2744
 1009TIP3   OH224441   1.700   6.369   4.211 -0.0408  0.3272 -0.4304
 1009TIP3    H124442   1.731   6.281   4.229 -0.9813 -0.0280 -0.5212
 1009TIP3    H224443   1.780   6.419   4.194  0.5875 -0.2228  0.7848
 1010TIP3   OH224444   2.094   0.738  13.472 -0.6995  0.3000  0.0645
 1010TIP3    H124445   2.133   0.663  13.517  0.4703  1.7462  1.6277
 1010TIP3    H224446   2.015   0.704  13.431  1.0512 -2.3040 -1.4095
 1011TIP3   OH224447   2.808   2.541   2.129  0.3663  0.0331 -0.2086
 1011TIP3    H124448   2.873   2.586   2.075 -0.2394 -1.1005 -1.9948
 1011TIP3    H224449   2.777   2.469   2.073 -1.3194 -0.3657  1.1572
 1012TIP3   OH224450   1.315   1.435  16.072  0.3999  0.1491  0.4670
 1012TIP3    H124451   1.389   1.495  16.082 -0.6168  1.3573  0.9517
 1012TIP3    H224452   1.268   1.466  15.995 -1.2375  1.2366  1.8350
 1013TIP3   OH224453   2.585   4.384  16.976 -0.0116 -0.3283 -0.0219
 1013TIP3    H124454   2.626   4.426  17.052 -1.3574 -0.8343  1.0366
 1013TIP3    H224455   2.539   4.309  17.013  2.2559 -2.7698 -1.8347
 1014TIP3   OH224456   6.404   4.589  13.186 -0.2213  0.1835 -0.2748
 1014TIP3    H124457   6.333   4.650  13.165 -0.5860 -0.0543  0.2657
 1014TIP3    H224458   6.484   4.638  13.164 -0.4062  1.6208  1.9407
 1015TIP3   OH224459   6.105   2.008   4.643  0.3712  0.4714  0.2129
 1015TIP3    H124460   6.099   1.947   4.716 -1.8497 -0.6879 -0.8551
 1015TIP3    H224461   6.114   2.094   4.684  1.1013 -0.3132  1.7754
 1016TIP3   OH224462   0.776   5.893  15.365 -0.5039  0.2926 -0.5421
 1016TIP3    H124463   0.777   5.798  15.353 -1.0522  0.0818  0.8542
 1016TIP3    H224464   0.863   5.922  15.336  0.1446 -0.8189  0.2255
 1017TIP3   OH224465   0.695   4.244   1.153  0.1370 -0.0618  0.2150
 1017TIP3    H124466   0.668   4.165   1.106 -2.2258  2.4313 -3.0904
 1017TIP3    H224467   0.613   4.282   1.185  1.1643  1.2117  1.4520
 1018TIP3   OH224468   4.378   6.364  15.835 -0.1502  0.2806  0.0872
 1018TIP3    H124469   4.297   6.319  15.811  0.7850 -1.5590  0.2388
 1018TIP3    H224470   4.352   6.421  15.908 -2.0593  2.5910 -2.2087
 1019TIP3   OH224471   1.433   4.619  12.849 -0.2288  0.4379 -0.4704
 1019TIP3    H124472   1.374   4.657  12.914 -1.0725  0.7396 -1.3854
 1019TIP3    H224473   1.378   4.605  12.772  0.3749 -1.4059 -0.6114
 1020TIP3   OH224474   5.978   1.469   5.005 -0.0757  0.3512  0.1117
 1020TIP3    H124475   5.948   1.526   4.934  2.8853 -0.0715 -1.6623
 1020TIP3    H224476   5.938   1.384   4.985 -1.0905  0.7504  0.3379
 1021TIP3   OH224477   3.638   4.466  13.867  0.2134 -0.0305  0.0215
 1021TIP3    H124478   3.639   4.531  13.797 -2.7134  0.1113 -0.0504
 1021TIP3    H224479   3.644   4.382  13.822  1.2701  0.1151 -0.1231
 1022TIP3   OH224480   6.048   2.406   5.442 -0.6249  0.0272 -0.0540
 1022TIP3    H124481   6.035   2.311   5.441  1.4305 -0.3985 -3.9900
 1022TIP3    H224482   6.134   2.418   5.480 -1.3023  0.5007  1.4123
 1023TIP3   OH224483   4.053   1.560   4.783 -0.2606 -0.7591  0.0579
 1023TIP3    H124484   4.063   1.654   4.794 -0.0799 -0.6532 -0.9137
 1023TIP3    H224485   4.136   1.523   4.812  0.4646 -0.4352 -1.4988
 1024TIP3   OH224486   0.942   3.115   1.274  0.0192  0.2467 -0.7575
 1024TIP3    H124487   0.881   3.051   1.309  0.9371 -0.5416 -0.5550
 1024TIP3    H224488   0.952   3.091   1.182 -1.6143  1.6999 -1.3564
 1025TIP3   OH224489   0.590   1.712  14.991  0.6700  0.0531  0.1187
 1025TIP3    H124490   0.605   1.741  15.081  0.1629  1.9045 -0.3409
 1025TIP3    H224491   0.676   1.716  14.950  1.0192 -1.4018  0.6487
 1026TIP3   OH224492   0.899   5.139   2.769  0.1176  0.0829 -0.1718
 1026TIP3    H124493   0.873   5.216   2.819 -1.6651 -1.8006  2.0731
 1026TIP3    H224494   0.823   5.121   2.713  0.9853  0.5586 -1.5445
 1027TIP3   OH224495   4.878   2.590  11.703 -0.0136  0.0631 -0.2570
 1027TIP3    H124496   4.968   2.569  11.731 -0.2790  0.4496  0.9539
 1027TIP3    H224497   4.872   2.685  11.711 -0.8321 -0.0505  0.6701
 1028TIP3   OH224498   1.203   1.879   4.393 -0.1178  0.4919  0.2174
 1028TIP3    H124499   1.135   1.845   4.451  1.3665 -0.6733  1.3419
 1028TIP3    H224500   1.183   1.973   4.385 -0.0886  0.8214  3.0467
 1029TIP3   OH224501   3.266   2.599   5.269  0.0829 -0.2713 -0.1196
 1029TIP3    H124502   3.257   2.660   5.196 -0.4783  0.3268  0.4442
 1029TIP3    H224503   3.185   2.608   5.320 -0.0038 -1.4568  0.0020
 1030TIP3   OH224504   3.317   0.550   4.275 -0.2112  0.1725  0.0478
 1030TIP3    H124505   3.299   0.640   4.302 -0.5943  0.1931 -0.2715
 1030TIP3    H224506   3.310   0.552   4.179  0.2421 -0.0970  0.0069
 1031TIP3   OH224507   4.878   3.992   4.006 -0.1787 -0.1156  0.9590
 1031TIP3    H124508   4.796   3.985   4.056  0.3203 -1.1185  1.6554
 1031TIP3    H224509   4.849   4.005   3.915 -1.1229 -0.7303  1.1561
 1032TIP3   OH224510   0.290   5.224  13.654 -0.1763  0.2843 -0.5724
 1032TIP3    H124511   0.279   5.154  13.718  1.7605  2.1562  2.0234
 1032TIP3    H224512   0.348   5.186  13.587  0.1635 -0.8470  0.3391
 1033TIP3   OH224513   3.229   5.516   5.160  0.0700  0.3568  0.1718
 1033TIP3    H124514   3.321   5.529   5.183 -0.2208  3.0616  0.1092
 1033TIP3    H224515   3.189   5.482   5.240  0.8465  0.5255  0.6481
 1034TIP3   OH224516   3.688   3.964  15.864 -0.6516 -0.9331 -0.6391
 1034TIP3    H124517   3.776   4.000  15.861 -0.6074 -0.2349  3.3700
 1034TIP3    H224518   3.697   3.876  15.826  1.3348 -0.2647 -1.8714
 1035TIP3   OH224519   0.030   6.601   1.229 -0.3015  0.2959 -0.1586
 1035TIP3    H124520   0.063   6.683   1.266 -1.8854  1.7189 -1.6718
 1035TIP3    H224521   0.052   6.606   1.136 -0.9047 -0.7460 -0.3736
 1036TIP3   OH224522   3.595   5.585   3.527 -0.2880 -0.1077  0.6306
 1036TIP3    H124523   3.636   5.654   3.579 -1.3333 -0.1197  1.5182
 1036TIP3    H224524   3.664   5.554   3.469  0.3353  1.3483  0.5528
 1037TIP3   OH224525   1.753   4.686  11.402  0.0245 -0.4345 -0.4108
 1037TIP3    H124526   1.730   4.597  11.374 -0.0624 -0.3482 -0.6226
 1037TIP3    H224527   1.744   4.738  11.322 -1.0803 -0.0256 -0.0351
 1038TIP3   OH224528   2.115   2.398  15.958  0.0580  0.3762  0.1592
 1038TIP3    H124529   2.139   2.428  15.871  3.1433 -1.8406  0.0710
 1038TIP3    H224530   2.051   2.328  15.942 -0.4171  0.8805 -0.1947
 1039TIP3   OH224531   2.957   1.444  14.545  0.4929 -0.0723  0.4323
 1039TIP3    H124532   2.946   1.524  14.494  0.7712  0.3529  1.0389
 1039TIP3    H224533   2.940   1.470  14.635  3.6756  0.0659  1.1080
 1040TIP3   OH224534   2.585   4.110   2.111 -0.1483  0.2740  0.2139
 1040TIP3    H124535   2.528   4.084   2.183 -0.3625 -1.1224 -0.4203
 1040TIP3    H224536   2.672   4.113   2.150 -0.3750  0.3672  0.7232
 1041TIP3   OH224537   4.974   5.959   2.808 -0.0254  0.3956 -0.5576
 1041TIP3    H124538   4.883   5.934   2.825 -0.8107  2.7163 -0.9674
 1041TIP3    H224539   5.026   5.901   2.863 -1.8715  0.4010  1.3217
 1042TIP3   OH224540   5.707   4.389   1.369  0.0011  0.0050 -0.3757
 1042TIP3    H124541   5.631   4.432   1.408 -2.3317 -2.8795 -1.3588
 1042TIP3    H224542   5.737   4.326   1.435  0.4340 -0.0833 -0.6467
 1043TIP3   OH224543   6.002   5.914  12.184  0.4637  0.4040  0.1156
 1043TIP3    H124544   5.908   5.909  12.167  0.2759  2.3497  0.3671
 1043TIP3    H224545   6.009   5.911  12.279  0.5753  1.1585  0.1339
 1044TIP3   OH224546   1.688   3.540  12.682  0.4284 -0.8658  0.0884
 1044TIP3    H124547   1.716   3.590  12.758  0.0316  0.9335 -0.8969
 1044TIP3    H224548   1.592   3.540  12.687  0.2292  1.7346 -1.8220
 1045TIP3   OH224549   6.091   0.290  11.181  0.6358  0.3127  0.6354
 1045TIP3    H124550   6.159   0.225  11.166 -1.8631 -2.1605 -1.0180
 1045TIP3    H224551   6.057   0.310  11.094 -0.5323  1.7608  1.3736
 1046TIP3   OH224552   2.434   5.892   6.676 -0.7149  0.3931  0.3014
 1046TIP3    H124553   2.368   5.860   6.737  0.3585 -0.9663  0.8132
 1046TIP3    H224554   2.401   5.977   6.646 -1.2529  1.1226  2.7856
 1047TIP3   OH224555   6.238   6.729  14.118  0.0690  0.7115 -0.1610
 1047TIP3    H124556   6.170   6.793  14.138 -2.2169 -1.4441 -0.5736
 1047TIP3    H224557   6.234   6.666  14.190 -1.1033 -1.5108 -2.0515
 1048TIP3   OH224558   5.619   6.236   5.416  0.1689 -0.3499 -0.3077
 1048TIP3    H124559   5.636   6.317   5.465  0.2317 -0.6376  0.1482
 1048TIP3    H224560   5.529   6.244   5.387 -0.3945 -0.8836  1.2125
 1049TIP3   OH224561   5.250   4.632  13.262  0.4148 -0.4084  0.2301
 1049TIP3    H124562   5.164   4.671  13.244  0.3644 -0.0391  1.2007
 1049TIP3    H224563   5.255   4.557  13.204  1.5528  2.3630 -3.6671
 1050TIP3   OH224564   2.870   1.823   5.638 -0.2790 -0.3236  0.2420
 1050TIP3    H124565   2.892   1.796   5.548 -0.3253  1.0080 -0.2014
 1050TIP3    H224566   2.917   1.906   5.649 -2.2717  0.8344  0.5264
 1051TIP3   OH224567   5.869   4.466  12.347  0.4727 -0.2310 -0.2333
 1051TIP3    H124568   5.919   4.494  12.270 -0.3197 -1.6465 -1.3253
 1051TIP3    H224569   5.928   4.408  12.394  1.4501  1.6849  1.0284
 1052TIP3   OH224570   0.967   4.087  16.213 -0.9655 -0.2368  0.6749
 1052TIP3    H124571   0.936   4.106  16.302  0.3173  0.3973  1.0133
 1052TIP3    H224572   0.987   4.173  16.176 -1.6773 -0.4872 -0.3097
 1053TIP3   OH224573   1.804   6.712  12.233 -0.0755 -0.0900  0.2209
 1053TIP3    H124574   1.735   6.688  12.172 -1.0345 -0.1776  1.2976
 1053TIP3    H224575   1.758   6.755  12.306  0.9962 -0.1787  0.9848
 1054TIP3   OH224576   2.157   4.280   3.139  0.0780  0.0545 -0.1528
 1054TIP3    H124577   2.095   4.245   3.203  0.8711 -1.1482  0.0043
 1054TIP3    H224578   2.149   4.375   3.146 -1.3646 -0.0718  0.2211
 1055TIP3   OH224579   4.239   4.297  16.544 -0.5709  0.8596  0.2696
 1055TIP3    H124580   4.176   4.227  16.565  0.7348 -0.4614 -0.0713
 1055TIP3    H224581   4.230   4.309  16.450 -0.2615  0.6000  0.2038
 1056TIP3   OH224582   2.548   5.621  12.551  0.0190 -0.4095 -0.3441
 1056TIP3    H124583   2.514   5.585  12.469 -0.5191  0.9978 -0.7711
 1056TIP3    H224584   2.520   5.558  12.618 -1.7604 -0.3176 -0.9315
 1057TIP3   OH224585   4.253   5.561  15.730 -0.2123  0.2881  0.2117
 1057TIP3    H124586   4.236   5.481  15.780  0.7966 -0.3924 -0.4955
 1057TIP3    H224587   4.168   5.586  15.695 -0.6836  0.0006  1.1188
 1058TIP3   OH224588   0.914   3.692   4.719  0.3743  0.0143 -0.3489
 1058TIP3    H124589   0.834   3.640   4.713 -0.3110  1.0610 -0.5045
 1058TIP3    H224590   0.977   3.644   4.664  0.1194 -1.2469  0.4108
 1059TIP3   OH224591   2.275   1.240  15.460 -0.1776  0.5662 -0.2761
 1059TIP3    H124592   2.251   1.213  15.549  1.8087 -0.9339 -0.1265
 1059TIP3    H224593   2.340   1.309  15.472 -0.0374  0.4857 -0.5645
 1060TIP3   OH224594   3.547   2.650   1.473  0.0656  0.7614 -0.0461
 1060TIP3    H124595   3.483   2.645   1.544 -3.0000 -1.8562 -2.6607
 1060TIP3    H224596   3.589   2.564   1.472  0.4965  0.9623 -0.9924
 1061TIP3   OH224597   1.082   5.911  14.208  0.3207  0.2021  0.0624
 1061TIP3    H124598   1.127   5.995  14.220 -3.0993  2.8200 -3.1682
 1061TIP3    H224599   1.130   5.867  14.138 -0.5423  1.8645 -1.6766
 1062TIP3   OH224600   6.567   5.818   1.651  0.5132  0.0749 -0.6536
 1062TIP3    H124601   6.508   5.792   1.581  0.3853 -1.6516  0.0423
 1062TIP3    H224602   6.652   5.779   1.628  1.0337  1.3296 -0.9268
 1063TIP3   OH224603   2.397   0.995   2.684 -0.2746 -0.2240  0.4415
 1063TIP3    H124604   2.452   1.026   2.612 -0.8370  0.4928  0.3030
 1063TIP3    H224605   2.385   0.902   2.668 -2.4462  0.3455 -1.8262
 1064TIP3   OH224606   6.424   5.687   4.757  0.6256 -0.1280 -0.1242
 1064TIP3    H124607   6.510   5.728   4.759  0.8872 -0.5240 -1.5107
 1064TIP3    H224608   6.435   5.611   4.700 -0.8748  0.4127 -1.2258
 1065TIP3   OH224609   0.102   0.847   2.268  0.3746  0.0119  0.1324
 1065TIP3    H124610   0.167   0.917   2.264  0.0432  0.4349  1.6486
 1065TIP3    H224611   0.080   0.839   2.361 -3.3663  1.4026 -0.4696
 1066TIP3   OH224612   3.719   0.600   3.834 -0.3752 -0.0378  0.4079
 1066TIP3    H124613   3.698   0.520   3.881 -0.3447 -0.5486 -0.4292
 1066TIP3    H224614   3.729   0.573   3.742 -0.7249  0.9753  0.0516
 1067TIP3   OH224615   5.907   0.698  14.503 -0.0604  0.0481 -0.3118
 1067TIP3    H124616   5.877   0.765  14.563  0.6909 -0.3133  0.4961
 1067TIP3    H224617   5.828   0.651  14.477 -0.5058  0.8245 -0.3706
 1068TIP3   OH224618   4.981   0.550   2.117  0.0386 -0.0970  0.6078
 1068TIP3    H124619   4.999   0.589   2.203 -1.0842  0.1102  0.7746
 1068TIP3    H224620   5.001   0.620   2.055 -0.8896  0.3928  0.8359
 1069TIP3   OH224621   0.053   5.695   2.639 -0.2965  0.2325 -0.3727
 1069TIP3    H124622   0.117   5.682   2.710 -1.2234 -0.9735  0.2780
 1069TIP3    H224623  -0.026   5.652   2.670 -0.5739 -0.8128 -2.3696
 1070TIP3   OH224624   5.555   5.074  13.233 -0.2000  0.0969 -0.5478
 1070TIP3    H124625   5.490   5.126  13.186  0.0044  0.2166 -0.7010
 1070TIP3    H224626   5.620   5.138  13.262 -1.1513  0.2897  1.3621
 1071TIP3   OH224627   2.049   3.100  11.030  0.0624 -0.6432 -0.4049
 1071TIP3    H124628   1.980   3.037  11.048 -0.1281 -0.5187 -0.6906
 1071TIP3    H224629   2.130   3.048  11.028  0.0783 -0.6755  0.6928
 1072TIP3   OH224630   5.414   2.985   2.555 -0.3288 -0.4272 -0.2909
 1072TIP3    H124631   5.458   2.901   2.567  0.5022 -0.1081 -1.0018
 1072TIP3    H224632   5.321   2.965   2.567 -0.1671 -1.4866 -0.6617
 1073TIP3   OH224633   3.055   4.327  14.713 -0.1337 -0.4211  0.1072
 1073TIP3    H124634   3.069   4.233  14.700  0.0701 -0.1539 -1.8534
 1073TIP3    H224635   3.057   4.365  14.625 -1.5535  1.2621  0.7293
 1074TIP3   OH224636   6.707   1.382   1.111  0.2294  0.2285 -0.5648
 1074TIP3    H124637   6.746   1.466   1.136  0.7278 -0.1953  0.1151
 1074TIP3    H224638   6.616   1.403   1.090  0.0385  0.7694  0.7317
 1075TIP3   OH224639   2.822   1.370  11.404 -0.3955 -0.5028  0.9570
 1075TIP3    H124640   2.795   1.459  11.382 -1.7294 -1.4257 -1.4624
 1075TIP3    H224641   2.915   1.367  11.381 -1.1069 -0.6211 -2.2923
 1076TIP3   OH224642   1.086   5.097   4.106 -0.3739  0.0367  0.7798
 1076TIP3    H124643   1.068   5.102   4.200 -3.9698 -2.0326  0.3652
 1076TIP3    H224644   1.090   5.003   4.087  1.6744  0.4092 -0.9977
 1077TIP3   OH224645   1.648   3.345  12.041  0.8978  0.2869  0.0312
 1077TIP3    H124646   1.662   3.263  12.089  0.9954  0.4823  0.3403
 1077TIP3    H224647   1.554   3.347  12.024  1.0532 -0.4418 -0.9824
 1078TIP3   OH224648   2.019   4.978   1.385  0.2615 -0.0654 -0.5122
 1078TIP3    H124649   2.110   4.993   1.411 -0.7579  2.9935  1.8322
 1078TIP3    H224650   1.978   4.941   1.462 -0.6319 -0.8800 -1.3596
 1079TIP3   OH224651   2.185   5.921  11.466 -0.7463  0.2511 -0.0197
 1079TIP3    H124652   2.155   5.919  11.375 -2.2586 -0.4929  0.4478
 1079TIP3    H224653   2.145   5.843  11.505  1.4158 -0.5076  0.8396
 1080TIP3   OH224654   6.507   0.397  16.853 -0.3824 -0.2984 -0.2466
 1080TIP3    H124655   6.541   0.485  16.870 -1.1927 -0.0074 -0.1106
 1080TIP3    H224656   6.432   0.411  16.795  1.0581 -1.1048 -2.4531
 1081TIP3   OH224657   5.337   4.342  13.726  0.3720 -0.2325  0.0838
 1081TIP3    H124658   5.417   4.382  13.692 -0.2882  0.3880 -0.7875
 1081TIP3    H224659   5.357   4.321  13.817  1.2290  0.7376  0.1338
 1082TIP3   OH224660   4.394   4.229  13.603 -0.4483  0.2565 -0.7869
 1082TIP3    H124661   4.478   4.184  13.600 -0.5096  0.0890 -0.1289
 1082TIP3    H224662   4.370   4.242  13.511  0.2588  0.2437 -0.9775
 1083TIP3   OH224663   4.265   4.320   4.136 -0.0864  0.3240 -0.0095
 1083TIP3    H124664   4.217   4.249   4.179 -0.2954 -1.1754 -2.5498
 1083TIP3    H224665   4.357   4.298   4.149 -0.1280 -1.3634 -2.0806
 1084TIP3   OH224666   2.207   2.151   2.390  0.3416  0.2620 -0.0925
 1084TIP3    H124667   2.222   2.067   2.346  0.2618  0.2423 -0.0820
 1084TIP3    H224668   2.270   2.151   2.462 -0.7729 -0.5249  0.9171
 1085TIP3   OH224669   1.187   3.078  14.625  0.4142  0.0364 -0.0689
 1085TIP3    H124670   1.102   3.041  14.650 -0.3451  1.5193 -0.3317
 1085TIP3    H224671   1.166   3.142  14.557  1.7781  0.2551 -0.3043
 1086TIP3   OH224672   5.414   3.255  16.991 -0.7964  0.0581  0.2401
 1086TIP3    H124673   5.470   3.181  17.015 -1.4785 -0.4857  0.2047
 1086TIP3    H224674   5.450   3.329  17.039  0.4433 -0.0941 -0.4318
 1087TIP3   OH224675   2.980   6.002  15.371 -0.1244  0.1898  0.4414
 1087TIP3    H124676   3.004   6.089  15.337 -1.9274  0.3599 -0.5050
 1087TIP3    H224677   2.961   5.950  15.293  0.5317 -0.9587  1.0243
 1088TIP3   OH224678   3.112   1.562   2.377 -0.1848  0.1423 -0.3488
 1088TIP3    H124679   3.021   1.568   2.407 -1.2217 -1.9701 -2.6199
 1088TIP3    H224680   3.137   1.652   2.358 -2.2054  0.6909 -0.6498
 1089TIP3   OH224681   2.938   2.674   4.473 -0.0528 -0.4731  0.4315
 1089TIP3    H124682   2.883   2.714   4.541  0.6552  0.7244  0.3063
 1089TIP3    H224683   2.978   2.747   4.427  1.1289 -1.3123  0.0749
 1090TIP3   OH224684   0.859   4.575  15.637  0.4845  0.2081 -0.0886
 1090TIP3    H124685   0.882   4.659  15.677  0.0143 -0.0755  0.8039
 1090TIP3    H224686   0.812   4.528  15.706  0.6964 -0.7678 -0.5952
 1091TIP3   OH224687   3.184   5.690   6.858  0.7268  0.0397  0.1205
 1091TIP3    H124688   3.207   5.610   6.810  1.6594 -1.6503  3.0720
 1091TIP3    H224689   3.090   5.683   6.873  0.3748  0.7161 -1.5414
 1092TIP3   OH224690   4.859   4.144   0.187  0.8817 -0.4776  0.0020
 1092TIP3    H124691   4.852   4.127   0.281  0.8589 -0.9635 -0.0859
 1092TIP3    H224692   4.953   4.158   0.173  0.8624 -0.2140  0.1280
 1093TIP3   OH224693   1.191   3.381  16.503 -0.3268 -1.1703 -0.1313
 1093TIP3    H124694   1.269   3.366  16.556 -0.0201  2.1527  0.5877
 1093TIP3    H224695   1.170   3.473  16.517 -2.1748 -0.9705 -3.2767
 1094TIP3   OH224696   6.170   6.351  14.025 -0.4094  0.1570 -0.1356
 1094TIP3    H124697   6.245   6.326  14.080 -0.5073 -0.2464 -0.1816
 1094TIP3    H224698   6.096   6.352  14.085 -0.6113 -0.7912 -0.3444
 1095TIP3   OH224699   5.968   2.932  13.397 -0.3853 -0.0607 -0.3415
 1095TIP3    H124700   6.055   2.970  13.388 -0.2021 -0.3621  0.1381
 1095TIP3    H224701   5.979   2.859  13.458 -0.8522 -0.5101 -0.7857
 1096TIP3   OH224702   2.659   6.058   5.022  0.2921  0.2963 -0.2795
 1096TIP3    H124703   2.723   6.127   5.036  1.6402 -1.1480  0.9390
 1096TIP3    H224704   2.710   5.982   4.994 -0.9681 -0.6524 -0.1136
 1097TIP3   OH224705   0.990   3.313  11.799  0.0053 -0.1718 -0.3319
 1097TIP3    H124706   1.011   3.224  11.828 -1.9603 -0.7766 -0.5711
 1097TIP3    H224707   0.929   3.346  11.865  1.2439  1.3027  0.1257
 1098TIP3   OH224708   4.430   6.450   0.251  0.5987  0.0914  0.0882
 1098TIP3    H124709   4.503   6.472   0.193  1.2159  2.4381  1.5960
 1098TIP3    H224710   4.465   6.383   0.309  1.0455  0.0759 -0.1896
 1099TIP3   OH224711   3.820   4.682  14.630  0.0311  0.7827 -0.7653
 1099TIP3    H124712   3.864   4.606  14.668 -0.5849  0.3036 -0.9923
 1099TIP3    H224713   3.734   4.649  14.603 -0.0856  1.4628 -1.2501
 1100TIP3   OH224714   3.498   5.126   1.343  0.0124 -0.4792 -0.2407
 1100TIP3    H124715   3.564   5.141   1.275  0.0042 -1.7849 -0.5585
 1100TIP3    H224716   3.504   5.204   1.399 -0.3501  0.8878 -2.0140
 1101TIP3   OH224717   3.909   0.403   6.644  0.2396 -0.8380 -0.1760
 1101TIP3    H124718   3.981   0.376   6.588  0.5115  0.5333 -0.5280
 1101TIP3    H224719   3.884   0.489   6.610  0.3429 -0.0163  1.7290
 1102TIP3   OH224720   0.120   4.376   5.791  0.1887  0.1130 -0.7629
 1102TIP3    H124721   0.053   4.330   5.740 -0.2129  0.8119 -0.8818
 1102TIP3    H224722   0.114   4.338   5.879  0.2805 -0.4837 -1.0101
 1103TIP3   OH224723   1.885   1.135  11.439  0.3929 -0.2444 -0.3398
 1103TIP3    H124724   1.821   1.081  11.486 -1.3627 -0.1386 -2.4191
 1103TIP3    H224725   1.869   1.224  11.470 -1.5568 -0.0057 -1.8280
 1104TIP3   OH224726   5.386   3.087   2.885 -0.1014  0.0538  0.4726
 1104TIP3    H124727   5.374   3.008   2.937  2.8953  0.6029  2.2815
 1104TIP3    H224728   5.403   3.055   2.796 -2.3309 -1.0651  0.3848
 1105TIP3   OH224729   0.893   5.634  11.958  0.1703  0.3954  0.3849
 1105TIP3    H124730   0.909   5.562  11.897  0.8795 -0.9417  2.0898
 1105TIP3    H224731   0.981   5.663  11.984 -0.1210  0.8882  0.8348
 1106TIP3   OH224732   6.128   0.843  14.484  0.0751  0.4681 -0.6614
 1106TIP3    H124733   6.171   0.867  14.402  0.0914 -0.4318 -0.9357
 1106TIP3    H224734   6.062   0.779  14.458 -0.7433  1.0671 -0.1154
 1107TIP3   OH224735   5.235   6.779   6.211  0.0643 -0.4932 -0.1164
 1107TIP3    H124736   5.301   6.768   6.279  1.5373  0.3388 -1.3631
 1107TIP3    H224737   5.269   6.730   6.136 -1.1337 -0.7212 -0.5441
 1108TIP3   OH224738   2.428   1.524  13.904 -0.3613  0.2426  0.1835
 1108TIP3    H124739   2.523   1.510  13.904 -0.5021 -1.0655 -1.2726
 1108TIP3    H224740   2.392   1.438  13.881 -1.8919  0.7864  0.4429
 1109TIP3   OH224741   2.808   6.506   5.130 -0.0107 -0.3051 -0.4685
 1109TIP3    H124742   2.886   6.452   5.118 -0.4119 -0.7079 -1.3699
 1109TIP3    H224743   2.833   6.571   5.195  0.5179 -1.5230  0.5789
 1110TIP3   OH224744   4.784   3.523  16.811  0.2822 -0.0492  0.0220
 1110TIP3    H124745   4.865   3.560  16.845  0.2916  1.1257 -1.1993
 1110TIP3    H224746   4.766   3.449  16.869  2.3786 -0.5372  0.1500
 1111TIP3   OH224747   4.646   5.723  15.017  0.4294  0.0991 -0.2737
 1111TIP3    H124748   4.708   5.758  15.081 -2.0751  1.3618  1.6381
 1111TIP3    H224749   4.597   5.656  15.065 -1.2743  0.8294 -0.8813
 1112TIP3   OH224750   2.974   4.961   2.918 -0.2556 -0.1145  0.3064
 1112TIP3    H124751   3.051   4.919   2.881  0.4553  0.9456  0.5403
 1112TIP3    H224752   2.964   4.922   3.005  0.0828 -0.1681  0.3215
 1113TIP3   OH224753   5.473   2.596   1.404  0.7937 -0.4980 -0.1903
 1113TIP3    H124754   5.563   2.567   1.417  0.9427 -0.2539 -0.6563
 1113TIP3    H224755   5.460   2.664   1.471  1.4802  0.5895 -1.1313
 1114TIP3   OH224756   1.819   1.908  12.114 -0.0737 -0.2739  0.3102
 1114TIP3    H124757   1.761   1.856  12.169 -1.6328 -2.2009 -2.8854
 1114TIP3    H224758   1.781   1.996  12.117 -2.1379 -1.0786 -0.1981
 1115TIP3   OH224759   3.412   4.270  14.708 -0.3112 -0.2366 -0.0908
 1115TIP3    H124760   3.448   4.187  14.678  0.2342  0.2241 -0.7538
 1115TIP3    H224761   3.389   4.317  14.628 -0.3850  0.3505  0.2653
 1116TIP3   OH224762   1.596   0.068  14.602 -0.3849  0.5505  0.2010
 1116TIP3    H124763   1.612  -0.003  14.664 -0.6323  0.9187  0.6845
 1116TIP3    H224764   1.676   0.121  14.604 -0.0045  0.0338 -0.5137
 1117TIP3   OH224765   0.252   3.897  12.378 -0.4788  0.1195 -0.1345
 1117TIP3    H124766   0.241   3.963  12.447 -1.6497 -0.3336  0.1406
 1117TIP3    H224767   0.329   3.927  12.329  1.0438 -0.1146  1.9637
 1118TIP3   OH224768   0.856   2.282   0.672 -0.3158 -0.2128 -0.7474
 1118TIP3    H124769   0.912   2.207   0.693  1.2741  0.9461 -0.6725
 1118TIP3    H224770   0.768   2.245   0.665  0.3598 -2.0062 -0.2959
 1119TIP3   OH224771   4.521   1.506   0.335 -0.3396  0.7839  0.4997
 1119TIP3    H124772   4.526   1.602   0.343  0.4632  0.9372 -1.2599
 1119TIP3    H224773   4.605   1.481   0.297 -0.2153 -0.7396  1.6955
 1120TIP3   OH224774   4.203   2.853   5.407  0.1464  0.2737 -0.1646
 1120TIP3    H124775   4.174   2.762   5.403  2.2643 -0.4236 -2.2172
 1120TIP3    H224776   4.123   2.904   5.400 -0.8947 -1.4782 -2.2646
 1121TIP3   OH224777   5.946   0.985  12.073 -0.3842  0.1486 -0.0971
 1121TIP3    H124778   5.954   1.080  12.071  1.3285  0.0255 -0.8344
 1121TIP3    H224779   6.012   0.954  12.011 -0.9703 -1.5226  0.0583
 1122TIP3   OH224780   1.785   5.962   3.265 -0.0377 -0.6069  0.4861
 1122TIP3    H124781   1.875   5.992   3.275  0.0656 -0.5860 -0.4332
 1122TIP3    H224782   1.732   6.039   3.286  0.2154  0.0323 -1.0882
 1123TIP3   OH224783   4.451   3.456   5.359  0.1387  0.3346 -0.4931
 1123TIP3    H124784   4.525   3.450   5.420  1.0131 -0.7824 -1.5981
 1123TIP3    H224785   4.373   3.448   5.414  0.8492  1.0562  0.6438
 1124TIP3   OH224786   2.813   1.847   3.671 -0.7031  0.7064 -0.0958
 1124TIP3    H124787   2.845   1.760   3.696 -3.1553 -0.7431 -1.5632
 1124TIP3    H224788   2.890   1.891   3.635  0.8699 -0.3743  1.7907
 1125TIP3   OH224789   6.303   5.734   0.851  0.3310 -0.1068 -0.2331
 1125TIP3    H124790   6.305   5.649   0.895  0.8310  0.1010  0.1574
 1125TIP3    H224791   6.268   5.715   0.764  1.6082 -0.9341 -0.6055
 1126TIP3   OH224792   4.856   3.577   5.301 -0.5481 -0.0914 -0.0948
 1126TIP3    H124793   4.904   3.494   5.296 -0.6564 -0.0986 -1.1634
 1126TIP3    H224794   4.923   3.644   5.289 -0.7290 -0.0911 -1.2030
 1127TIP3   OH224795   6.575   2.796   4.614  0.3568 -0.6748 -0.0184
 1127TIP3    H124796   6.670   2.787   4.606  0.4135  0.4859 -0.8334
 1127TIP3    H224797   6.557   2.770   4.705  1.5391 -0.1674  0.3859
 1128TIP3   OH224798   6.447   3.819   0.836 -0.4269 -0.4430  0.0887
 1128TIP3    H124799   6.388   3.745   0.855  1.2693 -1.9831 -0.3663
 1128TIP3    H224800   6.499   3.789   0.762  2.0196  0.2014  1.4603
 1129TIP3   OH224801   6.597   5.482  13.788  0.3199  0.3580 -0.0410
 1129TIP3    H124802   6.637   5.564  13.817  1.5577 -0.4160  0.5403
 1129TIP3    H224803   6.671   5.422  13.775 -0.5582 -0.7125 -0.3021
 1130TIP3   OH224804   3.629   3.356  11.407 -1.1275 -0.2677  0.1187
 1130TIP3    H124805   3.600   3.276  11.450 -0.9458 -0.5088 -0.2048
 1130TIP3    H224806   3.557   3.380  11.348 -1.1128 -0.2810  0.0952
 1131TIP3   OH224807   0.082   4.693  13.713  0.7242 -0.0463  0.1502
 1131TIP3    H124808   0.001   4.714  13.759  1.4225  3.2573  0.1536
 1131TIP3    H224809   0.152   4.720  13.773  1.8602 -1.7116 -0.3325
 1132TIP3   OH224810   5.501   3.776  14.136 -0.4287  0.2443 -0.1404
 1132TIP3    H124811   5.422   3.830  14.131 -0.4924  0.0441 -2.8427
 1132TIP3    H224812   5.572   3.838  14.117 -0.1736 -0.0210 -0.0459
 1133TIP3   OH224813   1.248   1.936  14.192 -0.3666  0.1062 -0.2690
 1133TIP3    H124814   1.173   1.994  14.182 -1.0068 -0.7337 -0.4483
 1133TIP3    H224815   1.290   1.936  14.106  0.1276  0.9395 -0.0425
 1134TIP3   OH224816   0.952   1.473  11.639 -0.1021  0.0451 -0.2655
 1134TIP3    H124817   0.925   1.392  11.683 -1.5001 -0.3232 -1.7127
 1134TIP3    H224818   0.942   1.454  11.546 -0.5106  1.8984 -0.6376
 1135TIP3   OH224819   6.296   6.758   4.378  0.0451 -0.6123 -0.1717
 1135TIP3    H124820   6.293   6.664   4.393  1.8207 -0.7168 -0.3098
 1135TIP3    H224821   6.204   6.784   4.370 -0.7067 -1.7507  3.2741
 1136TIP3   OH224822   6.216   0.210   5.035 -0.2075  0.0864  0.4339
 1136TIP3    H124823   6.299   0.164   5.047 -0.0877  0.5301  1.4717
 1136TIP3    H224824   6.180   0.175   4.954  0.9674 -0.1426 -0.0022
 1137TIP3   OH224825   0.473   1.628   0.402 -0.1712 -0.0345  0.0753
 1137TIP3    H124826   0.458   1.575   0.481  0.7760  0.0368  0.3191
 1137TIP3    H224827   0.542   1.690   0.428  0.0689  0.0662 -0.7782
 1138TIP3   OH224828   0.796   6.629  13.597  0.1305 -0.0988  0.8197
 1138TIP3    H124829   0.799   6.578  13.516  1.7069  1.1413  0.0262
 1138TIP3    H224830   0.876   6.603  13.644  1.4572  2.1467 -0.0105
 1139TIP3   OH224831   0.712   4.455  15.862  0.3628 -0.0434  0.5991
 1139TIP3    H124832   0.648   4.386  15.849 -0.8021  0.8929  1.2056
 1139TIP3    H224833   0.769   4.423  15.932 -0.2984 -0.3090  1.0173
 1140TIP3   OH224834   2.443   3.916   6.086  0.5187 -0.1461 -0.3960
 1140TIP3    H124835   2.498   3.925   6.008 -0.4740  1.4210 -0.9695
 1140TIP3    H224836   2.441   4.004   6.124 -2.2173  0.0751 -0.8668
 1141TIP3   OH224837   0.373   2.408   6.133 -0.7493 -0.0940  0.0652
 1141TIP3    H124838   0.317   2.485   6.145 -1.8003 -0.8977  0.5322
 1141TIP3    H224839   0.375   2.366   6.219  0.6611 -0.0485  0.0759
 1142TIP3   OH224840   5.836   0.555  16.520 -0.0569 -0.0474 -0.2756
 1142TIP3    H124841   5.835   0.648  16.543 -1.0913 -0.2781  0.6846
 1142TIP3    H224842   5.923   0.541  16.482  0.5621  1.0376  0.6830
 1143TIP3   OH224843   0.304   0.982  12.249  0.2711  0.3043  0.4672
 1143TIP3    H124844   0.397   0.961  12.241  0.0563 -1.3007  1.6508
 1143TIP3    H224845   0.287   1.046  12.180  2.3752  1.0689  0.6147
 1144TIP3   OH224846   2.101   4.131  16.513  0.2297 -0.0678  0.2268
 1144TIP3    H124847   2.135   4.189  16.581 -0.5712  0.9898 -0.2466
 1144TIP3    H224848   2.034   4.078  16.557  0.2394  0.0966  0.4381
 1145TIP3   OH224849   0.512   2.072  11.334  0.7828  0.1049 -0.7272
 1145TIP3    H124850   0.450   2.072  11.261 -0.6078 -3.3019  0.2545
 1145TIP3    H224851   0.590   2.028  11.301  0.6638 -0.2412 -0.5559
 1146TIP3   OH224852   1.802   1.669   5.710 -0.5916  0.1407 -0.2912
 1146TIP3    H124853   1.852   1.587   5.710 -0.1568  0.3816 -1.8574
 1146TIP3    H224854   1.769   1.676   5.800 -1.3140 -2.1590 -0.2996
 1147TIP3   OH224855   2.605   1.485   0.962 -0.0700 -0.0754  0.1416
 1147TIP3    H124856   2.551   1.493   0.883  0.0599  2.5239  0.2151
 1147TIP3    H224857   2.644   1.398   0.956  1.7731  0.7923 -3.8766
 1148TIP3   OH224858   2.261   2.344   3.820 -0.5550  0.4028 -0.4651
 1148TIP3    H124859   2.187   2.371   3.874 -1.5825  1.6634 -2.4053
 1148TIP3    H224860   2.330   2.407   3.842 -1.4256  1.7878 -1.5862
 1149TIP3   OH224861   2.365   4.388   4.623  0.5449  0.4809  0.4089
 1149TIP3    H124862   2.310   4.401   4.700 -1.1215  1.6706 -0.9108
 1149TIP3    H224863   2.312   4.335   4.564  2.2142 -1.3660  0.4309
 1150TIP3   OH224864   2.756   1.283  11.654 -0.1415  0.0586 -0.0562
 1150TIP3    H124865   2.776   1.349  11.587  0.8408  0.5852  0.7304
 1150TIP3    H224866   2.748   1.201  11.605  0.3939  0.4647 -0.8485
 1151TIP3   OH224867   6.404   4.046   0.671 -0.5291 -0.0373  0.2708
 1151TIP3    H124868   6.393   3.968   0.726 -2.9433 -0.8820 -1.2621
 1151TIP3    H224869   6.453   4.015   0.595 -2.5797 -0.4670 -0.9498
 1152TIP3   OH224870   6.577   2.429   1.648  0.3012  0.7087  0.4288
 1152TIP3    H124871   6.573   2.502   1.586  1.9269  0.0868 -0.4899
 1152TIP3    H224872   6.640   2.368   1.609 -1.9344 -1.8463  0.4783
 1153TIP3   OH224873   6.405   4.183   6.173 -0.0112 -0.1573 -0.0048
 1153TIP3    H124874   6.443   4.226   6.249 -1.9993  0.4351  0.7139
 1153TIP3    H224875   6.359   4.107   6.209 -0.7270 -0.0356 -0.6445
 1154TIP3   OH224876   1.525   6.383  14.694  0.0833 -0.0811 -0.1901
 1154TIP3    H124877   1.466   6.455  14.715  0.8659  0.5299 -0.0571
 1154TIP3    H224878   1.491   6.309  14.744  0.9062  0.8993  1.9231
 1155TIP3   OH224879   6.254   1.312   2.006  0.3817  0.0960 -0.3436
 1155TIP3    H124880   6.172   1.359   2.019  0.3663 -0.1291  0.4133
 1155TIP3    H224881   6.253   1.288   1.913  0.2532  1.3060 -0.6734
 1156TIP3   OH224882   2.530   3.359  16.400 -0.2130 -0.0893  0.1503
 1156TIP3    H124883   2.473   3.432  16.425 -2.0973 -1.7781  1.0821
 1156TIP3    H224884   2.500   3.335  16.313 -0.6762 -0.6998  0.4668
 1157TIP3   OH224885   6.194   1.582  12.814 -0.0591 -0.1727  0.1472
 1157TIP3    H124886   6.113   1.531  12.803  0.3164 -0.6810 -0.3646
 1157TIP3    H224887   6.263   1.519  12.793  0.4642  0.2786  0.5186
 1158TIP3   OH224888   0.690   5.141  15.716  0.2392 -0.3436 -0.2206
 1158TIP3    H124889   0.667   5.221  15.668 -0.2383 -0.9284 -1.0061
 1158TIP3    H224890   0.777   5.158  15.752  0.3381  0.3564 -0.7672
 1159TIP3   OH224891   2.804   3.521  15.078  0.1280 -0.9071  0.4970
 1159TIP3    H124892   2.809   3.549  14.986 -0.1448 -2.1853  0.0703
 1159TIP3    H224893   2.879   3.564  15.120 -0.0185  0.0751 -0.2053
 1160TIP3   OH224894   4.723   1.740   5.650 -0.3485 -0.1696  0.4180
 1160TIP3    H124895   4.714   1.779   5.737 -0.1201 -0.2251  0.4693
 1160TIP3    H224896   4.635   1.744   5.612  0.1859  3.2252 -0.8255
 1161TIP3   OH224897   6.719   0.870  15.722  0.2044 -0.1321  0.7776
 1161TIP3    H124898   6.799   0.833  15.759 -1.2110 -2.4907  1.6291
 1161TIP3    H224899   6.704   0.820  15.642  1.1727  2.4057 -1.1617
 1162TIP3   OH224900   6.725   0.357  11.048  0.3613 -0.0617 -0.2453
 1162TIP3    H124901   6.778   0.391  10.976  0.2049  1.4011  0.2870
 1162TIP3    H224902   6.784   0.355  11.123 -0.6049  3.0394  0.7330
 1163TIP3   OH224903   6.523   5.588  14.387 -0.2542 -0.5777 -0.1699
 1163TIP3    H124904   6.457   5.580  14.457 -2.7242 -1.7041 -2.4535
 1163TIP3    H224905   6.597   5.535  14.418 -0.7870 -0.1230  2.0411
 1164TIP3   OH224906   3.209   2.057  14.305  0.2364 -0.5202  0.1152
 1164TIP3    H124907   3.204   1.961  14.312 -1.2377 -0.4936 -0.3480
 1164TIP3    H224908   3.118   2.086  14.301  0.6638  0.7509 -1.6956
 1165TIP3   OH224909   0.024   0.765   5.851 -0.1507  0.0509  0.3811
 1165TIP3    H124910   0.027   0.679   5.891  1.6740  0.2381  0.7269
 1165TIP3    H224911   0.035   0.826   5.924  0.5446  0.4909 -0.0781
 1166TIP3   OH224912   4.151   5.581  16.599 -0.1793 -0.0871 -0.1155
 1166TIP3    H124913   4.076   5.556  16.653  0.1780  0.9647  0.9068
 1166TIP3    H224914   4.114   5.636  16.530 -0.4901 -0.5516 -0.3289
 1167TIP3   OH224915   4.051   1.147  12.899 -0.1767  0.3735  0.1388
 1167TIP3    H124916   3.977   1.091  12.875 -0.0821  0.6611 -0.8420
 1167TIP3    H224917   4.126   1.087  12.901 -0.1505  0.3826 -0.4896
 1168TIP3   OH224918   3.399   2.637  11.900  0.3045 -0.3724 -0.0826
 1168TIP3    H124919   3.375   2.656  11.991  1.4655 -1.0448  0.3885
 1168TIP3    H224920   3.319   2.602  11.861  0.1382 -1.3533  1.0674
 1169TIP3   OH224921   4.866   6.420  12.343 -0.0753 -0.5024 -0.0113
 1169TIP3    H124922   4.878   6.442  12.436 -0.8797  0.2535 -0.0678
 1169TIP3    H224923   4.776   6.387  12.338  0.7298 -2.8561 -0.1381
 1170TIP3   OH224924   6.423   5.654  12.197 -0.0560 -0.1006  0.0703
 1170TIP3    H124925   6.339   5.694  12.174  0.3675  0.8954  0.1962
 1170TIP3    H224926   6.472   5.649  12.115 -0.5761 -1.5603 -0.1780
 1171TIP3   OH224927   3.468   6.042  14.448 -0.2171 -0.3545  0.5963
 1171TIP3    H124928   3.413   6.095  14.390  0.3750  0.2764  0.5945
 1171TIP3    H224929   3.556   6.078  14.437 -0.1548  0.0532  2.1866
 1172TIP3   OH224930   4.764   3.541  17.149  0.0914 -0.6234 -0.0245
 1172TIP3    H124931   4.719   3.473  17.097  0.4819  0.0212 -1.2442
 1172TIP3    H224932   4.694   3.599  17.177  0.0046 -0.2930 -0.8970
 1173TIP3   OH224933   1.861   3.965  12.053 -0.1266  0.5101 -0.4692
 1173TIP3    H124934   1.931   3.905  12.026  0.6761  1.8692 -1.5259
 1173TIP3    H224935   1.788   3.945  11.994 -0.8711 -1.2561  0.9586
 1174TIP3   OH224936   4.556   1.224   1.184 -0.4715  0.4346  0.1741
 1174TIP3    H124937   4.581   1.255   1.271  0.0362  2.6398 -0.6713
 1174TIP3    H224938   4.567   1.301   1.128 -3.1578 -0.2098 -1.4102
 1175TIP3   OH224939   0.579   2.350  12.601  0.8560 -0.6378 -0.2183
 1175TIP3    H124940   0.631   2.335  12.522  1.0580  2.4251 -0.7957
 1175TIP3    H224941   0.629   2.308  12.671  1.4276 -2.1517 -1.4931
 1176TIP3   OH224942   0.725   3.364  14.587 -0.1569  0.0517 -0.0017
 1176TIP3    H124943   0.762   3.404  14.508  0.4243 -0.0428  0.2152
 1176TIP3    H224944   0.672   3.433  14.626  1.1793  0.7699  0.5989
 1177TIP3   OH224945   1.384   4.033  12.736 -0.9074  0.3009 -0.0214
 1177TIP3    H124946   1.323   4.091  12.691  0.6153  0.9485 -1.3795
 1177TIP3    H224947   1.405   3.966  12.671 -1.0007 -0.5382  0.8008
 1178TIP3   OH224948   5.145   5.966   5.075 -0.4049 -0.5950  0.2415
 1178TIP3    H124949   5.153   5.886   5.023 -2.0801 -1.4288  1.1858
 1178TIP3    H224950   5.234   6.000   5.081 -0.0740 -0.6651 -2.7850
 1179TIP3   OH224951   5.109   2.228   4.589  0.2961 -0.6011  0.6193
 1179TIP3    H124952   5.086   2.164   4.523  2.5303 -0.6100 -0.2369
 1179TIP3    H224953   5.125   2.177   4.668  1.2930 -1.0503  0.1446
 1180TIP3   OH224954   1.801   6.073   1.895  0.4721  0.2956  0.1072
 1180TIP3    H124955   1.881   6.026   1.874  0.8926  0.8987  0.3583
 1180TIP3    H224956   1.820   6.164   1.877 -0.4016  0.3670 -0.5515
 1181TIP3   OH224957   2.004   0.717  15.133 -0.0846  0.2758  0.0493
 1181TIP3    H124958   1.988   0.623  15.140 -0.4011  0.3793  0.8641
 1181TIP3    H224959   1.925   0.752  15.093  0.3507  0.1070 -0.9920
 1182TIP3   OH224960   1.540   4.559  11.843  0.0352 -0.0608 -0.5349
 1182TIP3    H124961   1.595   4.623  11.797  0.5209 -0.7479 -0.9316
 1182TIP3    H224962   1.495   4.512  11.773 -1.5902  0.9223 -0.2028
 1183TIP3   OH224963   3.511   3.521   6.297  0.1743  0.1870 -0.6014
 1183TIP3    H124964   3.567   3.584   6.345  0.0826 -0.5551  0.5171
 1183TIP3    H224965   3.565   3.442   6.290  0.1855  0.2882 -1.7609
 1184TIP3   OH224966   3.230   3.785  16.837  0.1284  0.2714  0.0947
 1184TIP3    H124967   3.156   3.843  16.857  0.3307  0.2446  0.9869
 1184TIP3    H224968   3.292   3.842  16.792 -0.2389  0.4122 -0.2385
 1185TIP3   OH224969   2.868   3.974   0.745 -0.6664 -0.0189  0.6115
 1185TIP3    H124970   2.807   3.966   0.672  0.2916 -0.9802 -0.1301
 1185TIP3    H224971   2.813   3.994   0.821 -1.7684  0.1827 -0.2151
 1186TIP3   OH224972   6.119   0.536  11.578  0.0915 -0.4601 -0.1585
 1186TIP3    H124973   6.038   0.573  11.615 -0.1510 -0.4466 -0.6914
 1186TIP3    H224974   6.166   0.502  11.654 -1.0969 -1.8007  0.0294
 1187TIP3   OH224975   1.804   3.290   1.323  0.1865  0.1019  0.1929
 1187TIP3    H124976   1.844   3.246   1.248 -0.4083 -0.3723  0.1479
 1187TIP3    H224977   1.847   3.252   1.399  0.7485  0.5403  0.1027
 1188TIP3   OH224978   5.973   0.624   1.615  0.0865 -1.0399  0.0056
 1188TIP3    H124979   5.883   0.615   1.584 -0.5111  0.2097  1.2939
 1188TIP3    H224980   5.974   0.578   1.699  0.6199 -0.9282  0.0623
 1189TIP3   OH224981   5.126   5.187  14.400  0.4390 -0.3745 -0.3970
 1189TIP3    H124982   5.031   5.195  14.407  0.3680 -1.1558 -0.4589
 1189TIP3    H224983   5.160   5.260  14.453 -0.1793 -0.6014  0.3209
 1190TIP3   OH224984   6.157   6.311  10.916 -0.1360  0.1686 -0.1028
 1190TIP3    H124985   6.247   6.305  10.886 -0.4926 -0.2330 -1.1597
 1190TIP3    H224986   6.107   6.258  10.853 -1.0055 -0.2425  0.8992
 1191TIP3   OH224987   2.271   0.653  14.045  0.1103 -0.1201 -0.3351
 1191TIP3    H124988   2.347   0.682  14.095  0.3270  1.3698 -1.4525
 1191TIP3    H224989   2.286   0.559  14.031  0.9637 -0.1614  0.7698
 1192TIP3   OH224990   4.750   4.962   4.916  0.6487  0.2288  0.5435
 1192TIP3    H124991   4.707   4.896   4.971  1.4524  1.2839  2.5727
 1192TIP3    H224992   4.696   5.041   4.927 -0.9203 -0.2311 -2.7047
 1193TIP3   OH224993   0.427   0.956   1.693 -0.1170 -0.0580 -0.6806
 1193TIP3    H124994   0.356   0.953   1.757 -1.0498  0.7543 -1.6269
 1193TIP3    H224995   0.479   1.033   1.717 -0.1760 -0.0448 -0.5982
 1194TIP3   OH224996   4.728   5.345  13.772 -0.5426 -0.2772  0.0386
 1194TIP3    H124997   4.785   5.353  13.695 -0.6269  0.8856  0.0772
 1194TIP3    H224998   4.707   5.252  13.777  1.9688 -0.8980  0.4806
 1195TIP3   OH224999   1.402   2.533  17.324  0.0598  0.0283  0.2958
 1195TIP3    H125000   1.392   2.628  17.311 -0.4810 -0.0781 -0.1020
 1195TIP3    H225001   1.313   2.499  17.315  0.6562 -1.0104 -3.6362
 1196TIP3   OH225002   5.850   2.180   5.300 -0.1330 -0.2620 -0.3267
 1196TIP3    H125003   5.801   2.255   5.334 -0.5753  0.3487 -2.1471
 1196TIP3    H225004   5.845   2.114   5.369 -1.3999  0.6848  0.5430
 1197TIP3   OH225005   2.268   6.514   5.812 -0.5272 -0.2425  0.1552
 1197TIP3    H125006   2.244   6.523   5.904 -2.1645 -1.5194 -0.1015
 1197TIP3    H225007   2.280   6.604   5.781 -0.3894  0.2177  1.5013
 1198TIP3   OH225008   5.407   0.292  13.148 -0.4278 -0.9195 -0.7797
 1198TIP3    H125009   5.413   0.238  13.227 -0.5038  0.3360  0.1167
 1198TIP3    H225010   5.361   0.238  13.085 -1.5928 -1.4610  0.4923
 1199TIP3   OH225011   1.277   1.218  13.070  0.1363  0.0936 -0.0238
 1199TIP3    H125012   1.343   1.245  13.007  1.6183 -2.9627  0.0694
 1199TIP3    H225013   1.258   1.127  13.049 -1.4366 -0.1791  2.1890
 1200TIP3   OH225014   1.370   1.325  14.958 -0.6777 -0.1156 -0.2524
 1200TIP3    H125015   1.378   1.409  15.004  1.8144 -1.2920  1.7519
 1200TIP3    H225016   1.334   1.266  15.024 -2.8432 -0.6181 -1.7783
 1201TIP3   OH225017   1.301   6.544  14.750 -0.3562 -0.3290 -0.3569
 1201TIP3    H125018   1.353   6.584  14.820 -0.0542  0.2392 -0.8960
 1201TIP3    H225019   1.210   6.563  14.774 -0.2026  1.5264 -1.0747
 1202TIP3   OH225020   5.752   6.015   4.362 -0.2303  0.2608 -0.1488
 1202TIP3    H125021   5.778   6.039   4.451  0.0094  0.5305 -0.2902
 1202TIP3    H225022   5.808   6.068   4.305 -1.1335  0.9283 -0.4543
 1203TIP3   OH225023   4.325   4.329   8.359 -0.0551  0.0944 -0.2510
 1203TIP3    H125024   4.355   4.419   8.369 -0.5760  0.1435  1.1522
 1203TIP3    H225025   4.305   4.300   8.449 -0.8824 -1.0663 -0.7807
 1204TIP3   OH225026   0.057   5.775   3.315 -0.1242 -0.3156 -0.0449
 1204TIP3    H125027  -0.012   5.822   3.362  0.7116 -0.8902  1.8270
 1204TIP3    H225028   0.139   5.811   3.350  0.5826  0.1879 -2.0550
 1205TIP3   OH225029   5.022   6.438   0.967  0.5107  0.2730 -0.2143
 1205TIP3    H125030   5.094   6.446   1.030  0.1039 -1.0137  0.4463
 1205TIP3    H225031   4.970   6.517   0.980  1.6547  1.0990 -0.5213
 1206TIP3   OH225032   6.406   6.773  17.037 -0.5713  0.6839 -0.1163
 1206TIP3    H125033   6.453   6.856  17.028 -1.2393  1.0293 -0.5201
 1206TIP3    H225034   6.407   6.736  16.949  0.3746 -0.1097  0.2119
 1207TIP3   OH225035   1.879   5.492  11.320  0.5058 -0.1776 -0.5949
 1207TIP3    H125036   1.954   5.433  11.324  0.2884 -0.4017  0.6991
 1207TIP3    H225037   1.913   5.577  11.346  0.4714 -0.0963 -0.8090
 1208TIP3   OH225038   3.679   6.206  14.425 -0.8260 -0.2224 -0.0228
 1208TIP3    H125039   3.662   6.257  14.346  0.7515  1.2508  0.5472
 1208TIP3    H225040   3.733   6.133  14.395  1.1032  1.1708 -0.1537
 1209TIP3   OH225041   0.836   5.866   3.123  0.4245 -0.2721  0.2041
 1209TIP3    H125042   0.927   5.875   3.094  0.2895 -0.5155 -0.3069
 1209TIP3    H225043   0.796   5.950   3.100  0.5279 -0.1437  0.4796
 1210TIP3   OH225044   6.033   3.366   5.060  0.0614 -0.2427 -0.3173
 1210TIP3    H125045   5.968   3.407   5.003 -1.9270 -1.1200  1.2149
 1210TIP3    H225046   5.987   3.353   5.143  1.5953 -2.6809  0.2264
 1211TIP3   OH225047   2.855   1.704   4.624 -0.3093 -0.4245 -0.7373
 1211TIP3    H125048   2.927   1.732   4.680  0.6253 -0.4455 -1.9077
 1211TIP3    H225049   2.810   1.786   4.600 -1.7116 -0.5287  1.2993
 1212TIP3   OH225050   6.105   3.544   0.209  0.4980 -0.1779 -0.3998
 1212TIP3    H125051   6.032   3.483   0.218  0.4644 -0.2144 -0.8922
 1212TIP3    H225052   6.143   3.549   0.297  0.2534 -0.5941 -0.2663
 1213TIP3   OH225053   0.095   0.774  17.273  0.1264 -0.5415  0.5590
 1213TIP3    H125054   0.093   0.727  17.356 -0.4445 -2.0612 -0.2909
 1213TIP3    H225055   0.150   0.720  17.216 -0.0883  0.1080 -0.2856
 1214TIP3   OH225056   1.918   1.080  12.178  0.3103  0.6903 -0.9210
 1214TIP3    H125057   1.926   0.987  12.201  0.6256  1.0977  0.7715
 1214TIP3    H225058   1.989   1.095  12.116  2.9261  0.6250  1.7967
 1215TIP3   OH225059   5.655   5.553  15.117  0.1929  0.2114  0.2363
 1215TIP3    H125060   5.617   5.553  15.205  0.5907  1.2484  0.4126
 1215TIP3    H225061   5.746   5.529  15.130  0.0028 -0.6880 -0.0191
 1216TIP3   OH225062   0.864   3.818  17.305  0.2555 -0.2991  0.1143
 1216TIP3    H125063   0.861   3.736  17.354  2.3701 -1.5418 -1.6223
 1216TIP3    H225064   0.941   3.864  17.339  0.4908 -0.1843 -0.5496
 1217TIP3   OH225065   6.426   1.645  12.369  0.3885 -0.4715 -0.2992
 1217TIP3    H125066   6.384   1.722  12.407  1.1526 -0.9473  1.6233
 1217TIP3    H225067   6.353   1.585  12.352  0.0711 -0.6404  1.4390
 1218TIP3   OH225068   6.400   1.695  14.895  0.1040 -0.5547  0.2140
 1218TIP3    H125069   6.397   1.728  14.805 -0.3394 -2.4785 -0.5370
 1218TIP3    H225070   6.417   1.772  14.949  0.5740  0.6216 -1.5308
 1219TIP3   OH225071   2.670   0.803  10.588 -0.1260  0.0084  0.2746
 1219TIP3    H125072   2.734   0.758  10.534  1.6247 -0.4526  2.5702
 1219TIP3    H225073   2.589   0.754  10.576  0.8315 -1.5647 -0.0769
 1220TIP3   OH225074   1.458   2.819   0.319 -0.2252  0.4600 -0.1520
 1220TIP3    H125075   1.440   2.801   0.412  2.4587  0.7704  0.5017
 1220TIP3    H225076   1.437   2.911   0.308  0.8532  0.8172  0.5806
 1221TIP3   OH225077   1.965   3.319  11.229 -0.2213 -0.3554  0.1540
 1221TIP3    H125078   1.870   3.329  11.228 -0.2465 -0.5931 -0.1319
 1221TIP3    H225079   1.981   3.242  11.174  0.0242 -1.2980  1.5028
 1222TIP3   OH225080   3.638   6.200   1.966  0.1923 -0.7194  0.2228
 1222TIP3    H125081   3.581   6.234   1.897  2.0796  3.7714  0.5884
 1222TIP3    H225082   3.585   6.207   2.045  0.0328 -0.0360  0.0647
 1223TIP3   OH225083   0.169   3.529  12.488  0.2115 -0.1533 -0.3789
 1223TIP3    H125084   0.197   3.573  12.568  0.7981  0.6201 -1.0047
 1223TIP3    H225085   0.091   3.479  12.515 -2.5180  3.7308 -0.2892
 1224TIP3   OH225086   6.503   2.282  16.985  0.2650  0.2413  0.2752
 1224TIP3    H125087   6.482   2.189  16.977 -2.1091  0.6757  0.6656
 1224TIP3    H225088   6.513   2.296  17.080  0.9659  0.3107  0.1895
 1225TIP3   OH225089   3.190   1.578   0.025  0.1324 -0.1985  0.0012
 1225TIP3    H125090   3.196   1.646   0.092  0.1864 -1.0554  0.9048
 1225TIP3    H225091   3.248   1.607  -0.045  0.5574  0.4309  0.6020
 1226TIP3   OH225092   5.746   0.962   4.088  0.0259  0.3226 -0.0709
 1226TIP3    H125093   5.690   0.890   4.117  0.7499 -0.1900  0.0946
 1226TIP3    H225094   5.760   0.946   3.995 -0.3982  0.6590 -0.1954
 1227TIP3   OH225095   5.098   2.028   0.144  0.1006  0.4193 -0.7224
 1227TIP3    H125096   5.095   2.044   0.238  0.5249 -0.4705 -0.5526
 1227TIP3    H225097   5.109   2.115   0.105  4.5128  0.5390  0.2465
 1228TIP3   OH225098   1.886   5.972   5.241  0.1960  0.4182  0.4057
 1228TIP3    H125099   1.928   5.900   5.195 -2.0094 -1.2083  0.7593
 1228TIP3    H225100   1.915   5.962   5.332  1.9664  1.6476  0.0258
 1229TIP3   OH225101   6.541   4.738  12.912  0.1246 -0.2593  0.1288
 1229TIP3    H125102   6.481   4.703  12.846 -3.3147  1.4272  2.0830
 1229TIP3    H225103   6.581   4.814  12.871 -0.4294 -0.3746 -0.6496
 1230TIP3   OH225104   0.511   0.159  11.475  0.0049  0.8422 -0.2498
 1230TIP3    H125105   0.438   0.170  11.537 -1.2484 -0.3060 -1.4354
 1230TIP3    H225106   0.540   0.249  11.456  0.1116  1.2436  1.5819
 1231TIP3   OH225107   0.666   1.438   4.920  0.0314  0.5691  0.3818
 1231TIP3    H125108   0.656   1.532   4.938 -0.6274  0.8944 -1.3538
 1231TIP3    H225109   0.694   1.435   4.828 -1.9394 -0.9423 -0.2500
 1232TIP3   OH225110   4.034   2.510   0.808  0.0016 -0.4575 -0.1520
 1232TIP3    H125111   4.100   2.441   0.807 -0.3725 -0.8181  0.0418
 1232TIP3    H225112   4.076   2.583   0.762  0.7304 -0.4958  0.4214
 1233TIP3   OH225113   5.118   4.946  15.292 -0.7793 -0.0990 -0.5466
 1233TIP3    H125114   5.114   4.934  15.198 -0.2103 -2.1521 -0.3639
 1233TIP3    H225115   5.111   4.857  15.328  0.4782  0.4777  1.2730
 1234TIP3   OH225116   5.865   4.990  11.412  0.5363 -0.8620 -0.0941
 1234TIP3    H125117   5.777   5.009  11.445  0.3216 -0.9337 -0.6211
 1234TIP3    H225118   5.919   4.987  11.491  0.3386  0.5829  0.1247
 1235TIP3   OH225119   0.976   1.234   2.868 -0.0623 -0.1398  0.9705
 1235TIP3    H125120   0.931   1.316   2.886 -1.5068 -0.9438  1.1876
 1235TIP3    H225121   0.927   1.195   2.796  1.0458 -0.4959  0.3759
 1236TIP3   OH225122   5.200   6.168   2.897  0.4076 -0.3999  0.0258
 1236TIP3    H125123   5.134   6.226   2.857 -0.5569  0.7000  2.9053
 1236TIP3    H225124   5.155   6.084   2.907  1.3645 -1.3849 -2.9280
 1237TIP3   OH225125   2.126   6.434   1.064 -0.1641 -0.5041  0.7919
 1237TIP3    H125126   2.158   6.344   1.071  1.2706  0.0470  1.8006
 1237TIP3    H225127   2.200   6.483   1.029 -0.6917  0.4020  0.9149
 1238TIP3   OH225128   5.420   1.591   0.119 -0.4184  0.7939  0.2689
 1238TIP3    H125129   5.361   1.524   0.154  0.3045 -0.0367 -0.0747
 1238TIP3    H225130   5.364   1.667   0.106 -1.8751 -0.5239 -1.8268
 1239TIP3   OH225131   2.336   4.356  12.222  0.3347 -0.1155 -0.2063
 1239TIP3    H125132   2.299   4.281  12.269  0.3065 -0.3475 -0.5987
 1239TIP3    H225133   2.364   4.321  12.138 -1.1038  0.6109 -1.0283
 1240TIP3   OH225134   3.399   5.422  12.892 -0.1037 -0.2030 -0.1434
 1240TIP3    H125135   3.483   5.443  12.934 -0.2012  1.4864 -0.7195
 1240TIP3    H225136   3.412   5.446  12.800 -1.0134 -0.6008 -0.3864
 1241TIP3   OH225137   4.056   1.956  15.993 -0.5804 -0.2428 -0.0108
 1241TIP3    H125138   4.091   1.983  15.908  2.0875 -1.6887  0.5391
 1241TIP3    H225139   3.988   1.893  15.971 -2.2584  1.7936 -1.0816
 1242TIP3   OH225140   6.719   1.667  14.568 -0.0232 -0.0894 -0.6823
 1242TIP3    H125141   6.742   1.760  14.570  0.6373 -0.2453  1.5123
 1242TIP3    H225142   6.705   1.648  14.475  0.2994  2.0720 -1.2347
 1243TIP3   OH225143   3.900   0.897   2.182  0.6948  0.1547 -0.0558
 1243TIP3    H125144   3.983   0.875   2.224 -0.0483 -0.1399  1.3337
 1243TIP3    H225145   3.885   0.989   2.204  0.1415 -0.0928  0.6434
 1244TIP3   OH225146   2.623   0.600  12.667 -0.3751 -0.4854  0.6735
 1244TIP3    H125147   2.560   0.577  12.735  0.0358 -1.2975  0.7900
 1244TIP3    H225148   2.699   0.633  12.715 -1.3676  2.3990  0.4972
 1245TIP3   OH225149   4.640   1.235   4.125 -0.0253 -0.0772 -0.0925
 1245TIP3    H125150   4.679   1.319   4.103 -1.6138  1.0782  1.3022
 1245TIP3    H225151   4.643   1.185   4.043 -0.7329  2.0220 -1.4602
 1246TIP3   OH225152   1.193   4.555   3.538 -0.0917  0.0433 -0.7371
 1246TIP3    H125153   1.159   4.502   3.466  0.9642 -0.2206 -1.0516
 1246TIP3    H225154   1.146   4.523   3.616  1.0443 -1.9025 -0.7805
 1247TIP3   OH225155   0.831   6.460  11.562 -0.1580  0.6646  0.7382
 1247TIP3    H125156   0.815   6.374  11.599  0.1746  0.7264  1.0254
 1247TIP3    H225157   0.884   6.444  11.484 -2.1184  0.3894 -0.6234
 1248TIP3   OH225158   6.499   6.456   0.767  0.0598 -0.3721 -0.4511
 1248TIP3    H125159   6.515   6.386   0.703  1.4027  1.6040 -2.4252
 1248TIP3    H225160   6.580   6.507   0.767 -0.8746  1.1912  0.8920
 1249TIP3   OH225161   1.693   0.885  17.072  0.2122  0.2499  0.3005
 1249TIP3    H125162   1.713   0.855  17.160  0.3107 -0.6665 -0.0213
 1249TIP3    H225163   1.778   0.909  17.034  0.1913  0.4652  0.3875
 1250TIP3   OH225164   3.980   4.469   1.660  0.8144 -0.9860  0.1592
 1250TIP3    H125165   3.991   4.417   1.580 -0.6165  0.5032 -1.0937
 1250TIP3    H225166   3.992   4.559   1.631 -0.1465 -0.3765  1.5452
 1251TIP3   OH225167   3.079   3.769  17.231 -0.1197  0.0709 -0.2783
 1251TIP3    H125168   3.167   3.779  17.194 -0.4765  0.3302 -1.0615
 1251TIP3    H225169   3.093   3.718  17.311  1.4193  4.0588  2.3469
 1252TIP3   OH225170   0.928   2.065  13.346 -0.2472 -1.2962 -0.6304
 1252TIP3    H125171   0.919   2.039  13.254  0.2323 -0.4450 -0.9348
 1252TIP3    H225172   0.951   2.158  13.341  1.0025 -1.5424  0.3200
 1253TIP3   OH225173   6.479   0.838   5.123  0.4056 -0.0372 -0.6969
 1253TIP3    H125174   6.551   0.820   5.063  1.3790  0.0405  0.4047
 1253TIP3    H225175   6.463   0.932   5.114  2.2489  0.4924  0.9305
 1254TIP3   OH225176   4.252   0.116  16.263  0.1034  0.0749 -0.0455
 1254TIP3    H125177   4.297   0.060  16.200  1.9200  0.5154  0.7950
 1254TIP3    H225178   4.160   0.114  16.236  0.7766  0.0653 -2.5622
 1255TIP3   OH225179   6.269   0.605   5.462 -0.6486 -0.2481  0.6020
 1255TIP3    H125180   6.327   0.530   5.450 -1.2508 -0.8316  1.2169
 1255TIP3    H225181   6.198   0.571   5.516 -1.8050  0.3247 -0.5132
 1256TIP3   OH225182   1.974   2.116  16.870 -0.5146  0.3429 -1.0461
 1256TIP3    H125183   1.887   2.083  16.845 -0.0446 -0.4587 -1.6783
 1256TIP3    H225184   1.987   2.083  16.959 -1.5191  1.8464 -0.2892
 1257TIP3   OH225185   5.731   3.353  14.953 -0.3361  0.0995  0.2614
 1257TIP3    H125186   5.736   3.417  14.882 -1.7428 -0.5405 -0.4537
 1257TIP3    H225187   5.670   3.287  14.921 -0.2658 -0.6962  1.6992
 1258TIP3   OH225188   5.391   6.692   4.830  0.4366  0.3276  0.7285
 1258TIP3    H125189   5.361   6.627   4.893 -0.3710 -0.0815 -0.0560
 1258TIP3    H225190   5.452   6.644   4.774 -0.8073 -0.0259 -0.3857
 1259TIP3   OH225191   0.807   1.181  15.797 -0.7847 -0.5997  0.0887
 1259TIP3    H125192   0.757   1.195  15.877 -2.3075  0.1523 -0.9549
 1259TIP3    H225193   0.892   1.222  15.815 -1.1071 -0.4277  1.2991
 1260TIP3   OH225194   3.113   1.164  12.779  0.3348  0.4954 -0.5711
 1260TIP3    H125195   3.171   1.098  12.741 -0.4217 -0.0182 -0.8581
 1260TIP3    H225196   3.172   1.223  12.828  1.0254 -0.3651 -0.3423
 1261TIP3   OH225197   2.121   1.661  13.230 -0.0623  0.4085 -0.0946
 1261TIP3    H125198   2.150   1.579  13.270 -0.0012 -0.2388 -1.3894
 1261TIP3    H225199   2.064   1.701  13.295  0.6403 -0.2033  0.9347
 1262TIP3   OH225200   1.569   1.293  17.023  0.9886  0.2652  0.1761
 1262TIP3    H125201   1.580   1.346  16.944 -1.8477  0.6493 -0.0658
 1262TIP3    H225202   1.523   1.350  17.084  1.3308 -0.6847  1.3668
 1263TIP3   OH225203   5.293   4.008   4.683  0.8432  0.0674 -0.6928
 1263TIP3    H125204   5.383   4.040   4.677  0.4194  1.2978 -0.7816
 1263TIP3    H225205   5.241   4.087   4.697 -0.1710 -0.6919 -0.1166
 1264TIP3   OH225206   2.479   2.873  14.889 -0.0818  0.1218 -0.1407
 1264TIP3    H125207   2.471   2.805  14.956 -0.0702 -0.2637 -0.5206
 1264TIP3    H225208   2.391   2.880  14.851 -0.1822  0.6174  0.1763
 1265TIP3   OH225209   1.731   1.854   2.867  0.2337 -0.3494  0.4960
 1265TIP3    H125210   1.716   1.945   2.892  1.8847 -0.2151  1.1312
 1265TIP3    H225211   1.697   1.847   2.778  0.4931  1.0161  0.2662
 1266TIP3   OH225212   3.674   0.769   5.551  0.3950  0.3203  0.4147
 1266TIP3    H125213   3.737   0.821   5.502  0.2432 -1.5216 -1.9082
 1266TIP3    H225214   3.694   0.678   5.527 -2.2737 -0.4089  0.6311
 1267TIP3   OH225215   6.170   2.564   4.918  0.2639  0.0214  0.1078
 1267TIP3    H125216   6.209   2.609   4.843  1.7432  2.2309  2.0422
 1267TIP3    H225217   6.244   2.526   4.965 -0.5861 -1.0493  0.6380
 1268TIP3   OH225218   1.304   2.814  16.796  0.3819 -0.3431  0.0954
 1268TIP3    H125219   1.253   2.776  16.867 -0.9589 -2.1966 -1.7309
 1268TIP3    H225220   1.266   2.901  16.782  0.8624  0.1703  1.7477
 1269TIP3   OH225221   0.553   0.369  17.284 -0.0574 -0.0752  0.7027
 1269TIP3    H125222   0.557   0.418  17.366  1.8975  0.2818  0.4351
 1269TIP3    H225223   0.634   0.392  17.239 -0.8592 -0.6656 -1.1078
 1270TIP3   OH225224   1.925   4.929  11.468 -0.0666 -0.5694  0.3606
 1270TIP3    H125225   1.949   4.836  11.464  1.3575 -0.1848 -0.5675
 1270TIP3    H225226   1.905   4.953  11.378 -1.4129 -0.1892  0.7352
 1271TIP3   OH225227   3.615   1.262   3.249 -0.2644  0.1624  0.7144
 1271TIP3    H125228   3.543   1.254   3.312 -1.4059  0.4427 -0.5094
 1271TIP3    H225229   3.576   1.305   3.173  1.1099 -0.0352 -0.1466
 1272TIP3   OH225230   3.352   4.914  15.166 -0.1995 -0.0788  0.0645
 1272TIP3    H125231   3.441   4.883  15.150 -0.7935 -1.2000 -1.2610
 1272TIP3    H225232   3.350   5.003  15.130 -0.2512 -0.9370 -2.1864
 1273TIP3   OH225233   2.650   3.349   4.014 -0.1001 -0.5637 -0.1086
 1273TIP3    H125234   2.598   3.430   4.018  1.5633  0.5529  0.0240
 1273TIP3    H225235   2.631   3.305   4.097 -3.3121 -1.8872 -1.3716
 1274TIP3   OH225236   4.216   5.869  13.246 -0.1398 -0.0306 -0.1951
 1274TIP3    H125237   4.240   5.913  13.165  3.3938 -1.5441 -0.1433
 1274TIP3    H225238   4.186   5.782  13.219 -1.6631  0.3895  0.0336
 1275TIP3   OH225239   1.830   5.449  16.577  0.1809  0.1942 -0.0805
 1275TIP3    H125240   1.741   5.444  16.613 -0.7231 -1.4648 -2.2839
 1275TIP3    H225241   1.829   5.525  16.520  0.3334  0.4672  0.2803
 1276TIP3   OH225242   0.696   2.040   3.603  0.0843 -0.1753 -0.4796
 1276TIP3    H125243   0.689   1.960   3.655 -0.4143 -0.1083 -0.4398
 1276TIP3    H225244   0.773   2.084   3.638 -0.1873 -0.1789  0.1460
 1277TIP3   OH225245   3.429   1.938   1.529 -0.0279 -0.3695 -0.1215
 1277TIP3    H125246   3.409   1.876   1.599  1.5023  0.0315  0.7347
 1277TIP3    H225247   3.419   1.888   1.448  1.3152 -1.8255  0.5569
 1278TIP3   OH225248   4.978   0.615  11.619 -0.5333 -0.1706 -0.2064
 1278TIP3    H125249   4.973   0.545  11.684 -0.9273  0.6078  0.6292
 1278TIP3    H225250   5.035   0.581  11.550 -0.1499 -1.0290  0.5255
 1279TIP3   OH225251   4.159   4.702  14.122 -0.4998  0.5842 -0.0112
 1279TIP3    H125252   4.197   4.614  14.119 -2.0125 -0.0953 -0.1424
 1279TIP3    H225253   4.221   4.757  14.074 -0.0902 -0.6394 -0.9275
 1280TIP3   OH225254   1.716   4.696   5.240  0.1642  0.2882  0.7499
 1280TIP3    H125255   1.649   4.710   5.306 -2.2970 -0.2034 -1.4634
 1280TIP3    H225256   1.699   4.763   5.174  0.0187 -1.4980 -1.1492
 1281TIP3   OH225257   2.790   0.647  17.126  0.3791 -0.1540  0.0969
 1281TIP3    H125258   2.838   0.652  17.043  2.4096  0.5725  1.2308
 1281TIP3    H225259   2.805   0.558  17.157  0.6585 -0.0542  0.2528
 1282TIP3   OH225260   1.701   3.069  17.084 -0.3195  0.4161 -0.2379
 1282TIP3    H125261   1.690   3.160  17.112  2.3671  0.8319 -0.2842
 1282TIP3    H225262   1.732   3.075  16.994  0.4959 -0.5133 -0.0313
 1283TIP3   OH225263   2.502   5.394  12.340 -0.1313 -0.1485 -0.1941
 1283TIP3    H125264   2.527   5.305  12.366 -0.4810 -1.0784 -2.6997
 1283TIP3    H225265   2.433   5.381  12.275  0.5211  1.9043 -1.3846
 1284TIP3   OH225266   1.863   4.428  16.067  0.1605  0.0736 -0.6662
 1284TIP3    H125267   1.944   4.443  16.116 -0.5819  1.4588  0.2030
 1284TIP3    H225268   1.882   4.351  16.013  1.6202 -0.4255  0.4655
 1285TIP3   OH225269   3.570   3.195   4.427 -0.0582 -0.0734  0.1346
 1285TIP3    H125270   3.561   3.140   4.350 -0.4779  0.6296 -0.3317
 1285TIP3    H225271   3.646   3.159   4.474 -1.1973 -1.9509  0.6220
 1286TIP3   OH225272   6.755   1.812   0.018  0.0879 -0.7551 -0.5673
 1286TIP3    H125273   6.845   1.779   0.027  0.2114 -0.5262 -0.9808
 1286TIP3    H225274   6.725   1.821   0.109  1.8248  2.8586 -0.1768
 1287TIP3   OH225275   4.442   1.304   5.640 -0.2060 -0.3329  0.2150
 1287TIP3    H125276   4.396   1.220   5.644  1.3382 -1.1790  1.4627
 1287TIP3    H225277   4.472   1.311   5.549  0.0924 -1.4201  0.2123
 1288TIP3   OH225278   6.051   4.369  16.766  0.1417  0.5039 -0.1673
 1288TIP3    H125279   6.077   4.327  16.684  0.6725 -2.3031  1.2978
 1288TIP3    H225280   5.966   4.330  16.787  0.1580  0.9238  0.7591
 1289TIP3   OH225281   2.268   4.906  14.467  0.4794  0.1448 -0.2770
 1289TIP3    H125282   2.279   4.822  14.423 -2.5497 -1.3265  1.3784
 1289TIP3    H225283   2.355   4.928  14.501  1.2089 -2.9197  0.1329
 1290TIP3   OH225284   5.633   6.675  13.882 -0.1143 -0.1201  0.7139
 1290TIP3    H125285   5.677   6.696  13.800  0.6774 -1.8329  0.6514
 1290TIP3    H225286   5.698   6.691  13.949  0.2788 -1.6221  0.7168
 1291TIP3   OH225287   2.846   3.618  11.131 -0.4595  0.1511  0.3618
 1291TIP3    H125288   2.803   3.665  11.060 -0.2648  0.3901  0.4005
 1291TIP3    H225289   2.893   3.546  11.087 -0.5060  0.1765  0.2710
 1292TIP3   OH225290   6.660   0.988   0.281  0.6792  0.2014  0.3806
 1292TIP3    H125291   6.697   1.076   0.283  0.4192  0.2982  2.6895
 1292TIP3    H225292   6.673   0.953   0.369 -3.7258 -0.1313  1.1451
 1293TIP3   OH225293   4.840   6.739  13.612  0.0926  0.1832 -0.3576
 1293TIP3    H125294   4.794   6.806  13.663  1.8565  3.1843 -2.3526
 1293TIP3    H225295   4.770   6.694  13.564 -1.1108  1.3233  0.2544
 1294TIP3   OH225296   0.638   4.843  12.162  0.1795 -0.2310  0.1467
 1294TIP3    H125297   0.544   4.861  12.164  0.1284 -0.2913 -1.0631
 1294TIP3    H225298   0.679   4.928  12.178 -0.0621 -0.4675  2.2256
 1295TIP3   OH225299   4.654   5.489  17.307  0.1353 -0.7172 -0.4460
 1295TIP3    H125300   4.742   5.526  17.303  0.2475 -0.6463  1.7329
 1295TIP3    H225301   4.657   5.414  17.248  1.9867 -1.3397  0.3733
 1296TIP3   OH225302   0.117   0.994  12.457 -0.0377 -0.3285  0.0600
 1296TIP3    H125303   0.175   0.978  12.383 -0.2948  0.6367 -0.3667
 1296TIP3    H225304   0.176   1.019  12.528  0.2023 -1.1575  0.1548
 1297TIP3   OH225305   0.121   5.195  16.712 -0.0044  0.5261 -0.3078
 1297TIP3    H125306   0.053   5.139  16.674 -1.3364  1.0452  1.2257
 1297TIP3    H225307   0.085   5.224  16.796  1.5649  1.9089 -0.0597
 1298TIP3   OH225308   2.331   0.258  17.068 -0.3420 -0.7269 -0.1230
 1298TIP3    H125309   2.372   0.259  16.981  1.0035  0.3532  0.4816
 1298TIP3    H225310   2.242   0.291  17.053 -0.3383 -1.1338 -1.1600
 1299TIP3   OH225311   2.347   0.667  12.527 -0.4217  0.1011  0.0308
 1299TIP3    H125312   2.434   0.651  12.565 -0.4697  0.5916  0.3451
 1299TIP3    H225313   2.365   0.696  12.438 -0.3218 -1.5322 -0.5155
 1300TIP3   OH225314   3.061   5.775   3.188  0.1978 -0.0869 -0.5139
 1300TIP3    H125315   3.099   5.788   3.275  2.0786  0.6086 -1.3897
 1300TIP3    H225316   3.034   5.683   3.188  0.4195 -0.1769  0.6913
 1301TIP3   OH225317   4.157   2.398  14.534  0.1447 -0.5394  0.3467
 1301TIP3    H125318   4.219   2.437  14.473  0.2506 -0.7040  0.3479
 1301TIP3    H225319   4.183   2.306  14.539 -1.3849 -1.1129 -1.2535
 1302TIP3   OH225320   4.319   5.384  15.971  0.1942 -0.0437  0.1838
 1302TIP3    H125321   4.356   5.446  16.034  1.5431  0.6980 -1.2589
 1302TIP3    H225322   4.294   5.308  16.024  1.4628  0.4632  1.5847
 1303TIP3   OH225323   3.850   5.088   7.028  0.4907  0.4412 -0.0350
 1303TIP3    H125324   3.778   5.074   6.966  0.2602 -2.0075  0.6870
 1303TIP3    H225325   3.915   5.022   7.005  0.9958  0.3845  1.4804
 1304TIP3   OH225326   2.282   5.286   0.449  0.3373  0.3018 -0.5893
 1304TIP3    H125327   2.220   5.243   0.390  0.1108 -1.5249  0.8729
 1304TIP3    H225328   2.356   5.225   0.454  0.4222  0.4935  0.8651
 1305TIP3   OH225329   0.569   0.904  12.507 -0.2802  0.3705  0.0096
 1305TIP3    H125330   0.548   0.951  12.588 -2.5619  0.5571 -0.6316
 1305TIP3    H225331   0.535   0.816  12.522  0.2739  0.0985 -0.3376
 1306TIP3   OH225332   4.439   0.595  17.040  0.0120  0.1568 -0.1631
 1306TIP3    H125333   4.417   0.688  17.046 -0.1057  0.0354  2.6519
 1306TIP3    H225334   4.398   0.566  16.959  0.2933  2.5974 -1.2727
 1307TIP3   OH225335   3.116   5.767   6.066 -0.4861 -0.1354 -0.2284
 1307TIP3    H125336   3.030   5.797   6.095 -0.1905  0.7464 -0.2492
 1307TIP3    H225337   3.162   5.744   6.147 -1.0133 -1.3917 -0.2653
 1308TIP3   OH225338   4.686   2.497   5.443 -0.1545 -0.1418  0.5023
 1308TIP3    H125339   4.607   2.511   5.392  0.3444 -1.4881 -0.7366
 1308TIP3    H225340   4.656   2.452   5.522 -0.6415 -0.6912  0.0163
 1309TIP3   OH225341   0.044   2.777   1.990 -0.0855 -0.7021 -0.4699
 1309TIP3    H125342   0.106   2.765   1.918  1.1539 -1.5032  0.6897
 1309TIP3    H225343   0.027   2.688   2.022 -0.7411 -0.3714  0.1450
 1310TIP3   OH225344   3.009   6.717   2.532  0.3830 -0.3751  0.1844
 1310TIP3    H125345   2.955   6.656   2.481 -1.5540  0.4604  1.1501
 1310TIP3    H225346   2.995   6.690   2.623 -0.6510  1.5755  0.6435
 1311TIP3   OH225347   5.647   5.507  12.315  0.1293  0.0996  1.0031
 1311TIP3    H125348   5.731   5.462  12.303  0.6337  0.8733  1.5085
 1311TIP3    H225349   5.600   5.491  12.233  1.2261  0.5906  0.2410
 1312TIP3   OH225350   2.922   2.932  16.833  0.3619 -0.2845 -0.4025
 1312TIP3    H125351   2.921   3.011  16.779 -2.6882  0.8951  1.0889
 1312TIP3    H225352   2.841   2.886  16.810  0.5372 -1.3427  0.9353
 1313TIP3   OH225353   1.286   1.382   2.081  0.6092 -0.6787  0.3738
 1313TIP3    H125354   1.242   1.410   2.161 -1.2091 -1.8850 -0.1524
 1313TIP3    H225355   1.304   1.464   2.034 -2.2740 -0.1455  0.0428
 1314TIP3   OH225356   0.526   3.179   5.257 -0.1523 -0.5144  0.0721
 1314TIP3    H125357   0.575   3.241   5.203  0.3061 -2.9927 -2.6328
 1314TIP3    H225358   0.555   3.198   5.346  1.7744  1.5404 -0.8708
 1315TIP3   OH225359   3.345   5.806   4.441 -0.2351 -0.6045  0.2168
 1315TIP3    H125360   3.362   5.900   4.435 -1.0931 -0.4629 -0.1389
 1315TIP3    H225361   3.369   5.772   4.355 -0.7718 -0.5559  0.0396
 1316TIP3   OH225362   2.277   3.962   3.043 -0.7685  0.8002 -0.5978
 1316TIP3    H125363   2.256   4.003   2.959 -0.3975 -0.6325 -1.4290
 1316TIP3    H225364   2.192   3.954   3.087 -1.7622 -2.2108 -2.6628
 1317TIP3   OH225365   3.181   3.710  16.059 -0.0451 -0.1493  0.3546
 1317TIP3    H125366   3.187   3.622  16.095 -1.2434  0.0238  1.0283
 1317TIP3    H225367   3.271   3.734  16.039  0.3465 -1.3360  0.6145
 1318TIP3   OH225368   0.216   4.083  16.938 -0.1845  0.1691 -0.4852
 1318TIP3    H125369   0.293   4.088  16.994 -0.1442  1.3285 -0.6245
 1318TIP3    H225370   0.190   3.990  16.941 -1.3505  0.4541  3.0515
 1319TIP3   OH225371   0.348   0.882   3.818  0.6365 -0.3862  0.5435
 1319TIP3    H125372   0.263   0.892   3.861 -0.2133 -0.9799 -0.9121
 1319TIP3    H225373   0.395   0.817   3.870  1.1981  1.6297  2.7391
 1320TIP3   OH225374   0.699   5.425  15.552 -0.3317  0.0019  0.1331
 1320TIP3    H125375   0.778   5.459  15.594 -1.1249  0.2101  1.5195
 1320TIP3    H225376   0.648   5.503  15.529  0.4488 -0.0658 -2.0421
 1321TIP3   OH225377   4.440   6.547   6.538  0.1408 -0.0522  0.4666
 1321TIP3    H125378   4.522   6.576   6.498 -0.1993  1.0093  0.5253
 1321TIP3    H225379   4.383   6.624   6.535 -1.4444 -1.1882 -1.0748
 1322TIP3   OH225380   0.509   3.104   1.265 -0.5042 -0.5525 -0.3577
 1322TIP3    H125381   0.515   3.011   1.242  0.5060 -0.3345 -1.0643
 1322TIP3    H225382   0.534   3.150   1.184 -1.4640  0.3467 -0.1566
 1323TIP3   OH225383   6.334   0.025   2.084 -0.1878 -0.0688 -0.1466
 1323TIP3    H125384   6.388   0.085   2.136  0.2978  0.9182 -1.7113
 1323TIP3    H225385   6.300   0.079   2.012 -1.3369 -1.2301 -0.5220
 1324TIP3   OH225386   6.106   4.366  17.024  0.5284 -0.4921 -0.0796
 1324TIP3    H125387   6.083   4.446  17.071  0.5289 -1.3843  1.5148
 1324TIP3    H225388   6.069   4.378  16.937  0.8163  1.3738  0.0213
 1325TIP3   OH225389   4.096   0.076   5.325  0.3070 -0.4204  0.3808
 1325TIP3    H125390   4.087  -0.018   5.344  1.7553 -0.5788  0.3834
 1325TIP3    H225391   4.021   0.116   5.369 -1.4937 -1.7643 -1.2772
 1326TIP3   OH225392   1.810   1.720  10.642 -0.2050  0.2458 -0.1372
 1326TIP3    H125393   1.768   1.635  10.633 -0.6277  0.5695 -1.4242
 1326TIP3    H225394   1.830   1.747  10.553  0.5746  1.1806  0.2962
 1327TIP3   OH225395   3.506   2.984   3.366  0.3079 -0.9335 -0.3322
 1327TIP3    H125396   3.470   3.072   3.353  0.5065 -0.5465  1.4608
 1327TIP3    H225397   3.452   2.946   3.435  1.2254 -1.6192  0.0212
 1328TIP3   OH225398   0.485   0.245  12.781 -0.2483 -0.9876 -0.5929
 1328TIP3    H125399   0.445   0.286  12.858  1.3346  0.2806 -0.3823
 1328TIP3    H225400   0.503   0.156  12.809  0.4490 -0.5014  0.5975
 1329TIP3   OH225401   3.638   4.495   0.970  0.1842 -0.0224 -0.1992
 1329TIP3    H125402   3.622   4.562   0.903 -3.3250 -0.7995 -0.3452
 1329TIP3    H225403   3.582   4.521   1.043  1.3390 -1.0369  1.0873
 1330TIP3   OH225404   3.654   2.378  13.719  0.0507  0.0412 -0.5035
 1330TIP3    H125405   3.670   2.387  13.813 -0.0782  0.0493 -0.4816
 1330TIP3    H225406   3.680   2.463  13.682 -2.5267  1.0991 -0.1182
 1331TIP3   OH225407   3.526   2.756   0.876  0.1138  0.0698 -0.0765
 1331TIP3    H125408   3.520   2.692   0.806  1.0721 -0.4425  0.2954
 1331TIP3    H225409   3.571   2.711   0.947 -0.2223  0.7945  0.6217
 1332TIP3   OH225410   1.994   3.677   1.584 -0.4823  0.2515  0.2922
 1332TIP3    H125411   1.947   3.760   1.579 -1.0565 -0.1068 -0.5996
 1332TIP3    H225412   2.085   3.702   1.603 -0.9975  0.9566  2.0289
 1333TIP3   OH225413   4.187   1.972   3.698 -0.4313  0.2111  0.0391
 1333TIP3    H125414   4.251   2.020   3.645 -0.5847 -1.8100 -2.0938
 1333TIP3    H225415   4.135   2.041   3.740  0.7663  1.8902 -1.0905
 1334TIP3   OH225416   0.890   3.699   3.237  0.3052 -0.2545 -0.1864
 1334TIP3    H125417   0.837   3.774   3.209  0.7050  0.4142  0.7940
 1334TIP3    H225418   0.905   3.649   3.156  0.2157  0.8331 -0.9008
 1335TIP3   OH225419   1.467   1.105  14.608  0.3558 -0.1127 -0.2798
 1335TIP3    H125420   1.506   1.072  14.689 -1.1079 -0.4668  0.3112
 1335TIP3    H225421   1.413   1.033  14.576 -1.7802  1.1668  0.2774
 1336TIP3   OH225422   6.585   3.708   3.597 -0.2425 -0.1844  0.5759
 1336TIP3    H125423   6.648   3.772   3.563 -0.2220  0.2908  1.4635
 1336TIP3    H225424   6.566   3.651   3.523  0.5129  0.2428  0.0379
 1337TIP3   OH225425   1.024   0.460   3.314  0.2091  0.5439 -0.1281
 1337TIP3    H125426   1.120   0.461   3.321  0.1044  0.5275  1.7273
 1337TIP3    H225427   1.000   0.553   3.312  0.2603  0.5481 -0.6401
 1338TIP3   OH225428   2.962   2.481   5.723 -0.0324  0.3133 -0.0744
 1338TIP3    H125429   3.024   2.519   5.785  0.7999 -1.4406  0.2180
 1338TIP3    H225430   2.898   2.550   5.708  0.7838  1.4152  1.2978
 1339TIP3   OH225431   2.290   6.564   1.850  0.0414  0.3777  0.2112
 1339TIP3    H125432   2.333   6.491   1.895 -0.3224 -0.4094 -0.6830
 1339TIP3    H225433   2.197   6.551   1.866 -0.2400 -0.7751 -1.8993
 1340TIP3   OH225434   1.526   6.498   3.213  0.5104 -0.1244  0.2929
 1340TIP3    H125435   1.538   6.406   3.188 -1.4297 -0.7512  1.4401
 1340TIP3    H225436   1.495   6.541   3.134  2.1903 -0.2465 -0.4683
 1341TIP3   OH225437   1.630   3.598  16.981 -0.4174 -0.5210 -0.2591
 1341TIP3    H125438   1.585   3.514  16.993 -1.5535 -0.0127 -0.7393
 1341TIP3    H225439   1.651   3.601  16.888 -0.7388 -0.1171 -0.3229
 1342TIP3   OH225440   5.263   5.719  11.799  0.7272  0.0082 -0.0927
 1342TIP3    H125441   5.232   5.779  11.731 -2.8240  0.1151  1.3868
 1342TIP3    H225442   5.226   5.634  11.775  1.8739 -0.6075  0.2343
 1343TIP3   OH225443   1.505   2.371  14.271  0.6781  0.0166  0.4766
 1343TIP3    H125444   1.465   2.329  14.347  1.0960 -0.6810  0.3150
 1343TIP3    H225445   1.540   2.299  14.219 -0.1340  0.4491 -0.6979
 1344TIP3   OH225446   4.210   0.082   1.254  0.0025 -0.4115  0.1697
 1344TIP3    H125447   4.180  -0.008   1.241 -0.4695 -0.2465  0.1097
 1344TIP3    H225448   4.297   0.072   1.294 -1.2614 -0.9213  3.0685
 1345TIP3   OH225449   1.682   4.193  15.353  0.1669  0.7548  0.5229
 1345TIP3    H125450   1.697   4.151  15.438  1.2288  0.3300  0.1499
 1345TIP3    H225451   1.715   4.282  15.364  0.1451  0.7528  0.6071
 1346TIP3   OH225452   4.704   3.997   2.118 -0.0751  0.3254  0.4163
 1346TIP3    H125453   4.686   4.038   2.034  2.3011  1.3552  0.3396
 1346TIP3    H225454   4.687   3.904   2.104  0.2280  0.4851 -1.1838
 1347TIP3   OH225455   5.103   0.502  17.203 -0.2640 -0.4547 -0.0123
 1347TIP3    H125456   5.138   0.455  17.279  1.0787 -1.3510 -1.1229
 1347TIP3    H225457   5.170   0.567  17.183 -0.5804 -0.2605 -0.4514
 1348TIP3   OH225458   2.136   3.968  12.549  0.7443 -0.4565 -0.6111
 1348TIP3    H125459   2.082   3.912  12.494 -1.2148  1.9964 -1.4026
 1348TIP3    H225460   2.078   3.994  12.621  0.8142  2.0319 -1.3339
 1349TIP3   OH225461   0.799   2.359   4.283 -0.2178  0.0628 -0.2126
 1349TIP3    H125462   0.712   2.336   4.317 -0.1909  1.6367  1.0570
 1349TIP3    H225463   0.794   2.342   4.189 -1.5938 -0.7631 -0.0076
 1350TIP3   OH225464   1.043   4.352  13.365  0.4852  0.2640 -0.7228
 1350TIP3    H125465   1.060   4.269  13.320 -0.6692 -0.9261  0.9177
 1350TIP3    H225466   1.060   4.419  13.299 -1.3856 -1.3868 -3.0691
 1351TIP3   OH225467   4.555   5.007   3.842 -0.1935  0.3806  0.0260
 1351TIP3    H125468   4.466   4.974   3.834 -0.3543  1.2195 -2.3651
 1351TIP3    H225469   4.545   5.102   3.842  0.6422  0.4983  1.2358
 1352TIP3   OH225470   2.499   5.941   1.978  0.4099  0.3202  0.3133
 1352TIP3    H125471   2.425   6.001   1.988 -2.1184 -2.4742 -0.4042
 1352TIP3    H225472   2.515   5.938   1.884 -0.1906 -0.8645  0.2316
 1353TIP3   OH225473   1.231   0.992  12.319 -0.3280  0.3651  0.8963
 1353TIP3    H125474   1.203   0.911  12.361 -1.5103  1.0191  1.4166
 1353TIP3    H225475   1.239   0.970  12.226 -0.6122 -0.3507  1.0360
 1354TIP3   OH225476   5.039   4.081   3.409  0.0648  0.6767 -0.4316
 1354TIP3    H125477   4.954   4.039   3.428  0.7359 -0.1276  0.9559
 1354TIP3    H225478   5.061   4.050   3.321 -0.3394 -0.4051 -0.1723
 1355TIP3   OH225479   3.289   6.129   2.057 -0.6756  0.1381 -0.0203
 1355TIP3    H125480   3.352   6.201   2.060 -0.6930  0.2349 -1.2684
 1355TIP3    H225481   3.342   6.050   2.058 -0.5347  0.2161 -0.7947
 1356TIP3   OH225482   6.388   6.730   0.838  0.1742 -0.0170  0.2324
 1356TIP3    H125483   6.409   6.640   0.813 -2.4383 -0.3738 -0.9687
 1356TIP3    H225484   6.370   6.725   0.932  1.0774 -0.5165  0.3890
 1357TIP3   OH225485   5.803   3.203   2.746  0.1411  0.0227  0.0459
 1357TIP3    H125486   5.811   3.119   2.701  1.3202  1.4200 -2.6589
 1357TIP3    H225487   5.726   3.244   2.706 -0.2378  0.3661  1.1035
 1358TIP3   OH225488   2.356   2.294   2.727 -0.0446 -0.6149 -0.2083
 1358TIP3    H125489   2.362   2.218   2.669  0.6827 -0.1617 -0.7551
 1358TIP3    H225490   2.349   2.369   2.668 -1.2052 -0.2814  0.3323
 1359TIP3   OH225491   4.622   3.128   1.903 -0.2707 -0.3703 -0.6029
 1359TIP3    H125492   4.575   3.118   1.986  0.7871  0.0107  0.0631
 1359TIP3    H225493   4.693   3.065   1.907 -1.1148 -1.4625 -1.9225
 1360TIP3   OH225494   3.931   0.000  16.591 -0.1797  0.2420 -0.1303
 1360TIP3    H125495   3.851   0.006  16.538 -0.4150  2.6345  0.3466
 1360TIP3    H225496   3.997   0.046  16.540  0.6704 -0.9007 -0.0898
 1361TIP3   OH225497   3.289   0.853  15.347 -0.3328  0.1779 -1.0152
 1361TIP3    H125498   3.238   0.776  15.323 -0.9331  0.3769 -0.4207
 1361TIP3    H225499   3.256   0.923  15.290 -0.2099  0.1341 -1.1394
 1362TIP3   OH225500   4.681   2.150   4.425  0.0257 -1.0939 -0.1861
 1362TIP3    H125501   4.752   2.139   4.488  1.5174  0.6886 -1.4518
 1362TIP3    H225502   4.602   2.128   4.474  1.3162 -1.8298  1.6608
 1363TIP3   OH225503   2.137   0.329   0.542 -0.0200  0.1002 -0.5187
 1363TIP3    H125504   2.081   0.296   0.471  0.2448  1.7849 -1.5827
 1363TIP3    H225505   2.191   0.253   0.567 -1.2503 -0.9659 -0.9792
 1364TIP3   OH225506   1.643   0.957   0.706 -0.2691 -0.1655 -0.2986
 1364TIP3    H125507   1.603   0.877   0.741 -1.4347 -0.9422 -3.1161
 1364TIP3    H225508   1.578   0.991   0.645  1.9810  0.4518 -2.4826
 1365TIP3   OH225509   4.537   3.240   4.721 -0.0938 -0.1530 -0.3635
 1365TIP3    H125510   4.519   3.212   4.811  0.5254 -0.8351 -0.4396
 1365TIP3    H225511   4.625   3.280   4.725  0.0362 -0.3976 -0.7049
 1366TIP3   OH225512   1.216   1.341   3.700 -0.8563 -0.0233  0.2088
 1366TIP3    H125513   1.145   1.323   3.761 -1.0320  0.3482  0.1186
 1366TIP3    H225514   1.193   1.293   3.621 -2.3726  2.1232 -0.7638
 1367TIP3   OH225515   1.653   3.250  14.129 -0.0248  0.0559  0.2303
 1367TIP3    H125516   1.721   3.198  14.172 -1.0778 -1.8686 -0.3160
 1367TIP3    H225517   1.689   3.269  14.042 -0.4983 -1.7759 -0.4094
 1368TIP3   OH225518   3.283   0.805  13.025 -0.1775  0.0507  0.4953
 1368TIP3    H125519   3.311   0.722  12.989  1.9973  0.9869 -0.1074
 1368TIP3    H225520   3.299   0.797  13.119  1.5900  0.3135  0.2495
 1369TIP3   OH225521   5.969   4.224   5.629 -0.0003 -0.3378 -0.0458
 1369TIP3    H125522   6.046   4.275   5.602 -0.7341  0.9120  0.1320
 1369TIP3    H225523   5.902   4.290   5.648 -0.3360 -1.2592  2.3193
 1370TIP3   OH225524   2.316   5.010  14.186  0.3602  0.2470  0.0204
 1370TIP3    H125525   2.259   4.934  14.195  0.2442  0.1589 -1.1718
 1370TIP3    H225526   2.289   5.050  14.103  2.2743 -0.0243 -0.7850
 1371TIP3   OH225527   2.204   3.831   0.337  0.7830 -0.4009  0.3420
 1371TIP3    H125528   2.126   3.781   0.314 -1.9776  3.6530 -0.0835
 1371TIP3    H225529   2.261   3.824   0.261 -0.6209 -0.9069 -0.7048
 1372TIP3   OH225530   0.727   3.318  15.623  0.4227  0.3902 -0.3777
 1372TIP3    H125531   0.637   3.334  15.595 -0.2343 -1.1381  0.7193
 1372TIP3    H225532   0.726   3.334  15.717  1.4192  0.7943 -0.4199
 1373TIP3   OH225533   5.084   0.763   2.265 -0.0106  0.1617  0.5231
 1373TIP3    H125534   5.167   0.756   2.313 -0.3738 -1.5262  0.9671
 1373TIP3    H225535   5.098   0.834   2.203  1.9463 -0.4065  0.2537
 1374TIP3   OH225536   0.517   5.167  13.473  0.0597 -0.4750 -0.4941
 1374TIP3    H125537   0.545   5.124  13.393  1.1523 -1.5608  0.4227
 1374TIP3    H225538   0.578   5.240  13.483  1.4637 -1.7269  0.5229
 1375TIP3   OH225539   5.140   0.809  12.707 -0.3370  0.1087 -0.4904
 1375TIP3    H125540   5.188   0.841  12.631  1.3801 -1.8443 -0.3334
 1375TIP3    H225541   5.145   0.714  12.700 -0.6002 -0.1267  1.7682
 1376TIP3   OH225542   1.371   5.751  16.291 -0.0385 -0.2477 -0.1033
 1376TIP3    H125543   1.415   5.734  16.374 -1.2857 -0.1742  0.6001
 1376TIP3    H225544   1.399   5.839  16.266  1.3806 -0.7724 -0.4591
 1377TIP3   OH225545   0.975   6.679   0.549 -0.1054 -0.0199  0.5400
 1377TIP3    H125546   1.047   6.627   0.512  1.2706  1.2302  1.3382
 1377TIP3    H225547   0.991   6.767   0.516 -0.5185  0.5300  1.7692
 1378TIP3   OH225548   1.235   3.560   5.319  0.6828  0.2759  0.2721
 1378TIP3    H125549   1.160   3.508   5.291  2.3451 -1.9513 -0.2982
 1378TIP3    H225550   1.208   3.651   5.303 -1.3276 -0.5123 -1.2716
 1379TIP3   OH225551   6.617   4.780   5.098 -0.4493 -0.1552  0.5432
 1379TIP3    H125552   6.662   4.746   5.176 -0.4395  0.5011  0.8322
 1379TIP3    H225553   6.525   4.783   5.123 -0.3416  0.8929  0.8535
 1380TIP3   OH225554   5.390   0.446  10.784  0.1202  0.5302  0.9032
 1380TIP3    H125555   5.306   0.492  10.792 -0.7057 -0.1394 -2.2188
 1380TIP3    H225556   5.379   0.366  10.835 -1.4818  0.0986 -0.0504
 1381TIP3   OH225557   5.824   5.232  11.078 -0.6037 -0.3294  1.2357
 1381TIP3    H125558   5.730   5.232  11.099 -0.7166  1.3511  0.8350
 1381TIP3    H225559   5.827   5.233  10.983 -0.2602  2.1084  1.2157
 1382TIP3   OH225560   6.742   1.257   6.020  0.1211  0.5043  0.0568
 1382TIP3    H125561   6.834   1.255   5.993  0.7212  2.8152  1.6578
 1382TIP3    H225562   6.743   1.237   6.113 -1.1449 -0.3494 -0.0758
 1383TIP3   OH225563   4.820   3.534  16.541  0.1984  0.0607 -0.3185
 1383TIP3    H125564   4.795   3.501  16.627  0.1115  1.2329  0.1248
 1383TIP3    H225565   4.915   3.520  16.536  0.3382  0.7436  0.3160
 1384TIP3   OH225566   5.083   0.257   5.957  0.3228 -0.4089  0.6369
 1384TIP3    H125567   5.041   0.191   6.012  2.0019  0.5320  3.2592
 1384TIP3    H225568   5.171   0.222   5.940  0.7790  0.5302  0.9722
 1385TIP3   OH225569   1.840   3.891   1.535  0.1821 -0.1270 -0.2997
 1385TIP3    H125570   1.867   3.968   1.485 -0.5598 -0.2285 -0.8685
 1385TIP3    H225571   1.752   3.871   1.503 -0.7808  0.4664  1.7937
 1386TIP3   OH225572   4.684   0.432   2.086  0.0749 -0.4753  0.5492
 1386TIP3    H125573   4.777   0.414   2.069  0.3834  0.1166  1.5245
 1386TIP3    H225574   4.649   0.347   2.114  0.5100 -0.5287  0.9496
 1387TIP3   OH225575   0.257   4.882  13.551 -0.2126 -0.3944  0.0794
 1387TIP3    H125576   0.320   4.894  13.480 -0.8011  1.4166 -0.1881
 1387TIP3    H225577   0.188   4.829  13.512 -0.1908 -0.0158 -0.4919
 1388TIP3   OH225578   1.086   0.020  13.744  0.7232  0.0073  0.1862
 1388TIP3    H125579   1.081   0.064  13.659  0.1705 -0.8142 -0.2246
 1388TIP3    H225580   1.099   0.091  13.807  2.7472  0.5289 -0.7047
 1389TIP3   OH225581   6.065   6.444  10.385 -0.4450 -0.2466 -0.5687
 1389TIP3    H125582   6.031   6.373  10.438 -1.1028  1.1158  0.9224
 1389TIP3    H225583   5.988   6.498  10.366  0.5582  2.3844  2.0545
 1390TIP3   OH225584   1.290   6.433   3.356 -0.0326  0.2400 -0.1628
 1390TIP3    H125585   1.241   6.515   3.365  1.3415  1.2026 -0.9529
 1390TIP3    H225586   1.373   6.459   3.315  0.8074 -1.4305  0.3620
 1391TIP3   OH225587   0.848   1.043  12.042 -0.4559  0.3571  0.2014
 1391TIP3    H125588   0.755   1.063  12.054 -0.5721 -1.2642  2.8473
 1391TIP3    H225589   0.854   0.999  11.957 -2.3835 -0.9049  0.6759
 1392TIP3   OH225590   5.427   0.869   1.207  0.6006 -0.6526  0.1302
 1392TIP3    H125591   5.401   0.783   1.175  0.9802 -0.1087 -1.7827
 1392TIP3    H225592   5.420   0.863   1.302  3.3141 -3.7045  0.2876
 1393TIP3   OH225593   5.498   4.939   5.632  0.3235  0.0240  0.1262
 1393TIP3    H125594   5.486   4.845   5.613  1.4969 -0.0213 -0.5340
 1393TIP3    H225595   5.409   4.973   5.642 -0.1217 -1.2289  0.7581
 1394TIP3   OH225596   3.105   3.936   5.596 -0.4093  0.1451 -0.2099
 1394TIP3    H125597   3.028   3.955   5.649 -0.7467 -1.0287 -0.2314
 1394TIP3    H225598   3.179   3.941   5.658 -0.8006 -1.2297  0.4119
 1395TIP3   OH225599   0.051   2.672   4.590  0.5466  0.1787  0.0556
 1395TIP3    H125600   0.045   2.577   4.590 -1.3951  0.2205  1.9396
 1395TIP3    H225601   0.123   2.692   4.650  1.0356 -0.0860 -0.4376
 1396TIP3   OH225602   6.414   3.471  15.122 -0.0263 -0.2220 -0.1294
 1396TIP3    H125603   6.370   3.462  15.207  0.3293  1.1137  0.2244
 1396TIP3    H225604   6.409   3.565  15.103  0.1877 -0.4610 -1.4381
 1397TIP3   OH225605   0.771   0.997   1.459  0.4485  0.3189  0.3290
 1397TIP3    H125606   0.816   0.959   1.383  0.5302  0.2437  0.4144
 1397TIP3    H225607   0.705   1.055   1.421 -0.3337 -0.6369  0.1634
 1398TIP3   OH225608   4.092   1.362   2.758 -0.3543  0.1762 -0.0273
 1398TIP3    H125609   4.136   1.439   2.794 -0.6511  0.1128  0.4624
 1398TIP3    H225610   4.066   1.310   2.834 -0.6656 -0.1305 -0.3392
 1399TIP3   OH225611   3.359   4.215   1.977  0.7191 -1.1929 -0.8103
 1399TIP3    H125612   3.374   4.126   2.009  0.9569 -1.0944 -0.6429
 1399TIP3    H225613   3.409   4.220   1.895 -0.9664 -1.8748 -1.9288
 1400TIP3   OH225614   3.250   4.995  11.711 -0.0768 -0.4371  0.3765
 1400TIP3    H125615   3.330   5.024  11.754  0.2381  0.1362 -0.5698
 1400TIP3    H225616   3.267   4.904  11.686 -0.3471 -0.8496  1.6346
 1401TIP3   OH225617   0.575   1.745   3.655  0.2774 -0.0517 -0.4114
 1401TIP3    H125618   0.522   1.820   3.685  1.1383  0.7497 -0.8452
 1401TIP3    H225619   0.529   1.669   3.690 -0.2264  0.7119  0.6735
 1402TIP3   OH225620   2.589   5.346  16.652  0.3216 -0.4975  0.0781
 1402TIP3    H125621   2.568   5.302  16.569  0.7563 -1.2231  0.3515
 1402TIP3    H225622   2.505   5.349  16.699  0.2677 -0.9402  0.0128
 1403TIP3   OH225623   3.560   0.563  12.048  0.0529  0.2742 -0.3164
 1403TIP3    H125624   3.570   0.597  11.959 -0.4793  1.6616  0.1278
 1403TIP3    H225625   3.513   0.632  12.095  1.3418  0.0821  1.3540
 1404TIP3   OH225626   1.794   3.096  10.835 -0.9623 -0.2325  0.1812
 1404TIP3    H125627   1.787   3.021  10.776 -2.0701  0.7349 -0.9823
 1404TIP3    H225628   1.721   3.153  10.811  0.1197  1.4621  0.6697
 1405TIP3   OH225629   5.600   2.421   4.393 -0.3995  0.1657  0.6517
 1405TIP3    H125630   5.645   2.369   4.460 -1.5837  0.6187  1.8519
 1405TIP3    H225631   5.511   2.386   4.391 -0.7170  0.9737  0.1892
 1406TIP3   OH225632   5.013   2.725   2.088  0.8302  0.3032 -0.2073
 1406TIP3    H125633   5.038   2.633   2.085  1.7694  0.5527 -0.4010
 1406TIP3    H225634   5.000   2.743   2.181  2.9903  0.5475  0.1153
 1407TIP3   OH225635   4.018   1.973  13.038  0.0329 -0.1817 -0.0199
 1407TIP3    H125636   3.952   2.025  12.994  0.3355 -0.4241 -0.7843
 1407TIP3    H225637   3.979   1.949  13.121  0.0464  1.5984  0.5312
 1408TIP3   OH225638   5.962   2.106   4.421  0.2700  0.5331 -0.0229
 1408TIP3    H125639   6.031   2.076   4.360 -0.0223  1.0403 -0.6161
 1408TIP3    H225640   5.989   2.071   4.506  0.3299 -0.7709 -0.5595
 1409TIP3   OH225641   2.293   2.130   4.359 -0.4857  0.2867 -0.2811
 1409TIP3    H125642   2.372   2.160   4.314 -0.2325  1.9992  1.1725
 1409TIP3    H225643   2.222   2.178   4.317 -0.4674  0.4977 -0.0736
 1410TIP3   OH225644   2.271   3.736   2.220  0.4006  0.6148  1.3289
 1410TIP3    H125645   2.228   3.821   2.207 -0.5958 -0.1146 -0.6809
 1410TIP3    H225646   2.363   3.757   2.229  0.2668  1.9102  0.1224
 1411TIP3   OH225647   4.570   3.798  13.641  0.0439 -0.1220  0.3176
 1411TIP3    H125648   4.654   3.803  13.687  0.7677 -0.8737 -0.8497
 1411TIP3    H225649   4.528   3.720  13.677  1.1732 -1.4551 -1.1234
 1412TIP3   OH225650   0.093   5.890  10.753  0.0004 -0.5278 -0.3885
 1412TIP3    H125651   0.137   5.829  10.813  0.7792 -1.9130 -2.2662
 1412TIP3    H225652   0.161   5.914  10.690 -0.8748  0.6440 -0.9116
 1413TIP3   OH225653   1.073   2.625  11.339 -0.2179  0.0729  0.3606
 1413TIP3    H125654   1.045   2.656  11.425  2.6975 -0.9918  1.8211
 1413TIP3    H225655   1.040   2.535  11.334  0.9676 -0.4173  1.1021
 1414TIP3   OH225656   0.817   5.743   2.667  0.0466  0.1905  0.1137
 1414TIP3    H125657   0.790   5.828   2.631  0.0357  0.7499  1.4012
 1414TIP3    H225658   0.891   5.717   2.613 -1.1746  0.0341 -1.5983
 1415TIP3   OH225659   2.471   6.373   3.201  0.3532 -0.7633 -0.7648
 1415TIP3    H125660   2.551   6.320   3.202  1.4605  0.8521 -0.8854
 1415TIP3    H225661   2.479   6.428   3.123 -0.0497  0.5927  0.1080
 1416TIP3   OH225662   0.755   0.340  12.783  0.4301 -0.1295  1.0324
 1416TIP3    H125663   0.681   0.283  12.761 -0.1407  0.6054  1.0059
 1416TIP3    H225664   0.797   0.298  12.857 -0.7654  0.0756  1.8423
 1417TIP3   OH225665   4.551   3.791  14.789 -0.3223  0.0521 -0.2942
 1417TIP3    H125666   4.636   3.772  14.749 -1.2959 -1.3141 -1.8780
 1417TIP3    H225667   4.513   3.857  14.731 -0.7489 -0.1177 -0.2078
 1418TIP3   OH225668   0.578   1.689   1.941  0.0452 -0.3275  0.3059
 1418TIP3    H125669   0.627   1.607   1.942 -0.9057 -0.9299 -0.6338
 1418TIP3    H225670   0.584   1.719   1.850 -0.1285  0.3371  0.5060
 1419TIP3   OH225671   2.043   1.464   1.867  0.5091  0.0029 -0.4206
 1419TIP3    H125672   1.967   1.487   1.813  0.6004 -1.9748 -1.4877
 1419TIP3    H225673   2.012   1.390   1.920  2.2224 -2.3161 -2.4464
 1420TIP3   OH225674   5.387   2.119  15.325  0.2701  0.2897  0.3987
 1420TIP3    H125675   5.332   2.163  15.390  1.1090 -0.0388  1.3755
 1420TIP3    H225676   5.393   2.180  15.252 -0.1064  0.9869  0.9442
 1421TIP3   OH225677   4.729   6.536  15.717 -0.0551 -0.2230 -0.7963
 1421TIP3    H125678   4.785   6.538  15.795 -1.3223 -2.5264  0.2665
 1421TIP3    H225679   4.789   6.515  15.645  1.1277  1.8769 -0.5158
 1422TIP3   OH225680   0.295   6.052  15.995 -0.2343 -0.3169  0.5251
 1422TIP3    H125681   0.378   6.068  15.950  1.2156 -0.4311  2.9833
 1422TIP3    H225682   0.292   5.957  16.006 -0.9234 -0.3533  0.0568
 1423TIP3   OH225683   2.932   2.999  13.920  0.1767 -0.0090  0.3730
 1423TIP3    H125684   2.941   3.093  13.938  0.3630  0.4408 -1.8695
 1423TIP3    H225685   2.838   2.983  13.918  0.1463  0.0902  0.8680
 1424TIP3   OH225686   3.464   0.403   2.060  0.1914  0.3863  0.2507
 1424TIP3    H125687   3.473   0.349   2.139  0.4368 -0.2517 -0.2111
 1424TIP3    H225688   3.526   0.365   1.998  0.6719  1.4584  0.0543
 1425TIP3   OH225689   4.862   4.296   2.581  0.6830  0.1503  0.4875
 1425TIP3    H125690   4.805   4.349   2.525  0.6974 -1.4694 -1.1750
 1425TIP3    H225691   4.951   4.322   2.556  0.6954 -0.8500 -0.5835
 1426TIP3   OH225692   0.153   3.921   2.346  0.4242  0.0017 -0.0338
 1426TIP3    H125693   0.221   3.913   2.414  0.0714 -2.8674  0.1046
 1426TIP3    H225694   0.074   3.943   2.394  0.4002 -0.9500  0.3882
 1427TIP3   OH225695   5.710   2.555  16.440  0.1011 -0.7297  0.4633
 1427TIP3    H125696   5.718   2.649  16.455 -4.8549  0.3622 -1.8570
 1427TIP3    H225697   5.711   2.516  16.528 -0.8832  1.8606  1.7157
 1428TIP3   OH225698   5.629   1.502  11.139 -0.0982 -0.6112  0.1295
 1428TIP3    H125699   5.622   1.425  11.195  1.1614 -0.8715 -0.0359
 1428TIP3    H225700   5.700   1.554  11.178  0.3833 -0.4952 -0.8581
 1429TIP3   OH225701   3.768   3.310   1.755  0.0541 -0.0030  0.5807
 1429TIP3    H125702   3.804   3.233   1.710  0.9887  1.4787 -1.3778
 1429TIP3    H225703   3.676   3.312   1.730  0.0459 -0.4321  0.5735
 1430TIP3   OH225704   0.727   3.541   4.941  0.2156  0.1518  0.3301
 1430TIP3    H125705   0.638   3.573   4.954 -0.4136 -1.9341  1.6847
 1430TIP3    H225706   0.778   3.583   5.011  1.0164  3.4468 -2.0037
 1431TIP3   OH225707   1.975   6.094  14.063 -0.3313 -0.4184  0.0961
 1431TIP3    H125708   1.928   6.163  14.110 -0.6683 -0.7673  0.2787
 1431TIP3    H225709   1.910   6.024  14.052 -0.2176 -0.3975 -0.7646
 1432TIP3   OH225710   5.189   1.148  16.425  0.2446  0.1917 -0.5874
 1432TIP3    H125711   5.206   1.078  16.487  0.0558  0.4665 -0.2197
 1432TIP3    H225712   5.244   1.221  16.455  0.4324  0.2080 -0.9587
 1433TIP3   OH225713   2.476   4.862   0.341  0.1462  0.1431 -0.6309
 1433TIP3    H125714   2.380   4.854   0.348  0.1798  1.1914  2.4325
 1433TIP3    H225715   2.509   4.774   0.355 -0.3417  0.0446 -0.0673
 1434TIP3   OH225716   5.756   2.582  14.290 -0.3750 -0.1535 -0.8942
 1434TIP3    H125717   5.761   2.518  14.361  1.0019  0.1815 -0.6483
 1434TIP3    H225718   5.678   2.557  14.240 -0.5262 -1.2970 -0.1223
 1435TIP3   OH225719   4.092   1.529  16.387 -0.2338 -0.3010 -0.3249
 1435TIP3    H125720   4.143   1.577  16.322 -1.0351  1.0264 -0.0110
 1435TIP3    H225721   4.002   1.531  16.354 -0.6457  0.3641  0.7685
 1436TIP3   OH225722   5.456   0.714  11.935  0.4478 -0.1562  0.0066
 1436TIP3    H125723   5.443   0.639  11.994 -3.9747  0.1329 -0.2166
 1436TIP3    H225724   5.414   0.687  11.853  1.6832  1.4272 -1.2066
 1437TIP3   OH225725   2.896   1.412  13.716  0.0083  0.0030  0.1999
 1437TIP3    H125726   2.860   1.496  13.687 -2.0108 -0.8663  0.0056
 1437TIP3    H225727   2.986   1.411  13.682  0.4358  2.4706  1.0308
 1438TIP3   OH225728   0.427   4.059   4.698  0.2190 -0.4739 -0.0782
 1438TIP3    H125729   0.343   4.070   4.653 -0.2130  0.4976  0.9039
 1438TIP3    H225730   0.457   3.972   4.672  0.1848  0.1789 -2.5055
 1439TIP3   OH225731   1.901   1.451   2.707 -0.1776  0.1904  0.4948
 1439TIP3    H125732   1.907   1.543   2.683 -1.0635 -0.1632 -1.2440
 1439TIP3    H225733   1.980   1.434   2.759  0.4284  1.7155  0.1111
 1440TIP3   OH225734   3.871   3.440  14.230 -0.2343  0.3160 -0.2956
 1440TIP3    H125735   3.932   3.509  14.257 -0.8602  1.9903 -2.8572
 1440TIP3    H225736   3.786   3.469  14.263 -0.1159 -0.6349  0.9119
 1441TIP3   OH225737   0.628   1.673   0.048  0.1213  0.2988  0.1155
 1441TIP3    H125738   0.711   1.712   0.074 -0.5400  0.7430  1.6835
 1441TIP3    H225739   0.626   1.588   0.093 -1.6630  1.6775  2.8969
 1442TIP3   OH225740   2.480   2.026   0.045 -0.3779  0.2884 -0.3654
 1442TIP3    H125741   2.533   2.019  -0.035  1.4538  2.1962  0.5931
 1442TIP3    H225742   2.533   2.079   0.105 -0.0177 -3.8724  3.5312
 1443TIP3   OH225743   4.130   5.419   5.599  0.0898 -0.2198 -0.5013
 1443TIP3    H125744   4.037   5.439   5.608  0.3899  0.5128  1.3117
 1443TIP3    H225745   4.133   5.327   5.573 -1.1285 -0.1515 -0.9465
 1444TIP3   OH225746   2.953   4.422  13.315 -0.8887  0.0172 -0.1455
 1444TIP3    H125747   2.923   4.450  13.228  0.3950 -1.4079 -1.0885
 1444TIP3    H225748   3.024   4.483  13.336 -1.0690  0.2426 -0.1823
 1445TIP3   OH225749   4.355   2.826   3.169  0.4312  0.0026  0.4831
 1445TIP3    H125750   4.373   2.823   3.263  1.7077  0.4951  0.2752
 1445TIP3    H225751   4.419   2.888   3.134 -0.8456  0.7996 -0.5438
 1446TIP3   OH225752   1.631   5.657   1.134 -0.1256 -0.1598  0.2147
 1446TIP3    H125753   1.566   5.623   1.196  0.4257 -0.5673  0.5790
 1446TIP3    H225754   1.582   5.676   1.055 -0.9068  0.6486  0.8699
 1447TIP3   OH225755   3.809   4.797  13.709 -0.3004 -0.0217  0.1609
 1447TIP3    H125756   3.885   4.804  13.651  0.3782 -2.0785  0.6920
 1447TIP3    H225757   3.843   4.819  13.795 -0.1793 -1.2363  0.4492
 1448TIP3   OH225758   3.041   3.410  10.952  0.2739  0.3032 -0.1635
 1448TIP3    H125759   3.024   3.403  11.046 -1.1030  4.3007  0.1179
 1448TIP3    H225760   2.961   3.377  10.911 -0.9438  2.3169  0.3964
 1449TIP3   OH225761   1.510   5.640  12.276  0.4665 -0.0188  0.1729
 1449TIP3    H125762   1.452   5.568  12.251 -1.5009  1.6265 -0.2944
 1449TIP3    H225763   1.516   5.634  12.371 -0.5613 -0.1942  0.2444
 1450TIP3   OH225764   2.550   1.280  12.778 -0.3876  0.3286  0.2377
 1450TIP3    H125765   2.536   1.287  12.684 -1.3056 -0.6734  0.2869
 1450TIP3    H225766   2.634   1.235  12.786 -0.3704  0.2942 -0.1057
 1451TIP3   OH225767   1.172   6.756   0.035 -0.5693  0.1886 -0.9897
 1451TIP3    H125768   1.115   6.831   0.053  0.6158  0.5175  1.8577
 1451TIP3    H225769   1.255   6.796   0.009  0.3555 -0.0093  1.4371
 1452TIP3   OH225770   3.779   5.049  14.980 -0.1440 -0.3567 -0.5057
 1452TIP3    H125771   3.808   4.975  14.926 -2.0056 -1.8391  0.3838
 1452TIP3    H225772   3.744   5.112  14.918 -0.0605 -0.9740 -1.1893
 1453TIP3   OH225773   2.624   1.968   1.008 -0.3028  0.3395 -0.1852
 1453TIP3    H125774   2.650   1.990   1.098 -0.6926  2.7827 -0.6042
 1453TIP3    H225775   2.531   1.949   1.014 -0.4073  0.8564 -0.1084
 1454TIP3   OH225776   0.905   3.334  15.416 -0.4827 -0.5666  0.0136
 1454TIP3    H125777   0.850   3.350  15.492 -2.2945  0.1190 -1.3641
 1454TIP3    H225778   0.894   3.241  15.397 -2.5537 -0.1452 -1.1826
 1455TIP3   OH225779   1.032   5.657   2.529  0.1602  0.7474 -0.0602
 1455TIP3    H125780   1.116   5.611   2.526  0.3889  1.2103 -1.7592
 1455TIP3    H225781   1.021   5.694   2.441 -1.4586  1.3608  0.3535
 1456TIP3   OH225782   5.902   2.435   5.843  0.4020 -0.2480 -0.4993
 1456TIP3    H125783   5.878   2.343   5.833  1.0420 -0.6646  1.4964
 1456TIP3    H225784   5.958   2.453   5.768  0.8795 -1.7034 -0.5279
 1457TIP3   OH225785   0.725   1.206   0.518  0.3010 -0.0288 -0.4002
 1457TIP3    H125786   0.758   1.163   0.439 -0.9466 -2.3335  0.2255
 1457TIP3    H225787   0.637   1.235   0.494 -0.0166 -0.5847  0.0713
 1458TIP3   OH225788   3.799   2.351   2.885 -0.1711 -0.4786 -0.7123
 1458TIP3    H125789   3.811   2.256   2.894  1.5267 -0.3547 -1.3095
 1458TIP3    H225790   3.798   2.366   2.791  1.4599  0.2573 -0.6616
 1459TIP3   OH225791   1.464   1.071   5.825 -0.0250  0.2878 -0.2117
 1459TIP3    H125792   1.545   1.035   5.791 -0.2211  0.4456 -0.8601
 1459TIP3    H225793   1.489   1.114   5.907  0.4530 -0.0841 -0.1571
 1460TIP3   OH225794   3.396   3.550   2.686  0.2705 -0.1575 -0.2290
 1460TIP3    H125795   3.372   3.612   2.755 -0.7208  0.5948 -1.2081
 1460TIP3    H225796   3.434   3.605   2.617 -1.7380 -0.4364 -1.6249
 1461TIP3   OH225797   3.996   5.094  12.286 -0.4110  0.6488  0.0280
 1461TIP3    H125798   4.014   5.060  12.373  0.7559  2.0169  0.3483
 1461TIP3    H225799   4.069   5.152  12.267  0.3569 -1.0050 -2.6428
 1462TIP3   OH225800   2.887   3.678  15.471  0.3330  0.1043 -0.0902
 1462TIP3    H125801   2.853   3.682  15.560  1.6482  0.4880  0.4270
 1462TIP3    H225802   2.935   3.760  15.459  2.2072 -0.9318 -0.2439
 1463TIP3   OH225803   2.110   2.758   0.672  0.2517  0.1290  0.1567
 1463TIP3    H125804   2.064   2.841   0.680  0.4128  0.1870  0.5176
 1463TIP3    H225805   2.190   2.770   0.722  0.0355 -0.4099  0.6540
 1464TIP3   OH225806   3.659   4.871  11.495  0.2630 -0.2605 -0.1298
 1464TIP3    H125807   3.651   4.951  11.444 -1.1946 -0.1835  0.1611
 1464TIP3    H225808   3.715   4.895  11.569  0.2692  0.3351 -0.3235
 1465TIP3   OH225809   0.181   2.411  11.097  0.8128  0.9707 -0.6533
 1465TIP3    H125810   0.147   2.418  11.007  0.7269  0.7541 -0.6393
 1465TIP3    H225811   0.240   2.336  11.094 -1.2008 -0.7394  0.0750
 1466TIP3   OH225812   5.789   2.523  10.433 -0.0678 -0.7507 -0.0290
 1466TIP3    H125813   5.780   2.614  10.458 -0.9619 -0.9095  0.2401
 1466TIP3    H225814   5.721   2.477  10.482  2.3017 -2.0507  2.2750
 1467TIP3   OH225815   4.503   4.343   1.812 -0.2452 -0.5041  0.1707
 1467TIP3    H125816   4.434   4.339   1.746 -0.0320  0.1583 -0.1096
 1467TIP3    H225817   4.457   4.339   1.896 -0.6126 -0.2530 -0.0175
 1468TIP3   OH225818   2.053   0.236   4.842 -0.7563 -0.0715 -0.8158
 1468TIP3    H125819   1.994   0.165   4.869 -1.1851 -0.1571 -1.9478
 1468TIP3    H225820   2.119   0.240   4.912 -1.2179 -1.0116 -0.3115
 1469TIP3   OH225821   1.154   3.024   5.073  0.1147 -0.6986  0.1693
 1469TIP3    H125822   1.117   3.052   5.156 -0.5350 -0.3220 -0.2385
 1469TIP3    H225823   1.215   3.093   5.048 -1.4807  0.4412 -0.8336
 1470TIP3   OH225824   3.579   4.553  14.598  0.2206  0.5986  0.5693
 1470TIP3    H125825   3.585   4.482  14.534  1.7090  2.2332 -1.1945
 1470TIP3    H225826   3.617   4.516  14.678  1.3227 -0.4684 -0.4238
 1471TIP3   OH225827   0.087   2.798   0.634 -0.0701 -0.4818  0.8045
 1471TIP3    H125828   0.161   2.788   0.693  0.7445 -0.0686 -0.1142
 1471TIP3    H225829   0.124   2.789   0.546 -0.8973  0.8633  0.2754
 1472TIP3   OH225830   0.517   6.745   4.277 -0.2265  0.3563 -0.1592
 1472TIP3    H125831   0.559   6.797   4.346  0.9834  0.5264 -0.9757
 1472TIP3    H225832   0.582   6.743   4.206 -0.9078 -0.9074 -0.7869
 1473TIP3   OH225833   1.878   1.048   3.609  0.4047  0.1367 -0.0369
 1473TIP3    H125834   1.830   1.027   3.689  0.5262  0.2901  0.0782
 1473TIP3    H225835   1.917   1.134   3.627  1.1240 -0.2016  0.0634
 1474TIP3   OH225836   3.807   0.391   1.080  0.3840  0.5891  0.2476
 1474TIP3    H125837   3.829   0.370   0.989 -1.6117  0.0666 -0.1662
 1474TIP3    H225838   3.891   0.384   1.127  1.4593  0.8825 -1.5285
 1475TIP3   OH225839   1.905   6.529   4.049  0.0588 -0.1513  0.2814
 1475TIP3    H125840   1.937   6.479   3.973  1.6082  0.6110  0.3935
 1475TIP3    H225841   1.969   6.511   4.118  0.7276  1.9986  0.3026
 1476TIP3   OH225842   5.276   5.347  16.998  0.3039 -0.2004  0.9084
 1476TIP3    H125843   5.299   5.295  17.075 -0.7944 -2.0976  0.0365
 1476TIP3    H225844   5.357   5.351  16.946  0.3594 -1.2969  0.8799
 1477TIP3   OH225845   5.251   0.335   6.285 -0.2054 -0.1243 -0.7349
 1477TIP3    H125846   5.278   0.292   6.366 -0.4353 -0.9418 -1.0819
 1477TIP3    H225847   5.239   0.263   6.223 -4.6225 -0.1033 -0.2599
 1478TIP3   OH225848   1.414   5.086  13.700 -0.1017  0.0486  0.0137
 1478TIP3    H125849   1.408   5.119  13.610 -1.3137 -1.9234 -0.7110
 1478TIP3    H225850   1.448   4.997  13.690  1.1807  0.3046  1.6814
 1479TIP3   OH225851   0.701   3.191   2.047 -0.3390  0.1806  0.1440
 1479TIP3    H125852   0.717   3.160   1.958 -0.1340  0.5223  0.0581
 1479TIP3    H225853   0.670   3.281   2.035 -0.5039  0.1593  0.4087
 1480TIP3   OH225854   2.974   5.579   5.324 -0.0542  0.2425  0.2194
 1480TIP3    H125855   2.912   5.533   5.380  0.7088 -1.3231 -0.1566
 1480TIP3    H225856   3.044   5.607   5.383 -0.0305  0.0116  0.3017
 1481TIP3   OH225857   0.662   4.221   3.313 -0.2241 -0.0391 -0.1829
 1481TIP3    H125858   0.715   4.239   3.391 -0.4739  0.8603 -0.2010
 1481TIP3    H225859   0.582   4.272   3.326 -0.4116 -0.1465 -0.8706
 1482TIP3   OH225860   2.881   4.354  12.971  0.5913 -0.8835  0.1245
 1482TIP3    H125861   2.830   4.416  13.022 -0.5383 -0.4996 -1.4042
 1482TIP3    H225862   2.915   4.292  13.035 -1.3715 -0.8471  1.2552
 1483TIP3   OH225863   3.417   5.697  16.564 -0.3711  0.0337 -0.4125
 1483TIP3    H125864   3.461   5.731  16.641  0.4069 -1.6682 -0.0494
 1483TIP3    H225865   3.488   5.667  16.507 -0.9826 -0.4917 -0.9168
 1484TIP3   OH225866   4.118   4.136   1.748 -0.5285 -0.2133  0.1376
 1484TIP3    H125867   4.167   4.068   1.794  0.0316  0.2603  0.2633
 1484TIP3    H225868   4.041   4.151   1.803  1.0999  1.7464  2.1076
 1485TIP3   OH225869   3.779   4.070  16.561 -0.4232  0.1572 -0.0802
 1485TIP3    H125870   3.722   4.054  16.485  3.2325 -0.2470 -3.0349
 1485TIP3    H225871   3.771   4.164  16.578 -1.4237  0.2228 -0.8226
 1486TIP3   OH225872   5.137   5.758   2.948  0.3234 -0.6064  0.3464
 1486TIP3    H125873   5.217   5.759   3.000  0.6248 -0.4003 -0.1086
 1486TIP3    H225874   5.153   5.691   2.881  1.1671  1.1503 -1.3190
 1487TIP3   OH225875   1.144   2.749   3.157 -0.2659  0.8175 -0.0758
 1487TIP3    H125876   1.213   2.687   3.179 -0.2083 -0.0121 -2.3093
 1487TIP3    H225877   1.181   2.835   3.178  1.3318  0.3695 -0.9100
 1488TIP3   OH225878   2.777   0.205   4.209  0.4211  0.1961  0.5867
 1488TIP3    H125879   2.810   0.259   4.280  1.4473 -0.4628  0.6259
 1488TIP3    H225880   2.832   0.127   4.210  0.0398 -0.1072 -0.5292
 1489TIP3   OH225881   3.448   0.736   5.340 -0.2730 -0.2462  0.6093
 1489TIP3    H125882   3.481   0.825   5.334  0.1562 -0.3098  1.7892
 1489TIP3    H225883   3.469   0.708   5.429 -1.0218 -1.2794  0.4879
 1490TIP3   OH225884   3.843   5.249   4.238  0.2095  0.2884 -0.4077
 1490TIP3    H125885   3.844   5.318   4.171 -0.5191  0.3079 -0.4060
 1490TIP3    H225886   3.915   5.191   4.212 -0.6285 -0.1957 -1.7461
 1491TIP3   OH225887   2.818   2.296   3.360 -0.2296  0.2276  0.2905
 1491TIP3    H125888   2.814   2.202   3.377  0.0749  0.0118 -0.8095
 1491TIP3    H225889   2.785   2.306   3.271  0.7743  1.0417 -0.0094
 1492TIP3   OH225890   3.680   2.553  11.278 -0.1177  0.2400 -0.0734
 1492TIP3    H125891   3.698   2.637  11.237 -0.1567  0.5101  0.4659
 1492TIP3    H225892   3.591   2.531  11.250 -0.2387  0.5434  0.0774
 1493TIP3   OH225893   1.729   6.330   2.691 -0.0898  0.3204 -0.0875
 1493TIP3    H125894   1.669   6.320   2.617 -1.2106 -0.2299  0.8616
 1493TIP3    H225895   1.719   6.421   2.718 -0.8881  0.1058  0.3702
 1494TIP3   OH225896   5.722   6.309  14.746  0.5627 -0.0313 -0.0031
 1494TIP3    H125897   5.787   6.370  14.781  1.2978 -1.0557  0.4776
 1494TIP3    H225898   5.640   6.358  14.749  1.1340  0.9519  0.3165
 1495TIP3   OH225899   4.078   0.864   5.208  0.8569  0.0731  0.6035
 1495TIP3    H125900   4.159   0.911   5.228  1.8999 -0.2556 -2.3660
 1495TIP3    H225901   4.086   0.781   5.255  1.7127  0.4959  1.2304
 1496TIP3   OH225902   4.453   2.997  15.988  0.1550  0.1347 -0.0930
 1496TIP3    H125903   4.477   2.952  15.907 -0.7941  0.1647 -0.4015
 1496TIP3    H225904   4.393   3.067  15.960 -1.4792 -0.8485  0.7831
 1497TIP3   OH225905   1.377   2.579   5.261  0.0827 -0.2617  0.1529
 1497TIP3    H125906   1.309   2.570   5.328 -0.7932 -0.1925 -0.7000
 1497TIP3    H225907   1.384   2.492   5.222  0.1587 -0.1592 -0.0641
 1498TIP3   OH225908   0.379   1.920   3.749  0.3448 -0.5051  0.2716
 1498TIP3    H125909   0.289   1.932   3.780  0.1556 -0.3182 -0.3432
 1498TIP3    H225910   0.380   1.961   3.663  1.1213 -0.1726  0.4335
 1499TIP3   OH225911   5.770   1.360  15.112  0.2405 -0.5912  0.9240
 1499TIP3    H125912   5.864   1.344  15.117  0.5062  0.4219 -0.3010
 1499TIP3    H225913   5.762   1.452  15.086 -1.0433 -1.0704 -0.5568
 1500TIP3   OH225914   2.994   2.292  11.723 -0.3591  0.0580  0.0720
 1500TIP3    H125915   3.003   2.295  11.818  0.1982 -3.7459  0.2886
 1500TIP3    H225916   2.923   2.353  11.704 -1.2116  0.1599  3.0360
 1501TIP3   OH225917   5.173   5.925  15.441 -0.2145 -0.1798  0.4057
 1501TIP3    H125918   5.101   5.987  15.454  0.2703  0.5559 -0.3628
 1501TIP3    H225919   5.244   5.959  15.494 -0.2067 -0.5307  0.6213
 1502TIP3   OH225920   0.906   3.074  14.628  0.8042  0.1369  0.1852
 1502TIP3    H125921   0.952   3.140  14.576  1.3486  0.9299  1.6153
 1502TIP3    H225922   0.813   3.089  14.611  0.8674  1.9722  1.2790
 1503TIP3   OH225923   2.821   2.672   3.222  0.3274 -0.1030  0.6257
 1503TIP3    H125924   2.738   2.624   3.218  0.7635 -0.9474  1.2350
 1503TIP3    H225925   2.849   2.679   3.130 -0.5112  0.3744  0.3993
 1504TIP3   OH225926   6.322   5.497   6.390  0.3371 -0.0438  0.1078
 1504TIP3    H125927   6.308   5.584   6.353  1.7213 -0.4023 -1.3716
 1504TIP3    H225928   6.417   5.491   6.401  0.2249 -1.2068  0.5927
 1505TIP3   OH225929   1.542   5.754   0.887  0.4317 -0.2281  0.4568
 1505TIP3    H125930   1.550   5.840   0.846  0.1429 -0.2149  0.4248
 1505TIP3    H225931   1.578   5.693   0.823 -2.9857 -0.6314 -1.3155
 1506TIP3   OH225932   2.382   5.760  13.848 -0.1469 -0.2531  0.2150
 1506TIP3    H125933   2.472   5.732  13.868 -0.0680 -0.4332 -0.3618
 1506TIP3    H225934   2.334   5.745  13.929  0.3686 -0.0426  0.5667
 1507TIP3   OH225935   2.528   5.255  15.358  0.4079  0.4124 -0.3083
 1507TIP3    H125936   2.572   5.290  15.435 -0.9537  0.6171  0.4116
 1507TIP3    H225937   2.484   5.176  15.389 -1.4341  1.3291 -0.4576
 1508TIP3   OH225938   0.578   6.444  16.026 -0.5289 -0.3153  0.0729
 1508TIP3    H125939   0.524   6.416  15.952 -0.3038 -1.5656  0.3449
 1508TIP3    H225940   0.517   6.488  16.085 -0.4543  1.9139 -1.4348
 1509TIP3   OH225941   3.837   1.624  13.655  0.0092 -0.4848 -0.0144
 1509TIP3    H125942   3.867   1.553  13.713 -3.2645 -1.4937  0.6556
 1509TIP3    H225943   3.797   1.687  13.715  0.6413  0.7282 -0.8472
 1510TIP3   OH225944   1.887   1.706   3.732  0.3106  0.7727 -0.0133
 1510TIP3    H125945   1.865   1.712   3.825 -1.8560  3.4584 -0.5390
 1510TIP3    H225946   1.857   1.619   3.706  0.1490  0.2979  1.6023
 1511TIP3   OH225947   1.137   2.154   5.531  0.2704  0.0164  0.3042
 1511TIP3    H125948   1.134   2.123   5.622 -0.0194 -0.0739  0.2638
 1511TIP3    H225949   1.200   2.226   5.533 -0.9536  1.1233  0.9137
 1512TIP3   OH225950   1.709   2.407  14.905 -0.3070  0.2358 -0.2950
 1512TIP3    H125951   1.657   2.487  14.912 -0.7496 -0.1194  0.6904
 1512TIP3    H225952   1.725   2.380  14.995 -0.1467 -0.7765 -0.6067
 1513TIP3   OH225953   5.142   6.112   0.015 -0.3846  0.7740  0.0159
 1513TIP3    H125954   5.203   6.162   0.069  2.1740 -2.5778  0.5465
 1513TIP3    H225955   5.130   6.166  -0.064  2.9013  1.9037  0.1249
 1514TIP3   OH225956   0.737   5.120  12.190  0.2539  0.0779 -0.6077
 1514TIP3    H125957   0.757   5.195  12.245  0.9555  0.1116 -0.9022
 1514TIP3    H225958   0.690   5.157  12.115  0.9311  0.2833 -0.9405
 1515TIP3   OH225959   5.179   0.863  16.254  0.7660  0.2952  0.3501
 1515TIP3    H125960   5.185   0.876  16.348  0.9960 -0.6295  0.4704
 1515TIP3    H225961   5.104   0.804  16.242  1.4739 -0.5596  0.0569
 1516TIP3   OH225962   2.831   1.677  16.471 -0.0046  0.5925 -0.0388
 1516TIP3    H125963   2.873   1.596  16.442 -1.3002  0.0784 -0.5515
 1516TIP3    H225964   2.770   1.650  16.539 -1.1443  0.9725 -0.8720
 1517TIP3   OH225965   0.855   4.271   6.544  0.1761 -0.7333 -0.0450
 1517TIP3    H125966   0.870   4.364   6.561 -3.2119  0.4159 -2.2629
 1517TIP3    H225967   0.850   4.265   6.448 -3.5898 -2.3232  0.0904
 1518TIP3   OH225968   3.159   6.040  16.911  0.0689 -0.6270  0.4153
 1518TIP3    H125969   3.105   6.108  16.950  1.3397  0.7758 -0.1406
 1518TIP3    H225970   3.097   5.982  16.866 -1.0709 -0.0413  1.1824
 1519TIP3   OH225971   0.432   1.027  11.336  0.0097 -0.6595 -0.0918
 1519TIP3    H125972   0.336   1.029  11.334 -0.0087  1.3578  0.8082
 1519TIP3    H225973   0.458   1.044  11.245 -0.4846 -0.2777 -0.1644
 1520TIP3   OH225974   3.438   3.683   1.247  0.4616 -0.2306  0.1956
 1520TIP3    H125975   3.357   3.664   1.199  1.4012  0.5681 -1.8393
 1520TIP3    H225976   3.445   3.778   1.246  0.0543 -0.0980  2.8733
 1521TIP3   OH225977   0.781   0.031   3.536  0.3995 -0.1164  0.3541
 1521TIP3    H125978   0.761   0.074   3.452  0.1939 -1.6546 -0.4271
 1521TIP3    H225979   0.876   0.036   3.544  0.2774  2.1391  1.2501
 1522TIP3   OH225980   0.791   3.948  13.551  0.2517 -0.0344 -0.0034
 1522TIP3    H125981   0.812   3.990  13.635  0.7845 -0.0096 -0.1421
 1522TIP3    H225982   0.696   3.950  13.546  0.2520  0.8165  0.1638
 1523TIP3   OH225983   0.360   0.517  11.585  0.5399  0.0998 -0.3297
 1523TIP3    H125984   0.315   0.446  11.631  0.4862 -0.0264 -0.5719
 1523TIP3    H225985   0.380   0.480  11.499  0.6104  0.3434 -0.4178
 1524TIP3   OH225986   4.423   2.598   2.414 -0.4730 -0.4216  0.1507
 1524TIP3    H125987   4.478   2.589   2.336  0.6713 -3.0858  1.1729
 1524TIP3    H225988   4.482   2.586   2.488 -2.1171 -1.6719  1.3424
 1525TIP3   OH225989   3.817   3.034   2.678  0.0298  0.3510  0.1804
 1525TIP3    H125990   3.887   3.046   2.614  0.3937 -1.3591  0.1919
 1525TIP3    H225991   3.758   2.971   2.637  0.8037 -1.6131  1.8543
 1526TIP3   OH225992   4.738   1.650  16.423  0.0227 -0.1539  0.1451
 1526TIP3    H125993   4.816   1.602  16.395 -0.9815 -1.5278 -0.4178
 1526TIP3    H225994   4.669   1.619  16.365 -0.4707  2.9067 -1.0581
 1527TIP3   OH225995   3.746   6.448  11.036  0.0214 -0.4665 -0.0300
 1527TIP3    H125996   3.692   6.370  11.019 -1.2222 -0.3257  2.7005
 1527TIP3    H225997   3.710   6.515  10.978 -1.1067 -1.0536 -0.0327
 1528TIP3   OH225998   4.407   3.734  12.157  0.3487  0.1991 -0.0373
 1528TIP3    H125999   4.391   3.647  12.194  0.2935 -1.0057 -2.7019
 1528TIP3    H226000   4.501   3.736  12.139  0.1740  0.2439 -0.9942
 1529TIP3   OH226001   6.327   1.311   0.476 -0.0280  0.4020  0.3529
 1529TIP3    H126002   6.362   1.369   0.409 -2.1144  0.1413 -1.0486
 1529TIP3    H226003   6.322   1.225   0.435 -0.0786 -0.0685  1.2998
 1530TIP3   OH226004   4.642   3.224   3.474 -1.1034 -0.3166  0.3327
 1530TIP3    H126005   4.580   3.152   3.463 -0.7675 -0.5665  0.0536
 1530TIP3    H226006   4.657   3.257   3.386 -1.4030  0.2298  0.4764
 1531TIP3   OH226007   5.420   4.981   0.394  0.1602  0.6031 -0.2381
 1531TIP3    H126008   5.380   5.032   0.465  0.3236  2.9156 -1.7122
 1531TIP3    H226009   5.352   4.919   0.369 -0.3057  0.5038  1.1750
 1532TIP3   OH226010   5.905   1.425   0.831  0.2878 -0.2913 -0.2840
 1532TIP3    H126011   5.814   1.449   0.815  1.0990  3.2593 -0.3922
 1532TIP3    H226012   5.941   1.408   0.744  0.4855  1.6819 -0.6266
 1533TIP3   OH226013   1.688   1.830   0.085  0.0286 -0.3206 -0.2604
 1533TIP3    H126014   1.647   1.855   0.168  0.9532  0.7418 -0.0976
 1533TIP3    H226015   1.676   1.907   0.029  0.8547 -0.3989 -0.5546
 1534TIP3   OH226016   0.829   4.630   5.896  0.2371 -0.0492  0.0733
 1534TIP3    H126017   0.822   4.665   5.808  0.1975  0.2328  0.1866
 1534TIP3    H226018   0.864   4.541   5.885  0.9140  0.2411 -0.1772
 1535TIP3   OH226019   4.219   6.726  13.864 -0.2181 -0.2236  0.1725
 1535TIP3    H126020   4.219   6.662  13.935 -0.0561  0.4710  0.8116
 1535TIP3    H226021   4.131   6.763  13.866  0.0044  0.2995  0.4829
 1536TIP3   OH226022   2.511   6.746  12.670 -0.0619 -0.1473 -0.1770
 1536TIP3    H126023   2.457   6.813  12.628 -1.0357  0.8877  2.5178
 1536TIP3    H226024   2.600   6.781  12.669 -0.0317 -0.2314 -1.4732
 1537TIP3   OH226025   6.040   3.839   1.644 -0.1794  0.0083  0.3120
 1537TIP3    H126026   6.049   3.874   1.556  1.1084 -0.2920  0.3064
 1537TIP3    H226027   5.986   3.904   1.690 -2.2403 -0.6240 -1.0911
 1538TIP3   OH226028   3.582   0.695  14.809  0.3634 -0.3622 -0.7544
 1538TIP3    H126029   3.497   0.711  14.851 -0.0434 -1.7500 -0.9992
 1538TIP3    H226030   3.592   0.600  14.810  3.8576 -0.2025  3.0061
 1539TIP3   OH226031   5.559   4.106  11.162  0.2556  0.1391  0.3694
 1539TIP3    H126032   5.468   4.126  11.139  0.3252  0.6556  0.5273
 1539TIP3    H226033   5.577   4.023  11.118 -0.3778 -0.1009  0.5508
 1540TIP3   OH226034   5.170   1.631  14.585 -0.1013 -0.3094  0.0448
 1540TIP3    H126035   5.092   1.608  14.534 -0.4286 -0.2273  0.5011
 1540TIP3    H226036   5.200   1.549  14.622 -0.9279 -0.1095  1.1977
 1541TIP3   OH226037   5.895   0.500   2.001  0.5232 -0.1710 -0.0209
 1541TIP3    H126038   5.985   0.520   2.027  0.6578  0.3295 -0.8551
 1541TIP3    H226039   5.901   0.418   1.953  0.5930  0.0782 -0.4380
 1542TIP3   OH226040   3.435   3.975   1.240  0.2792  0.7285  0.1667
 1542TIP3    H126041   3.384   3.963   1.160 -0.6102  0.1766  0.8093
 1542TIP3    H226042   3.451   4.069   1.245 -1.0410  0.9619  0.1770
 1543TIP3   OH226043   1.763   0.388   1.798  0.0497  0.7034 -0.1205
 1543TIP3    H126044   1.851   0.402   1.833  0.1104 -2.2595  1.2337
 1543TIP3    H226045   1.707   0.381   1.876 -1.4398  2.3927 -0.9417
 1544TIP3   OH226046   0.409   4.138   5.803 -0.1173  0.4514  0.6599
 1544TIP3    H126047   0.475   4.079   5.838 -0.6857 -1.1294 -0.7975
 1544TIP3    H226048   0.328   4.114   5.848 -0.2094  0.6234  0.5897
 1545TIP3   OH226049   1.957   3.919  13.034  0.2399 -0.1459  0.4026
 1545TIP3    H126050   2.009   3.950  13.109  1.1791 -0.8946  0.0792
 1545TIP3    H226051   2.014   3.934  12.958 -0.1401 -0.7088  0.0075
 1546TIP3   OH226052   6.380   5.680  13.988 -0.1622 -0.2996 -0.2953
 1546TIP3    H126053   6.450   5.615  13.989  0.4546  0.3440  0.6703
 1546TIP3    H226054   6.420   5.758  13.950 -0.6574 -0.2395 -0.6950
 1547TIP3   OH226055   1.998   4.197  11.935  0.6295  0.0271  0.0961
 1547TIP3    H126056   2.082   4.153  11.922  1.2087  0.4921  1.9032
 1547TIP3    H226057   1.951   4.142  11.998 -0.9669 -0.8659 -1.8017
 1548TIP3   OH226058   4.086   4.175   3.202 -0.0654  0.2343 -0.4756
 1548TIP3    H126059   4.154   4.112   3.179  0.0690  0.2461 -0.1050
 1548TIP3    H226060   4.005   4.137   3.168 -0.3888 -1.3376  1.9097
 1549TIP3   OH226061   3.587   6.428  16.996  0.1126 -0.0446 -0.6486
 1549TIP3    H126062   3.678   6.414  17.020  0.3316  1.1527 -0.7056
 1549TIP3    H226063   3.568   6.517  17.025 -1.3450 -0.6192  0.2504
 1550TIP3   OH226064   0.088   6.498  15.124 -0.4613  0.2279  0.0101
 1550TIP3    H126065   0.112   6.406  15.132 -0.2711  0.2982  0.2878
 1550TIP3    H226066   0.143   6.532  15.054 -1.2602 -0.1061 -0.8028
 1551TIP3   OH226067   4.124   2.214   0.522  0.2292  0.1290  0.0219
 1551TIP3    H126068   4.084   2.145   0.574 -0.6553  1.1799  0.7779
 1551TIP3    H226069   4.180   2.261   0.584 -0.9960  1.5225  0.1140
 1552TIP3   OH226070   3.013   4.872  10.973 -1.4907 -0.9455 -0.4855
 1552TIP3    H126071   2.923   4.887  10.943 -1.5029 -1.6492 -0.8080
 1552TIP3    H226072   3.004   4.852  11.066 -1.4488  1.3051  0.0794
 1553TIP3   OH226073   0.869   5.118  13.164 -0.0481 -0.2935 -0.5562
 1553TIP3    H126074   0.899   5.151  13.079 -1.3212  0.8064 -0.6015
 1553TIP3    H226075   0.928   5.159  13.228  0.1343 -0.1611 -0.8092
 1554TIP3   OH226076   5.071   4.313  13.293  1.0011  0.2686 -0.2428
 1554TIP3    H126077   5.038   4.317  13.203 -1.5820  0.4601  0.6306
 1554TIP3    H226078   5.155   4.268  13.285 -0.0680 -1.6046 -2.5374
 1555TIP3   OH226079   6.107   4.746   2.285 -0.2379 -0.2379 -0.3545
 1555TIP3    H126080   6.073   4.734   2.374  0.7328 -0.2537  0.0247
 1555TIP3    H226081   6.096   4.840   2.268 -0.3324 -0.2161 -0.1774
 1556TIP3   OH226082   2.821   0.074  12.517  0.3257 -0.2638  0.4577
 1556TIP3    H126083   2.915   0.069  12.501  0.3530 -0.4940  0.6899
 1556TIP3    H226084   2.786   0.120  12.440  0.6853  0.2522  0.5981
 1557TIP3   OH226085   1.818   1.477   3.552 -0.3019 -0.0347 -0.5715
 1557TIP3    H126086   1.899   1.428   3.546 -0.4888 -0.3302 -0.7259
 1557TIP3    H226087   1.749   1.413   3.533 -0.6920 -0.1850  1.2284
 1558TIP3   OH226088   3.089   4.195   3.632  0.4678  0.2289 -0.2108
 1558TIP3    H126089   3.081   4.184   3.538  2.7337  0.4972 -0.4796
 1558TIP3    H226090   2.998   4.195   3.664 -0.3322 -2.8735 -2.0162
 1559TIP3   OH226091   1.924   4.618   2.394 -0.4538 -0.7642  0.4254
 1559TIP3    H126092   1.830   4.634   2.408 -0.5849 -0.9859 -0.1700
 1559TIP3    H226093   1.942   4.657   2.308 -0.1291 -1.2354  0.2774
 1560TIP3   OH226094   3.629   6.275  13.017 -0.3031  0.2325  0.1122
 1560TIP3    H126095   3.682   6.206  13.055 -0.7142  1.0117  2.2272
 1560TIP3    H226096   3.556   6.229  12.975  0.7316 -0.7107 -0.7004
 1561TIP3   OH226097   5.457   0.998   3.938 -0.0917  0.3643  0.1442
 1561TIP3    H126098   5.500   1.078   3.968  1.6317 -0.7101  0.6648
 1561TIP3    H226099   5.492   0.984   3.850  1.0558 -0.7672  0.7470
 1562TIP3   OH226100   1.509   5.199   5.555 -0.1227  0.2115 -0.4372
 1562TIP3    H126101   1.601   5.173   5.554 -0.4972 -1.2107 -1.0315
 1562TIP3    H226102   1.466   5.132   5.608 -1.2034 -0.6934 -2.3715
 1563TIP3   OH226103   4.169   3.416  15.651 -0.4263 -0.5704  0.0408
 1563TIP3    H126104   4.171   3.511  15.666 -1.5583 -0.2770 -1.4126
 1563TIP3    H226105   4.207   3.405  15.564 -1.0327 -1.3641 -0.1339
 1564TIP3   OH226106   0.931   6.590   1.297 -0.3962  0.2687  0.3841
 1564TIP3    H126107   0.886   6.673   1.309 -0.5696  0.4622 -1.3654
 1564TIP3    H226108   0.862   6.529   1.269 -0.2714 -0.4829  1.6251
 1565TIP3   OH226109   4.290   0.427   5.543 -0.0582  0.1848  0.4238
 1565TIP3    H126110   4.353   0.492   5.513 -0.5558  0.9865  1.0684
 1565TIP3    H226111   4.314   0.346   5.498  0.6013  0.8055 -0.3444
 1566TIP3   OH226112   2.031   1.576  11.273  0.3890 -0.0868  1.0299
 1566TIP3    H126113   2.105   1.539  11.224 -0.5761 -1.0864  0.2785
 1566TIP3    H226114   1.967   1.598  11.206  0.0690  0.9618  1.6619
 1567TIP3   OH226115   0.276   4.968  16.709  0.2068 -0.5518  0.2112
 1567TIP3    H126116   0.229   5.051  16.706  0.5634 -0.3492  0.1337
 1567TIP3    H226117   0.331   4.969  16.630 -0.8544 -1.5053 -0.5792
 1568TIP3   OH226118   1.804   2.720  14.829 -0.3694  0.6007 -0.6759
 1568TIP3    H126119   1.724   2.697  14.781 -0.3517  0.3366 -0.5822
 1568TIP3    H226120   1.780   2.797  14.880 -0.3719  0.9152 -1.1460
 1569TIP3   OH226121   1.113   2.643  12.356  0.0169  0.0658  0.9544
 1569TIP3    H126122   1.079   2.723  12.316  0.8674  0.4732  1.0369
 1569TIP3    H226123   1.194   2.624  12.309 -0.8382 -1.5072  0.0289
 1570TIP3   OH226124   3.065   2.643   2.995 -0.2387  0.4457  0.2273
 1570TIP3    H126125   3.131   2.581   2.964 -1.1334  0.1173 -1.1267
 1570TIP3    H226126   3.113   2.726   3.006  0.5320  0.0473 -0.0595
 1571TIP3   OH226127   2.947   4.619  13.092  0.1906 -0.4838 -0.7635
 1571TIP3    H126128   2.960   4.691  13.153  0.2546 -1.8191  0.8636
 1571TIP3    H226129   3.036   4.589  13.070  0.1542 -0.8810 -0.3968
 1572TIP3   OH226130   3.717   5.454  11.144  0.3942  0.1384  0.5164
 1572TIP3    H126131   3.747   5.365  11.124 -0.5802  0.0975 -0.9024
 1572TIP3    H226132   3.621   5.447  11.146  0.1652  1.5705 -1.9453
 1573TIP3   OH226133   5.072   3.706  10.821 -0.6135  0.4029  0.4287
 1573TIP3    H126134   5.164   3.705  10.796 -1.0868 -1.2281 -1.4580
 1573TIP3    H226135   5.065   3.639  10.889 -0.6297 -0.3710 -0.3330
 1574TIP3   OH226136   1.729   4.783   0.715 -0.0190 -0.2199  0.2335
 1574TIP3    H126137   1.763   4.853   0.660 -1.1968 -0.7174 -1.2060
 1574TIP3    H226138   1.784   4.785   0.793  0.3558  1.9067 -0.0178
 1575TIP3   OH226139   1.121   3.632  16.522  0.2092 -0.3037 -0.0097
 1575TIP3    H126140   1.038   3.614  16.477 -0.7737  2.9024  0.2840
 1575TIP3    H226141   1.160   3.704  16.473  3.2301 -2.1011 -0.4891
 1576TIP3   OH226142   3.058   1.079   1.845  0.9371 -0.3897  0.1901
 1576TIP3    H126143   3.003   1.098   1.769  1.5014 -1.5986 -0.5403
 1576TIP3    H226144   3.020   1.131   1.915  0.3618  0.6920 -0.8958
 1577TIP3   OH226145   2.774   3.799  14.558 -0.0350  0.0380  0.4399
 1577TIP3    H126146   2.797   3.817  14.650 -2.5521  0.9195  0.9937
 1577TIP3    H226147   2.717   3.722  14.563 -3.7385  2.4934  0.3100
 1578TIP3   OH226148   3.878   1.351  16.758 -0.5642 -0.0573 -0.0982
 1578TIP3    H126149   3.945   1.359  16.690 -0.9759 -1.3630 -0.6913
 1578TIP3    H226150   3.926   1.359  16.840  0.1065  0.4392 -0.5253
 1579TIP3   OH226151   1.056   2.346  11.245  0.0278  0.1461 -0.6117
 1579TIP3    H126152   1.000   2.274  11.275 -1.2946  1.1299 -0.6219
 1579TIP3    H226153   1.128   2.303  11.199 -2.0463 -1.1702 -2.9115
 1580TIP3   OH226154   5.140   5.869  11.573 -0.1220  0.2215  0.9628
 1580TIP3    H126155   5.099   5.953  11.590 -1.4966 -0.5181  1.4152
 1580TIP3    H226156   5.123   5.852  11.480  0.7043  0.7093  0.7091
 1581TIP3   OH226157   3.596   4.817  11.039 -0.3099  0.2187 -0.5551
 1581TIP3    H126158   3.593   4.913  11.030  1.4012  0.3065 -0.4810
 1581TIP3    H226159   3.544   4.799  11.117  0.2985  1.2213  0.1133
 1582TIP3   OH226160   0.977   4.398   2.960 -0.2199 -0.5808  0.0834
 1582TIP3    H126161   1.004   4.483   2.925  1.2506 -1.1591 -0.2782
 1582TIP3    H226162   0.894   4.415   3.004 -0.6063  0.7720 -1.1133
 1583TIP3   OH226163   3.342   4.906  14.415  0.3237  0.4173 -0.0251
 1583TIP3    H126164   3.346   4.992  14.457 -0.3301  1.0145 -1.1291
 1583TIP3    H226165   3.344   4.925  14.321  1.2495 -0.8479 -0.2940
 1584TIP3   OH226166   2.552   1.747  14.920 -0.4098  0.5489  0.6487
 1584TIP3    H126167   2.482   1.700  14.876 -0.5032  0.6125  0.7289
 1584TIP3    H226168   2.602   1.680  14.966 -1.6885  0.7322  2.3705
 1585TIP3   OH226169   4.454   1.592   1.651 -0.1116 -0.1054 -0.2068
 1585TIP3    H126170   4.395   1.554   1.717 -2.5238  0.9493 -1.6353
 1585TIP3    H226171   4.495   1.666   1.696 -2.2786  1.0550 -0.0008
 1586TIP3   OH226172   5.151   0.766   5.853  0.4747 -0.1524 -0.5655
 1586TIP3    H126173   5.245   0.751   5.866  0.6278 -1.2589 -2.5135
 1586TIP3    H226174   5.110   0.688   5.890  0.1480  1.0003  1.6503
 1587TIP3   OH226175   4.943   5.688  14.150  0.3640 -0.3412  0.1863
 1587TIP3    H126176   4.956   5.596  14.174  0.2715 -0.5480 -0.5381
 1587TIP3    H226177   4.920   5.731  14.232 -4.0368 -1.7726 -0.0411
 1588TIP3   OH226178   0.044   6.109   3.130  0.1617  0.6276 -0.3922
 1588TIP3    H126179   0.062   6.170   3.059  0.5699  0.2651 -0.6007
 1588TIP3    H226180   0.047   6.022   3.090 -0.3908  0.4642 -0.0901
 1589TIP3   OH226181   4.381   1.174  14.580 -0.3197  0.7537 -0.0081
 1589TIP3    H126182   4.417   1.108  14.521  0.9710  1.3809  0.0639
 1589TIP3    H226183   4.303   1.131  14.618 -0.4890 -0.0857 -1.2405
 1590TIP3   OH226184   0.298   2.426   3.024  0.1776  0.3584  0.2247
 1590TIP3    H126185   0.320   2.459   2.937  0.7170  0.5278  0.4200
 1590TIP3    H226186   0.369   2.458   3.080 -0.0843  0.1204  0.6968
 1591TIP3   OH226187   4.450   0.111   4.783  0.0424 -0.9144 -0.1755
 1591TIP3    H126188   4.519   0.090   4.720 -1.0204  0.5572 -1.9187
 1591TIP3    H226189   4.381   0.152   4.730 -2.2641 -2.4669  1.4524
 1592TIP3   OH226190   1.464   0.755   0.752  0.2440 -0.2370 -0.2973
 1592TIP3    H126191   1.428   0.808   0.823 -0.6838 -0.4350 -0.6110
 1592TIP3    H226192   1.465   0.666   0.787  0.6099 -0.2092 -0.2283
 1593TIP3   OH226193   3.080   6.417  14.828 -0.3193 -0.0011 -0.3432
 1593TIP3    H126194   3.044   6.432  14.741 -0.0886  0.3157 -0.3855
 1593TIP3    H226195   3.005   6.388  14.880 -0.5791  0.3729 -0.5044
 1594TIP3   OH226196   3.887   6.728  17.230  0.1135  0.0527  0.7324
 1594TIP3    H126197   3.840   6.728  17.147  2.0450 -2.7157 -0.5313
 1594TIP3    H226198   3.831   6.676  17.289 -0.6713  0.9759  0.8299
 1595TIP3   OH226199   5.560   3.901  16.462  0.0453 -0.2838 -0.8532
 1595TIP3    H126200   5.578   3.854  16.543 -1.3834 -2.1327 -1.5396
 1595TIP3    H226201   5.623   3.973  16.462  1.3412 -1.3269  0.9648
 1596TIP3   OH226202   4.715   2.938   2.267  0.3978 -0.1148 -0.3674
 1596TIP3    H126203   4.764   3.019   2.256 -1.7483  1.1067 -1.6257
 1596TIP3    H226204   4.690   2.939   2.360  0.6540  0.5049 -0.2959
 1597TIP3   OH226205   6.160   0.511   3.913 -0.0939 -0.0219 -0.1036
 1597TIP3    H126206   6.143   0.603   3.931 -0.9575 -0.1476 -0.2516
 1597TIP3    H226207   6.221   0.512   3.839  0.6682  0.4382  0.5144
 1598TIP3   OH226208   5.313   3.393  13.657 -0.3177 -0.4209 -0.7346
 1598TIP3    H126209   5.377   3.447  13.703 -0.7076 -0.6970  0.1407
 1598TIP3    H226210   5.366   3.321  13.621  0.0851  0.1348 -1.2852
 1599TIP3   OH226211   5.899   1.718   6.184  0.0984  0.5772  0.0114
 1599TIP3    H126212   5.827   1.708   6.247  0.1543 -0.8737 -0.1342
 1599TIP3    H226213   5.890   1.644   6.124  1.2876  0.7724 -0.4436
 1600TIP3   OH226214   6.183   2.709   2.004 -0.2822  0.1049  0.1278
 1600TIP3    H126215   6.226   2.731   2.087  1.7504 -1.2838 -0.4759
 1600TIP3    H226216   6.247   2.732   1.937 -1.4377  0.1514 -0.9880
 1601TIP3   OH226217   4.250   5.415  14.228 -0.3241 -0.3174 -0.2329
 1601TIP3    H126218   4.266   5.506  14.254  0.5613 -0.0279 -1.7199
 1601TIP3    H226219   4.189   5.421  14.155 -1.9091 -1.0755  0.9503
 1602TIP3   OH226220   2.866   0.764  12.299 -0.2575 -0.0492 -0.2356
 1602TIP3    H126221   2.909   0.689  12.339  0.0974 -0.5567 -1.5023
 1602TIP3    H226222   2.938   0.817  12.263 -0.6014 -0.2379 -1.2404
 1603TIP3   OH226223   2.121   1.102  16.449 -0.3771 -0.0982  0.3464
 1603TIP3    H126224   2.081   1.166  16.508 -0.6459  0.4954 -0.4564
 1603TIP3    H226225   2.207   1.138  16.429  0.3831 -1.1000  1.6287
 1604TIP3   OH226226   4.242   1.430  13.342  0.2282 -0.8885  0.3054
 1604TIP3    H126227   4.186   1.383  13.404 -0.2776 -1.4061 -0.5248
 1604TIP3    H226228   4.234   1.522  13.368 -1.4169 -0.8801 -0.0758
 1605TIP3   OH226229   4.880   1.007   0.700  0.0870  0.3482 -1.0684
 1605TIP3    H126230   4.929   0.925   0.697 -0.9173 -0.3747  0.8286
 1605TIP3    H226231   4.831   1.008   0.618  0.8146 -0.4851 -1.5331
 1606TIP3   OH226232   1.412   1.124  12.458  0.4050  0.7805 -0.5728
 1606TIP3    H126233   1.347   1.066  12.417 -3.0322  3.3232  0.8614
 1606TIP3    H226234   1.407   1.205  12.407  0.5570  1.8927  1.1165
 1607TIP3   OH226235   6.585   2.622  15.670 -0.4873 -0.4627 -0.7509
 1607TIP3    H126236   6.655   2.596  15.609 -0.5464  1.1395 -1.5552
 1607TIP3    H226237   6.510   2.569  15.644 -0.3430 -0.2126 -1.7020
 1608TIP3   OH226238   5.204   3.107  14.873  0.2413  0.0525  0.5379
 1608TIP3    H126239   5.192   3.058  14.792 -1.0426  0.3966  0.5041
 1608TIP3    H226240   5.200   3.040  14.942 -1.0782  0.0315  0.4631
 1609TIP3   OH226241   5.428   3.601   3.423  0.0372  0.0594  0.1805
 1609TIP3    H126242   5.511   3.556   3.408 -0.4389 -0.7388 -0.1055
 1609TIP3    H226243   5.368   3.533   3.451 -1.5366 -0.1412 -3.1796
 1610TIP3   OH226244   5.112   1.946  16.526 -0.3980 -0.1075 -0.1090
 1610TIP3    H126245   5.020   1.936  16.550  0.0086 -1.5337  1.0053
 1610TIP3    H226246   5.113   1.931  16.431 -1.2162 -0.9080 -0.0089
 1611TIP3   OH226247   4.255   4.847   3.133 -0.0728 -0.4150 -0.1335
 1611TIP3    H126248   4.233   4.819   3.222 -1.5488 -2.0928 -0.9605
 1611TIP3    H226249   4.330   4.793   3.110 -1.6544 -2.4027 -0.9819
 1612TIP3   OH226250   2.829   5.247   4.368 -0.7066 -0.2553 -0.3948
 1612TIP3    H126251   2.816   5.153   4.360  0.5460 -0.4166 -0.6425
 1612TIP3    H226252   2.920   5.262   4.342 -0.9332  1.0426 -0.5359
 1613TIP3   OH226253   5.540   2.308   2.170 -0.0772  0.4417  0.6938
 1613TIP3    H126254   5.480   2.372   2.209 -0.5926 -0.2358  1.0317
 1613TIP3    H226255   5.606   2.293   2.238  0.1502  0.7479  0.5436
 1614TIP3   OH226256   2.800   4.992  17.073  0.7839  0.0816  0.3162
 1614TIP3    H126257   2.738   5.063  17.055 -0.3921 -0.8229  0.6735
 1614TIP3    H226258   2.877   5.013  17.019  0.2464  1.3186 -0.0043
 1615TIP3   OH226259   0.795   2.465   3.831  0.5637  0.7303  0.3272
 1615TIP3    H126260   0.781   2.545   3.780  1.1261  0.0458 -0.9562
 1615TIP3    H226261   0.830   2.496   3.914  1.9581  1.7825 -0.5919
 1616TIP3   OH226262   4.166   5.351   0.849 -0.8131 -0.2419  0.1831
 1616TIP3    H126263   4.195   5.383   0.934  0.1336 -1.2229  0.2508
 1616TIP3    H226264   4.136   5.429   0.803 -1.8160  0.2384  1.5788
 1617TIP3   OH226265   1.658   0.198   4.206 -0.5345  0.6129  0.4277
 1617TIP3    H126266   1.723   0.256   4.246  0.5086 -0.1327 -0.1237
 1617TIP3    H226267   1.577   0.217   4.253 -0.4784  3.1941 -0.3511
 1618TIP3   OH226268   6.579   6.388  15.578 -0.0998  0.3862 -0.5904
 1618TIP3    H126269   6.567   6.477  15.545  0.5266  0.2072 -1.3210
 1618TIP3    H226270   6.615   6.340  15.504 -0.8214 -0.5869 -0.3319
 1619TIP3   OH226271   6.044   0.376  13.177 -0.5156 -0.4249  0.1866
 1619TIP3    H126272   6.002   0.461  13.161 -1.1381 -1.0038 -1.4125
 1619TIP3    H226273   5.972   0.317  13.196 -0.2213 -0.9190 -0.2117
 1620TIP3   OH226274   5.013   0.631  16.274 -0.4371  0.1469 -0.0169
 1620TIP3    H126275   5.015   0.581  16.192 -0.1721 -2.5226  1.4975
 1620TIP3    H226276   4.923   0.622  16.305 -1.2015  3.1197 -1.0202
 1621TIP3   OH226277   3.130   1.599   5.118  1.5971  0.2098 -0.0064
 1621TIP3    H126278   3.073   1.569   5.048  0.9059  0.6655  0.3475
 1621TIP3    H226279   3.080   1.584   5.198  1.8829  0.7972  0.2942
 1622TIP3   OH226280   3.992   3.316  12.492 -0.2126  0.2681 -0.2088
 1622TIP3    H126281   4.000   3.306  12.397 -0.6126  1.0855 -0.3393
 1622TIP3    H226282   4.072   3.276  12.527 -0.8679 -1.6138 -0.7655
 1623TIP3   OH226283   2.912   6.071   2.608  0.0400 -0.2716  0.0881
 1623TIP3    H126284   2.862   6.086   2.529 -1.2829  2.2132  1.3054
 1623TIP3    H226285   2.975   6.143   2.612 -1.0632  0.6749  2.0859
 1624TIP3   OH226286   3.189   4.687  14.057 -0.1844 -0.0646 -0.1965
 1624TIP3    H126287   3.259   4.716  13.999 -0.0696  1.3518  0.6002
 1624TIP3    H226288   3.142   4.767  14.081 -1.8102 -0.9280 -0.3490
 1625TIP3   OH226289   0.515   2.523  15.488 -0.0000 -0.2276  0.3976
 1625TIP3    H126290   0.514   2.464  15.413  0.1247  1.8819 -1.3612
 1625TIP3    H226291   0.458   2.481  15.552 -0.5640 -1.8356 -1.0804
 1626TIP3   OH226292   6.019   0.257   4.658 -0.7625 -0.7454  0.3854
 1626TIP3    H126293   5.937   0.224   4.695 -2.2761  1.1919 -1.0294
 1626TIP3    H226294   6.040   0.334   4.711  0.1812 -1.2449  0.7569
 1627TIP3   OH226295   4.456   3.032  11.029 -0.5259  0.1593 -0.0752
 1627TIP3    H126296   4.474   3.089  11.103 -0.8043 -1.6259  1.4324
 1627TIP3    H226297   4.371   2.993  11.048 -1.5721  1.1309 -2.3403
 1628TIP3   OH226298   1.320   4.336   0.872  0.7766 -0.8414 -0.0291
 1628TIP3    H126299   1.250   4.305   0.814  1.9628  1.0677 -2.6882
 1628TIP3    H226300   1.274   4.384   0.941 -0.6174 -0.2717 -1.2834
 1629TIP3   OH226301   6.276   0.969   3.039  0.2772 -0.1997  0.4804
 1629TIP3    H126302   6.285   0.875   3.024 -0.4956 -0.2722  0.4216
 1629TIP3    H226303   6.192   0.978   3.084  2.3949 -0.0286  5.0210
 1630TIP3   OH226304   1.020   2.106   5.799  0.5866 -0.7560 -0.1470
 1630TIP3    H126305   1.016   2.011   5.798 -1.7086 -0.7227 -0.2546
 1630TIP3    H226306   0.928   2.134   5.794  1.2523  1.4812 -3.4145
 1631TIP3   OH226307   6.727   3.433   6.547 -0.3211  0.0528 -0.3954
 1631TIP3    H126308   6.811   3.387   6.553  0.6410  1.8005  0.1284
 1631TIP3    H226309   6.719   3.480   6.630 -1.6232  0.2777 -0.6207
 1632TIP3   OH226310   3.541   1.897  15.747  0.0811  0.1518  0.2128
 1632TIP3    H126311   3.565   1.950  15.671 -1.1621  0.9337  0.3457
 1632TIP3    H226312   3.566   1.950  15.822  0.5729 -0.2861  0.3720
 1633TIP3   OH226313   4.230   4.945   3.693 -0.4050 -0.2156  0.0365
 1633TIP3    H126314   4.242   4.953   3.788 -0.4386  0.5040 -0.0176
 1633TIP3    H226315   4.214   4.851   3.679  0.4600 -0.4679  0.6432
 1634TIP3   OH226316   5.074   1.292  16.042 -1.0774  0.1539 -0.1512
 1634TIP3    H126317   5.113   1.268  15.958 -1.3861  0.0431 -0.2642
 1634TIP3    H226318   5.004   1.229  16.055 -1.4250  0.5418 -0.1061
 1635TIP3   OH226319   5.951   6.308   2.893  0.1060  0.3019  0.2408
 1635TIP3    H126320   5.875   6.288   2.948  0.0893  1.3677  0.6354
 1635TIP3    H226321   5.939   6.255   2.814 -0.7599  0.0485  0.5359
 1636TIP3   OH226322   5.379   4.307  16.244 -0.4989  0.2570  0.0713
 1636TIP3    H126323   5.441   4.354  16.188  1.9412 -0.8588  1.6719
 1636TIP3    H226324   5.409   4.216  16.242 -1.5731 -0.1667  1.5844
 1637TIP3   OH226325   2.475   0.027   1.801  0.5108 -0.2090 -0.7511
 1637TIP3    H126326   2.395  -0.011   1.765 -1.5930  2.3866  0.8186
 1637TIP3    H226327   2.482  -0.011   1.889  1.0590 -0.4774 -0.9063
 1638TIP3   OH226328   6.304   3.204   2.728  0.8766  0.6848  0.4310
 1638TIP3    H126329   6.222   3.154   2.727  0.3577  1.4131  2.0767
 1638TIP3    H226330   6.372   3.140   2.707 -0.0197 -0.1302 -0.0685
 1639TIP3   OH226331   0.604   5.790   3.277 -0.1409 -0.2430  0.1647
 1639TIP3    H126332   0.643   5.808   3.192 -1.0510  2.0846  0.1754
 1639TIP3    H226333   0.679   5.778   3.336  0.4889 -1.0364 -0.7716
 1640TIP3   OH226334   4.442   5.666   0.038 -0.4562  0.1494  0.0416
 1640TIP3    H126335   4.451   5.674   0.133  1.3886 -0.3082 -0.0560
 1640TIP3    H226336   4.503   5.596   0.014  0.2728  1.3094 -1.6537
 1641TIP3   OH226337   0.970   4.007   1.051  0.0755  0.0949  0.6719
 1641TIP3    H126338   0.978   4.081   1.111  0.8896 -2.5716  4.1676
 1641TIP3    H226339   0.892   3.960   1.081 -0.5778 -0.4464 -1.6233
 1642TIP3   OH226340   6.417   3.804  14.458  0.1213  0.5622  0.2409
 1642TIP3    H126341   6.330   3.796  14.497 -0.3932  2.4456 -0.4308
 1642TIP3    H226342   6.442   3.714  14.438 -2.3540  0.0510 -0.9578
 1643TIP3   OH226343   5.517   6.370  14.492  0.4399 -0.3052  0.4904
 1643TIP3    H126344   5.566   6.423  14.430 -2.2821  0.5911 -1.0993
 1643TIP3    H226345   5.511   6.424  14.571  0.0731  0.5635 -0.1185
 1644TIP3   OH226346   4.766   4.514  15.294  0.5075  0.4235 -0.0363
 1644TIP3    H126347   4.807   4.595  15.324  1.3571 -0.5025  1.4426
 1644TIP3    H226348   4.827   4.478  15.229  1.0442  0.0981  0.6290
 1645TIP3   OH226349   2.189   5.565   0.404 -0.0117 -0.4078  0.5771
 1645TIP3    H126350   2.274   5.593   0.370  0.2786  0.7493  2.1424
 1645TIP3    H226351   2.195   5.469   0.407 -0.5016 -0.7730 -3.5356
 1646TIP3   OH226352   1.907   1.303  11.936  0.7354  0.2764  0.5914
 1646TIP3    H126353   2.001   1.319  11.946  0.6618  3.0114 -1.8333
 1646TIP3    H226354   1.902   1.218  11.893  2.2838  1.0531 -1.2603
 1647TIP3   OH226355   4.808   5.118  15.341  0.0739  0.5703  0.7279
 1647TIP3    H126356   4.800   5.206  15.303 -1.5339 -0.0816 -0.5421
 1647TIP3    H226357   4.829   5.134  15.433 -0.3139  2.2927  0.5578
 1648TIP3   OH226358   6.535   6.180   2.237 -0.6613  0.0193 -0.0217
 1648TIP3    H126359   6.465   6.214   2.181  0.1502 -1.0083 -1.7506
 1648TIP3    H226360   6.615   6.197   2.187  0.0876 -0.9796  0.8020
 1649TIP3   OH226361   5.194   6.603  16.978  0.3671 -0.3446  0.5719
 1649TIP3    H126362   5.245   6.627  17.056  1.5033 -0.5341 -0.0900
 1649TIP3    H226363   5.136   6.678  16.964 -0.3406 -0.5959  1.9805
 1650TIP3   OH226364   0.892   4.830  12.419 -0.1293  0.4727  0.2058
 1650TIP3    H126365   0.850   4.787  12.494 -1.3788  2.3285  0.6354
 1650TIP3    H226366   0.892   4.763  12.351 -2.1189 -0.2252  0.8079
 1651TIP3   OH226367   4.119   0.889  15.688  0.4741 -0.1125  0.1343
 1651TIP3    H126368   4.128   0.906  15.595 -2.6783 -1.4999 -0.5749
 1651TIP3    H226369   4.116   0.976  15.728  2.4130  0.4917 -0.9310
 1652TIP3   OH226370   4.779   1.495  11.214  0.0192 -0.3027 -0.1458
 1652TIP3    H126371   4.738   1.574  11.178  0.1275 -0.4934 -0.6997
 1652TIP3    H226372   4.709   1.451  11.262 -0.1443 -0.0735 -0.1726
 1653TIP3   OH226373   3.367   3.922  13.788 -0.0684  0.4014  0.0598
 1653TIP3    H126374   3.389   4.010  13.757  0.8820  0.9736  2.1895
 1653TIP3    H226375   3.307   3.937  13.862  1.9028 -0.5459  1.9628
 1654TIP3   OH226376   0.191   3.372   4.871 -0.1442  0.5262  0.5670
 1654TIP3    H126377   0.196   3.369   4.967 -2.5519  0.9573  0.7576
 1654TIP3    H226378   0.279   3.399   4.844  1.3687 -1.9679  2.4698
 1655TIP3   OH226379   1.440   6.395   5.457 -0.1699 -0.1191  0.2057
 1655TIP3    H126380   1.481   6.314   5.487 -0.7789 -0.8896 -0.9838
 1655TIP3    H226381   1.496   6.424   5.384 -0.8546 -0.3358 -0.4101
 1656TIP3   OH226382   5.693   2.522   4.939  0.1583 -0.6886  0.7482
 1656TIP3    H126383   5.627   2.476   4.886 -1.1237 -0.2437  1.8881
 1656TIP3    H226384   5.733   2.453   4.992  2.5426 -1.4073 -1.7435
 1657TIP3   OH226385   4.688   1.185  12.608 -0.1109  0.2231 -0.2099
 1657TIP3    H126386   4.615   1.126  12.631  1.5347 -1.9991 -0.3638
 1657TIP3    H226387   4.763   1.150  12.656  0.9935  2.1526 -0.4476
 1658TIP3   OH226388   6.576   5.827  11.744  0.5345  0.6096 -0.2426
 1658TIP3    H126389   6.570   5.895  11.677  1.3716 -0.1312 -1.0897
 1658TIP3    H226390   6.616   5.753  11.700  0.0674 -0.2866  0.7961
 1659TIP3   OH226391   6.366   4.294   4.414 -0.3268  0.0684  0.5528
 1659TIP3    H126392   6.349   4.376   4.461  0.7500  0.2891  0.5897
 1659TIP3    H226393   6.400   4.323   4.329  1.9773 -0.3087  1.2886
 1660TIP3   OH226394   5.700   2.550  15.760  0.6873 -0.2925 -0.4066
 1660TIP3    H126395   5.741   2.636  15.760  1.7992 -0.8119 -0.6516
 1660TIP3    H226396   5.626   2.559  15.699 -0.0740  0.8571  0.6357
 1661TIP3   OH226397   2.702   4.475   6.119  0.3601  0.1628  0.5016
 1661TIP3    H126398   2.763   4.411   6.156  1.6291  0.8534 -0.3364
 1661TIP3    H226399   2.717   4.555   6.169 -0.1569  0.2357  0.5515
 1662TIP3   OH226400   2.130   4.595  15.550  0.5810  0.5037 -0.2607
 1662TIP3    H126401   2.057   4.607  15.610 -0.4457  0.9346 -1.5453
 1662TIP3    H226402   2.118   4.664  15.485  0.3862 -1.2631 -2.1878
 1663TIP3   OH226403   1.876   3.244   5.137  0.7497 -0.0700  0.4326
 1663TIP3    H126404   1.966   3.245   5.103  0.6194  1.4834  0.0465
 1663TIP3    H226405   1.887   3.232   5.232  1.5116  1.8197  0.6435
 1664TIP3   OH226406   3.731   3.788  15.431 -0.0300 -0.0511  0.0514
 1664TIP3    H126407   3.780   3.858  15.389  3.7149 -1.4260  1.6646
 1664TIP3    H226408   3.673   3.832  15.493  0.5639  1.6547 -0.5672
 1665TIP3   OH226409   6.070   5.543  14.750  0.2839  0.6354  0.0544
 1665TIP3    H126410   6.025   5.522  14.668  1.1756 -1.6631  0.0901
 1665TIP3    H226411   6.028   5.623  14.780 -1.7718  0.1803 -1.3790
 1666TIP3   OH226412   5.469   1.768   4.730 -0.5526  0.2498  0.2176
 1666TIP3    H126413   5.416   1.753   4.651  0.2038 -0.0793 -0.2349
 1666TIP3    H226414   5.449   1.693   4.786  0.3887 -0.5525 -0.4874
 1667TIP3   OH226415   3.365   0.228   4.504 -0.4279  0.9353 -0.5226
 1667TIP3    H126416   3.303   0.267   4.565  0.6132  1.0413  0.4927
 1667TIP3    H226417   3.406   0.157   4.553 -0.0478  0.5796 -1.3275
 1668TIP3   OH226418   6.582   4.956  11.325  0.0991  0.0341 -0.4261
 1668TIP3    H126419   6.496   4.943  11.365  0.2422  1.0374  0.2423
 1668TIP3    H226420   6.635   4.883  11.358  0.4340  1.2474  1.9108
 1669TIP3   OH226421   2.367   6.728  14.795 -0.1024  0.4076  0.3698
 1669TIP3    H126422   2.303   6.741  14.725  1.0691 -0.1057 -0.8354
 1669TIP3    H226423   2.445   6.775  14.765  0.8045 -0.7984  0.7662
 1670TIP3   OH226424   5.973   1.784   0.889 -0.3366  0.1094 -0.0730
 1670TIP3    H126425   5.914   1.769   0.816 -1.7883  1.5494  0.7464
 1670TIP3    H226426   6.028   1.858   0.862  0.6643 -0.7672 -0.5430
 1671TIP3   OH226427   0.820   0.962   6.537  0.4453  0.0720 -0.1394
 1671TIP3    H126428   0.795   1.032   6.478  0.0375 -1.2508 -1.6032
 1671TIP3    H226429   0.866   1.006   6.608 -1.7650  2.0576  0.1822
 1672TIP3   OH226430   3.559   3.655   1.730  0.0077 -0.0090 -1.1609
 1672TIP3    H126431   3.556   3.584   1.666  1.9662 -1.2947  0.0661
 1672TIP3    H226432   3.617   3.623   1.799 -1.8221  1.3909  1.1925
 1673TIP3   OH226433   1.930   6.439  11.920 -0.6431 -0.2379 -0.1987
 1673TIP3    H126434   1.843   6.446  11.958 -1.1518 -3.6610 -0.4572
 1673TIP3    H226435   1.925   6.366  11.859  2.3719 -0.4568 -0.3717
 1674TIP3   OH226436   0.363   1.111  13.774 -0.2508  0.2054  0.0830
 1674TIP3    H126437   0.338   1.152  13.858  2.7050  1.0497  0.6807
 1674TIP3    H226438   0.454   1.086  13.787  0.4784  0.8840 -3.0927
 1675TIP3   OH226439   0.863   4.163  15.567 -0.3922  0.5444 -0.3397
 1675TIP3    H126440   0.942   4.202  15.531 -0.3279  0.0189 -0.7899
 1675TIP3    H226441   0.796   4.230  15.556  0.3232  1.6484  1.5810
 1676TIP3   OH226442   1.211   6.683   4.222 -0.3688  0.1752 -0.1733
 1676TIP3    H126443   1.228   6.612   4.161 -0.1836 -1.1792  1.3871
 1676TIP3    H226444   1.224   6.644   4.309 -1.3550  1.8253  0.7680
 1677TIP3   OH226445   2.662   4.984  14.866 -0.0136  0.1595  0.2960
 1677TIP3    H126446   2.569   4.993  14.846 -0.1198  1.7760  1.3131
 1677TIP3    H226447   2.698   4.933  14.793 -1.4911  0.4675 -0.6828
 1678TIP3   OH226448   4.602   0.312   1.642 -0.3954 -0.3949  0.0425
 1678TIP3    H126449   4.571   0.321   1.552  0.5555 -0.4304 -0.2941
 1678TIP3    H226450   4.524   0.331   1.696 -0.7137  0.6964 -0.7644
 1679TIP3   OH226451   1.042   1.736  14.496  0.0141  0.1326 -0.1392
 1679TIP3    H126452   1.080   1.661  14.541  0.2200  0.1110 -0.3395
 1679TIP3    H226453   1.035   1.804  14.562  0.0155 -0.0004 -0.0036
 1680TIP3   OH226454   3.776   6.704  11.841 -0.0124 -0.2618  0.5910
 1680TIP3    H126455   3.853   6.691  11.786  0.1210  0.4716  0.5932
 1680TIP3    H226456   3.794   6.652  11.920  0.4529 -0.1446  0.5658
 1681TIP3   OH226457   3.714   4.384  16.553  0.1221  0.0538  0.0056
 1681TIP3    H126458   3.687   4.446  16.486 -1.9517  2.5447  2.8522
 1681TIP3    H226459   3.795   4.420  16.589 -0.9009  1.0431  1.4309
 1682TIP3   OH226460   3.335   0.113  12.470 -0.1712  0.0437 -0.3009
 1682TIP3    H126461   3.329   0.202  12.504 -0.9029  0.4072 -1.3367
 1682TIP3    H226462   3.411   0.115  12.411 -0.6858  0.2087 -0.9631
 1683TIP3   OH226463   4.464   0.731   0.210  0.6722  0.5553 -0.6488
 1683TIP3    H126464   4.541   0.780   0.181  0.6055 -0.5143 -2.8352
 1683TIP3    H226465   4.445   0.671   0.138 -2.4677  1.0923 -0.4204
 1684TIP3   OH226466   1.074   6.670   1.520  0.1468 -0.3163 -0.1746
 1684TIP3    H126467   1.105   6.754   1.556  1.3524 -0.2545 -1.2868
 1684TIP3    H226468   1.058   6.688   1.427  0.8412 -1.4066 -0.5288
 1685TIP3   OH226469   1.165   2.164   4.982 -0.0025  0.3432  0.0172
 1685TIP3    H126470   1.166   2.260   4.976 -1.7350  0.3173 -2.4234
 1685TIP3    H226471   1.222   2.136   4.910  1.1240 -0.5129  1.1994
 1686TIP3   OH226472   6.492   4.032  12.931  0.1223 -0.5949 -0.4502
 1686TIP3    H126473   6.455   3.951  12.964  1.6205 -0.6687  1.1888
 1686TIP3    H226474   6.521   4.010  12.842  1.8846 -2.3618  0.4842
 1687TIP3   OH226475   4.396   0.683  10.636 -0.3694 -0.4630 -0.1563
 1687TIP3    H126476   4.339   0.625  10.585 -0.3295 -1.4096  0.8562
 1687TIP3    H226477   4.336   0.733  10.692 -0.4367  0.7663 -1.2646
 1688TIP3   OH226478   1.226   1.597   4.931 -0.1223  0.0032  0.0045
 1688TIP3    H126479   1.187   1.663   4.988  0.0901  1.8481 -1.8724
 1688TIP3    H226480   1.302   1.640   4.892 -0.0139 -1.2969 -1.3305
 1689TIP3   OH226481   2.079   1.638  12.730  0.5227  0.1707  0.2442
 1689TIP3    H126482   2.090   1.638  12.825  0.8759 -0.6163  0.2026
 1689TIP3    H226483   2.011   1.573  12.714  1.8985 -1.2064 -0.2000
 1690TIP3   OH226484   0.114   6.358   0.404 -0.3407  0.3598 -0.2373
 1690TIP3    H126485   0.107   6.299   0.479  1.1422  2.5803  1.8138
 1690TIP3    H226486   0.032   6.345   0.356 -1.6796 -0.7280  2.1293
 1691TIP3   OH226487   4.433   5.855  13.734  0.4530  0.2024  0.4616
 1691TIP3    H126488   4.463   5.945  13.747  3.4340 -0.3408 -1.6271
 1691TIP3    H226489   4.414   5.849  13.640 -0.3286 -1.2034  0.6795
 1692TIP3   OH226490   3.530   0.087   2.856  0.1503 -0.1566 -0.3892
 1692TIP3    H126491   3.521   0.006   2.807 -3.4688  0.7524 -1.5727
 1692TIP3    H226492   3.478   0.073   2.935  1.6881  0.1816  0.7365
 1693TIP3   OH226493   4.567   6.185   2.416 -0.2660  0.3224 -0.7296
 1693TIP3    H126494   4.609   6.242   2.352 -1.0047  1.7259 -0.0121
 1693TIP3    H226495   4.524   6.117   2.364  0.3040  0.6371 -1.6288
 1694TIP3   OH226496   1.151   2.289  13.609 -0.3124  0.5369  0.1732
 1694TIP3    H126497   1.155   2.340  13.690  1.0637  1.5795 -0.5024
 1694TIP3    H226498   1.226   2.230  13.614 -1.1351 -0.5207  0.3501
 1695TIP3   OH226499   4.272   5.801   1.129 -0.6485 -0.3917  0.0205
 1695TIP3    H126500   4.266   5.707   1.149 -0.8806 -0.4720 -0.4204
 1695TIP3    H226501   4.247   5.808   1.037 -2.5424  0.3241  0.5476
 1696TIP3   OH226502   2.697   0.723  15.026 -0.4161 -0.4211 -0.5126
 1696TIP3    H126503   2.697   0.745  15.119 -0.0912 -3.3779  0.2698
 1696TIP3    H226504   2.640   0.647  15.018 -0.7432 -0.0164 -2.8185
 1697TIP3   OH226505   6.064   4.732   3.583 -0.1655  0.4437  0.2368
 1697TIP3    H126506   5.971   4.724   3.603 -0.5795  0.4955 -1.5272
 1697TIP3    H226507   6.075   4.824   3.559  0.4167  0.5050  0.7219
 1698TIP3   OH226508   0.632   3.367   0.036 -0.1363  0.6176  0.0513
 1698TIP3    H126509   0.629   3.352   0.130 -1.1796  0.0174 -0.0593
 1698TIP3    H226510   0.679   3.291   0.001 -0.8770  0.1821 -0.0218
 1699TIP3   OH226511   1.741   0.936   1.139 -0.2170  0.0657  0.3811
 1699TIP3    H126512   1.819   0.976   1.178 -0.6281  0.9523  0.3106
 1699TIP3    H226513   1.727   0.984   1.058  0.1871 -1.2724 -0.5124
 1700TIP3   OH226514   2.507   6.173  11.439  0.2358 -0.1371  0.1347
 1700TIP3    H126515   2.440   6.180  11.507  1.1010  0.4312  0.9531
 1700TIP3    H226516   2.479   6.235  11.372  0.1732  0.4401  0.6818
 1701TIP3   OH226517   6.770   0.266  14.846 -0.5567 -0.6525  0.1361
 1701TIP3    H126518   6.780   0.195  14.909  3.8384 -0.6654 -0.2276
 1701TIP3    H226519   6.749   0.343  14.899  0.3875 -1.1845  1.3258
 1702TIP3   OH226520   1.493   3.421   4.367 -0.3870  1.0482  0.6620
 1702TIP3    H126521   1.584   3.412   4.396  0.1048 -0.6944 -1.1854
 1702TIP3    H226522   1.495   3.397   4.275 -3.1306 -1.8225  1.1832
 1703TIP3   OH226523   1.164   4.903   4.570  0.4382  0.4604  0.6283
 1703TIP3    H126524   1.255   4.931   4.574  0.2479  1.0212  3.6075
 1703TIP3    H226525   1.159   4.844   4.495  3.3128  0.1053  0.6407
 1704TIP3   OH226526   2.669   6.643  12.335 -0.6293 -0.0383  0.4524
 1704TIP3    H126527   2.673   6.694  12.416 -2.0236  0.5144  0.1934
 1704TIP3    H226528   2.578   6.617  12.327 -0.8657  1.1879 -1.6954
 1705TIP3   OH226529   4.952   1.284  11.175  0.0657  0.1391 -0.0273
 1705TIP3    H126530   4.883   1.350  11.180  0.1977  0.5956 -2.7778
 1705TIP3    H226531   5.028   1.324  11.217 -0.9160  0.1493  1.8337
 1706TIP3   OH226532   1.596   1.749  16.580 -0.6433  0.2283  0.0276
 1706TIP3    H126533   1.675   1.787  16.543  0.5249 -1.0485  1.1116
 1706TIP3    H226534   1.625   1.707  16.661 -2.1802 -1.4251 -0.2047
 1707TIP3   OH226535   2.146   1.585  14.964 -0.2643 -0.0069  0.2878
 1707TIP3    H126536   2.173   1.494  14.950 -2.4169 -0.6223 -0.2880
 1707TIP3    H226537   2.136   1.592  15.059 -0.2608 -0.4398  0.3231
 1708TIP3   OH226538   5.627   4.703   4.941 -0.0443 -0.3133 -0.4230
 1708TIP3    H126539   5.569   4.771   4.973 -0.0754  0.1223 -1.3988
 1708TIP3    H226540   5.604   4.626   4.993 -0.1435  0.3553  0.5469
 1709TIP3   OH226541   3.200   4.545  13.072 -0.1284 -0.1935  0.3661
 1709TIP3    H126542   3.263   4.570  13.004 -0.0783  0.5045  0.6625
 1709TIP3    H226543   3.235   4.463  13.108  0.8760  0.4208  0.8380
 1710TIP3   OH226544   1.532   0.783  14.795  0.2931  0.8628  0.3827
 1710TIP3    H126545   1.616   0.794  14.750  1.1686 -1.3072  1.3448
 1710TIP3    H226546   1.521   0.864  14.844  0.4973  2.2828 -1.7530
 1711TIP3   OH226547   2.109   0.402  17.309 -0.1171  0.9170  0.4495
 1711TIP3    H126548   2.099   0.388  17.215 -1.7084  0.8540  0.6041
 1711TIP3    H226549   2.177   0.470  17.317 -0.5828  1.5416 -0.7659
 1712TIP3   OH226550   6.327   5.737   6.261  0.0349 -0.2778  0.2953
 1712TIP3    H126551   6.253   5.793   6.238 -0.9048 -1.7881 -0.5268
 1712TIP3    H226552   6.403   5.784   6.229 -0.5965  1.1418  0.8244
 1713TIP3   OH226553   5.101   4.504   4.034  0.0988 -0.9077 -0.1864
 1713TIP3    H126554   5.018   4.481   4.076 -0.3679 -1.2631 -1.2530
 1713TIP3    H226555   5.102   4.599   4.033  0.1804 -0.8935  0.7316
 1714TIP3   OH226556   4.305   2.994  16.308 -0.1234  0.4452 -0.5970
 1714TIP3    H126557   4.282   3.016  16.217 -1.6383 -1.2811 -0.6991
 1714TIP3    H226558   4.249   2.919  16.329  1.2340 -0.1121  1.2980
 1715TIP3   OH226559   4.081   1.557   0.419 -0.2004  0.1340 -0.1701
 1715TIP3    H126560   4.117   1.574   0.506 -1.1913  0.8910  0.1148
 1715TIP3    H226561   4.010   1.495   0.434 -1.6124  1.6837 -0.1442
 1716TIP3   OH226562   3.928   2.543   1.065  0.8033 -0.5801  0.0496
 1716TIP3    H126563   3.972   2.460   1.083  0.2854 -1.0047 -0.5885
 1716TIP3    H226564   3.949   2.562   0.974  0.8720 -0.0341  0.1755
 1717TIP3   OH226565   6.498   0.996   2.889 -0.0300  0.2858  0.5991
 1717TIP3    H126566   6.411   0.994   2.929 -0.6881  1.8583 -0.6447
 1717TIP3    H226567   6.497   1.073   2.833  2.0348  0.0894  0.2089
 1718TIP3   OH226568   4.871   3.538  14.550  0.2860  0.0233  0.1314
 1718TIP3    H126569   4.781   3.514  14.528  0.1798 -2.2616  2.5434
 1718TIP3    H226570   4.925   3.470  14.509  0.5686 -0.6797  1.6172
 1719TIP3   OH226571   6.653   6.654  15.461  0.3208 -0.5388 -0.0634
 1719TIP3    H126572   6.598   6.697  15.395  1.6020  1.2245 -0.0588
 1719TIP3    H226573   6.741   6.657  15.424  1.2821  1.5219  2.1226
 1720TIP3   OH226574   3.907   0.320   0.782  0.0402 -0.3386  0.1000
 1720TIP3    H126575   3.897   0.226   0.800 -4.0408 -0.2884 -1.0318
 1720TIP3    H226576   3.947   0.323   0.695  1.1558 -0.9560  0.5672
 1721TIP3   OH226577   0.567   0.471  12.273 -0.4312  0.6056 -0.6101
 1721TIP3    H126578   0.599   0.381  12.285 -0.9652  0.6072  1.0991
 1721TIP3    H226579   0.643   0.519  12.243  0.4856  0.0246  0.6680
 1722TIP3   OH226580   6.007   4.256  15.682  0.1536 -0.0548 -0.3810
 1722TIP3    H126581   6.065   4.251  15.606 -0.8183 -1.1715 -1.0856
 1722TIP3    H226582   5.931   4.304  15.651 -0.6913 -1.3769 -0.4483
 1723TIP3   OH226583   2.913   0.903   5.446  0.2364 -0.1199  0.4198
 1723TIP3    H126584   2.968   0.853   5.506  1.0678 -0.6119 -0.7106
 1723TIP3    H226585   2.966   0.912   5.367 -1.0904 -0.1112 -0.5037
 1724TIP3   OH226586   5.328   5.653  15.882  0.2744  0.2599  0.2427
 1724TIP3    H126587   5.397   5.588  15.893 -0.4874 -1.2410 -2.8397
 1724TIP3    H226588   5.288   5.660  15.969  1.5626 -1.9876  1.1072
 1725TIP3   OH226589   5.896   2.698  11.176 -0.1539  0.5508 -0.1979
 1725TIP3    H126590   5.930   2.612  11.152 -0.4168  0.2733  0.3980
 1725TIP3    H226591   5.878   2.691  11.270  0.2744  1.4026 -0.0383
 1726TIP3   OH226592   4.099   2.140   0.241  0.4703  0.5474 -0.3532
 1726TIP3    H126593   4.097   2.158   0.335 -2.0630 -4.3303  0.8878
 1726TIP3    H226594   4.029   2.193   0.205  0.4030  1.2815  0.7983
 1727TIP3   OH226595   0.286   3.223   1.377 -0.0320  0.0921  0.4361
 1727TIP3    H126596   0.283   3.174   1.459 -0.0415 -0.2566  0.2278
 1727TIP3    H226597   0.367   3.195   1.335  0.3623  0.8447  0.6811
 1728TIP3   OH226598   5.198   3.104   2.368 -0.3067  0.0936 -0.0902
 1728TIP3    H126599   5.192   3.055   2.287  0.3774  2.1929 -1.5027
 1728TIP3    H226600   5.292   3.109   2.386 -0.4739 -0.7496  1.1073
 1729TIP3   OH226601   6.540   6.480  13.504 -0.1587  0.1962 -0.1538
 1729TIP3    H126602   6.581   6.470  13.590 -1.3084 -2.8183  0.1643
 1729TIP3    H226603   6.612   6.477  13.442  0.6029  1.5035  0.6210
 1730TIP3   OH226604   0.707   0.944  15.330  0.3407 -0.1202 -0.0035
 1730TIP3    H126605   0.695   1.017  15.391 -0.1725  0.3727 -0.6813
 1730TIP3    H226606   0.751   0.984  15.254 -0.3817 -0.4145 -0.5810
 1731TIP3   OH226607   5.770   3.755   5.818 -0.1865  0.0718  0.5887
 1731TIP3    H126608   5.803   3.749   5.908  1.1089 -1.8564  0.0445
 1731TIP3    H226609   5.699   3.692   5.815  0.7047 -0.9365 -0.0784
 1732TIP3   OH226610   0.324   4.759  13.927 -0.2746 -0.5168 -0.2632
 1732TIP3    H126611   0.294   4.740  14.016  0.1448  0.2340  0.0425
 1732TIP3    H226612   0.386   4.830  13.937 -3.0435  2.3209 -1.5470
 1733TIP3   OH226613   1.575   1.027   6.270  0.5781  0.2806 -0.3706
 1733TIP3    H126614   1.562   1.066   6.356  0.8705 -0.7142  0.1449
 1733TIP3    H226615   1.623   0.946   6.288 -1.8359 -1.4383 -1.1496
 1734TIP3   OH226616   1.099   1.942   1.710  0.4136 -0.2293 -1.2002
 1734TIP3    H126617   1.116   2.030   1.677  1.3765 -0.3272 -0.9922
 1734TIP3    H226618   1.044   1.901   1.643 -1.5821  1.0995 -0.4654
 1735TIP3   OH226619   3.860   4.163  11.167  0.8932  0.0439 -0.1647
 1735TIP3    H126620   3.823   4.083  11.130 -0.8587  1.6197 -2.0708
 1735TIP3    H226621   3.953   4.158  11.148  0.7486 -1.3175 -0.6205
 1736TIP3   OH226622   4.526   6.562   3.406  0.1574 -0.0375  0.7606
 1736TIP3    H126623   4.594   6.494   3.399  0.6625  0.3767  1.4828
 1736TIP3    H226624   4.520   6.579   3.500 -1.1737 -0.2740  0.7356
 1737TIP3   OH226625   0.093   2.046   2.725 -0.3076  0.3384  0.2363
 1737TIP3    H126626   0.137   2.129   2.706 -1.2877  0.1425 -3.7765
 1737TIP3    H226627  -0.000   2.067   2.721 -0.6090 -0.4976  1.9985
 1738TIP3   OH226628   1.631   1.126  15.395  0.2373 -0.0317  0.4885
 1738TIP3    H126629   1.660   1.036  15.412 -1.9167 -1.0046 -0.5204
 1738TIP3    H226630   1.695   1.161  15.334  0.1484 -1.5634 -0.5348
 1739TIP3   OH226631   6.217   2.998  13.552  0.1259 -0.1455 -0.1587
 1739TIP3    H126632   6.155   3.004  13.625 -0.3094 -0.9520 -0.4496
 1739TIP3    H226633   6.237   3.089  13.530 -0.7342  0.1185  0.1288
 1740TIP3   OH226634   4.705   5.594   0.941 -0.0589 -0.4592  0.6491
 1740TIP3    H126635   4.758   5.517   0.919  0.5485 -0.3286  1.5562
 1740TIP3    H226636   4.694   5.588   1.036  0.4893  0.8722  0.8200
 1741TIP3   OH226637   6.569   3.740   0.111 -0.0199 -0.0867  0.3301
 1741TIP3    H126638   6.659   3.734   0.078 -0.9061  1.0091 -2.6688
 1741TIP3    H226639   6.539   3.826   0.083 -2.0453 -0.4577  1.1710
 1742TIP3   OH226640   3.775   0.812  14.986  0.7025  0.5294 -0.0243
 1742TIP3    H126641   3.709   0.765  14.935 -0.9471  3.2707 -0.5914
 1742TIP3    H226642   3.841   0.838  14.922  1.1574 -0.2047  0.1354
 1743TIP3   OH226643   5.296   3.502   0.389  0.6271 -0.5722 -0.0956
 1743TIP3    H126644   5.312   3.568   0.456  0.2596 -1.0165  0.4446
 1743TIP3    H226645   5.382   3.485   0.351  0.7921 -0.1007  0.0666
 1744TIP3   OH226646   0.124   3.147   1.137  0.0142  0.0020 -0.3755
 1744TIP3    H126647   0.155   3.067   1.095  1.4557  0.7786 -0.8736
 1744TIP3    H226648   0.178   3.154   1.216  0.2889  0.7428 -0.6192
 1745TIP3   OH226649   4.912   0.018   0.338  0.1368 -0.3141 -0.4150
 1745TIP3    H126650   4.927  -0.013   0.249  0.9798 -0.0832 -0.3638
 1745TIP3    H226651   4.985  -0.018   0.389 -0.3625 -0.4910  0.1969
 1746TIP3   OH226652   1.221   6.154  15.391 -0.7391  0.4665  0.2757
 1746TIP3    H126653   1.240   6.150  15.297 -0.6020  2.5733  0.1634
 1746TIP3    H226654   1.297   6.114  15.433 -0.1741  0.7255 -0.4743
 1747TIP3   OH226655   4.184   4.720   5.070  0.1818 -0.3334  0.1394
 1747TIP3    H126656   4.107   4.672   5.041 -0.1149  0.0579  0.2682
 1747TIP3    H226657   4.173   4.808   5.032 -0.4044  0.3177  1.7312
 1748TIP3   OH226658   6.178   5.029   5.565 -0.2408 -0.2073 -0.5018
 1748TIP3    H126659   6.112   4.998   5.502 -0.1216 -2.1877  0.2890
 1748TIP3    H226660   6.217   4.950   5.600  0.2476  0.8599  1.5135
 1749TIP3   OH226661   0.505   2.343  16.110  0.6470  0.5262 -0.2304
 1749TIP3    H126662   0.460   2.327  16.193  0.0739  0.7768 -0.4885
 1749TIP3    H226663   0.539   2.432  16.118 -1.7209  1.6099 -1.2731
 1750TIP3   OH226664   0.333   0.577   5.155 -0.1843 -0.2460  0.2597
 1750TIP3    H126665   0.374   0.566   5.241  0.8451  1.7461  0.0897
 1750TIP3    H226666   0.402   0.556   5.093 -1.0489 -2.0957 -0.1359
 1751TIP3   OH226667   3.016   2.346  13.482 -0.3128 -0.0026 -0.0894
 1751TIP3    H126668   2.980   2.283  13.420  2.0528 -0.0795 -1.5084
 1751TIP3    H226669   3.041   2.294  13.558  1.4829 -0.8225 -1.1904
 1752TIP3   OH226670   1.498   1.046  14.877  0.2598  0.4602  0.0971
 1752TIP3    H126671   1.427   1.100  14.911  0.1156 -1.3795  3.0195
 1752TIP3    H226672   1.578   1.094  14.900  0.0757  0.5496  0.5552
 1753TIP3   OH226673   1.970   1.974   0.817 -0.5577 -0.2591 -0.1977
 1753TIP3    H126674   1.916   1.917   0.762 -0.0727  0.6759 -1.6921
 1753TIP3    H226675   1.919   2.055   0.826 -0.2886 -0.1176  0.0927
 1754TIP3   OH226676   1.556   2.181   2.490  0.2428 -0.1965  0.5228
 1754TIP3    H126677   1.615   2.150   2.421  0.8755 -0.0510  0.9891
 1754TIP3    H226678   1.513   2.257   2.451  0.3969 -0.2771  0.1885
 1755TIP3   OH226679   2.281   6.522   2.175 -0.5501  0.6991 -0.2680
 1755TIP3    H126680   2.363   6.552   2.137 -0.8414 -0.0302 -1.5295
 1755TIP3    H226681   2.304   6.495   2.264  0.3949  1.2915 -0.3192
 1756TIP3   OH226682   1.229   3.717   4.594  0.4716 -0.2398 -0.3026
 1756TIP3    H126683   1.249   3.623   4.604  1.1072 -0.2607 -1.5271
 1756TIP3    H226684   1.308   3.753   4.554  1.5324  1.4647  2.9434
 1757TIP3   OH226685   4.426   5.338   1.056 -0.1326 -0.0785 -0.1210
 1757TIP3    H126686   4.511   5.298   1.074 -0.4125 -0.3505  0.6586
 1757TIP3    H226687   4.435   5.377   0.969  0.5254 -0.8085 -0.3866
 1758TIP3   OH226688   5.561   3.701  14.991  0.1889  0.0004  0.3056
 1758TIP3    H126689   5.591   3.612  15.008 -0.5759 -0.7881 -2.0243
 1758TIP3    H226690   5.623   3.757  15.036  1.9251 -1.6677  0.1002
 1759TIP3   OH226691   1.780   4.436  15.045 -0.2247 -0.6590 -0.2200
 1759TIP3    H126692   1.821   4.509  14.998  0.5327  0.0616  1.4645
 1759TIP3    H226693   1.850   4.402  15.101 -1.1381 -1.3553  0.5263
 1760TIP3   OH226694   5.234   5.784   3.993 -0.1117 -0.1357 -0.1508
 1760TIP3    H126695   5.295   5.851   4.024  1.4656 -1.2693 -0.6531
 1760TIP3    H226696   5.200   5.744   4.073  2.4117 -1.7141  0.2493
 1761TIP3   OH226697   0.376   4.321  15.636 -0.2940  0.0468  0.0138
 1761TIP3    H126698   0.382   4.270  15.554 -0.6337 -0.9162  0.5691
 1761TIP3    H226699   0.387   4.255  15.705  1.0295  0.9974  0.7428
 1762TIP3   OH226700   3.785   3.299  11.026  0.0881  0.0002 -0.1645
 1762TIP3    H126701   3.689   3.305  11.018  0.1722 -0.0177 -1.3766
 1762TIP3    H226702   3.809   3.224  10.972  0.7415 -0.3874  0.6447
 1763TIP3   OH226703   5.219   5.315  13.030 -0.1391 -0.1560  0.2362
 1763TIP3    H126704   5.161   5.361  12.969  0.5674 -0.1453 -0.4517
 1763TIP3    H226705   5.188   5.224  13.028 -0.8213  0.0593  0.7273
 1764TIP3   OH226706   0.349   2.928   2.395  0.0471  0.0704  0.5241
 1764TIP3    H126707   0.360   2.849   2.342  0.5903 -0.5061  1.4713
 1764TIP3    H226708   0.308   2.896   2.476 -1.1973  1.0014  0.2974
 1765TIP3   OH226709   6.301   6.561  12.949  0.5396  0.4648  0.1406
 1765TIP3    H126710   6.223   6.610  12.923  0.9545  0.7981 -0.4934
 1765TIP3    H226711   6.276   6.518  13.031 -1.2297 -1.5742 -1.3309
 1766TIP3   OH226712   2.249   5.999   0.107  0.0709 -0.1249 -0.3388
 1766TIP3    H126713   2.241   6.082   0.154  2.5316  1.0688 -1.7798
 1766TIP3    H226714   2.201   6.014   0.025 -3.0330 -1.7047  1.0525
 1767TIP3   OH226715   4.178   6.011   4.055  0.1149 -0.0125 -0.4060
 1767TIP3    H126716   4.259   6.060   4.043  0.3212 -0.3815 -0.5182
 1767TIP3    H226717   4.198   5.945   4.120 -0.2989  0.3492  0.0980
 1768TIP3   OH226718   1.746   2.797  13.851 -0.2976 -0.3521  0.5241
 1768TIP3    H126719   1.719   2.706  13.851 -0.2187 -0.3826 -0.3075
 1768TIP3    H226720   1.796   2.807  13.769 -0.8935  0.6034  0.2682
 1769TIP3   OH226721   6.369   2.946  15.897  0.0026 -0.4340 -0.2416
 1769TIP3    H126722   6.441   2.970  15.955  0.2681 -1.2965 -0.1983
 1769TIP3    H226723   6.332   2.867  15.936  0.1092 -0.9659 -1.1722
 1770TIP3   OH226724   0.301   1.677   1.871  0.1062 -0.2401 -0.0836
 1770TIP3    H126725   0.396   1.682   1.868  0.1839 -1.3267  0.2179
 1770TIP3    H226726   0.282   1.622   1.946 -0.7119 -1.2328 -0.9926
 1771TIP3   OH226727   6.142   1.842  16.608  0.0902 -0.0744 -0.0988
 1771TIP3    H126728   6.188   1.760  16.624 -0.3211  0.0035  1.7333
 1771TIP3    H226729   6.049   1.819  16.616 -0.0498  0.4524 -0.1482
 1772TIP3   OH226730   4.192   0.542  15.932  0.4551 -0.1666 -0.4603
 1772TIP3    H126731   4.154   0.564  16.016  1.2577  2.3438 -0.6793
 1772TIP3    H226732   4.118   0.541  15.871 -0.1114 -1.9012  0.1959
 1773TIP3   OH226733   0.883   3.518  13.590  0.2959  0.0948  0.0998
 1773TIP3    H126734   0.913   3.431  13.564  0.9725  0.4160 -0.2244
 1773TIP3    H226735   0.939   3.542  13.664 -0.5242 -0.1317  0.8010
 1774TIP3   OH226736   4.551   6.628   5.160  0.1971  0.3657 -0.4442
 1774TIP3    H126737   4.536   6.690   5.231  0.5067  1.0718 -0.9840
 1774TIP3    H226738   4.595   6.679   5.093  0.1384 -0.3588 -1.0443
 1775TIP3   OH226739   3.923   4.436   5.523 -0.8409 -0.3861 -0.2415
 1775TIP3    H126740   3.873   4.415   5.445  0.9568 -0.1997 -1.5028
 1775TIP3    H226741   3.985   4.364   5.533  0.2913  0.5562 -0.1886
 1776TIP3   OH226742   1.431   5.441  14.020 -0.1994  0.0302  0.3720
 1776TIP3    H126743   1.369   5.372  13.996 -1.8374  2.0590 -1.7008
 1776TIP3    H226744   1.480   5.458  13.939  0.2125  1.2492  0.8603
 1777TIP3   OH226745   1.795   2.438  12.953 -0.1664  0.2451 -0.3750
 1777TIP3    H126746   1.755   2.494  13.019 -0.2204 -0.0206 -0.1776
 1777TIP3    H226747   1.721   2.400  12.905 -0.1341  0.2768 -0.4493
 1778TIP3   OH226748   4.343   0.077  11.317 -0.1511 -0.0258 -0.1220
 1778TIP3    H126749   4.368   0.017  11.388 -0.8824 -1.2324 -0.8444
 1778TIP3    H226750   4.267   0.035  11.277 -0.5702  1.3225 -0.7731
 1779TIP3   OH226751   4.447   6.662  14.248 -1.1765 -0.1142 -0.3000
 1779TIP3    H126752   4.521   6.711  14.284 -1.8885  1.3313 -0.7032
 1779TIP3    H226753   4.406   6.621  14.324 -0.5617 -0.0911  0.0505
 1780TIP3   OH226754   6.007   6.259   5.594  0.0043  0.2466 -0.4562
 1780TIP3    H126755   5.913   6.254   5.610  0.2758 -0.8071  0.9612
 1780TIP3    H226756   6.046   6.208   5.665  1.6121  0.1116 -1.4005
 1781TIP3   OH226757   1.719   5.137  17.131  0.1698  0.1529 -0.0269
 1781TIP3    H126758   1.775   5.149  17.207 -1.0316  2.0292  0.6330
 1781TIP3    H226759   1.630   5.139  17.166 -0.3795 -1.1845 -1.2365
 1782TIP3   OH226760   6.051   6.694   4.173  0.4123 -0.1729 -0.1529
 1782TIP3    H126761   6.033   6.785   4.195  0.2121 -0.4314  0.8020
 1782TIP3    H226762   6.085   6.697   4.083 -0.3563  0.7534 -0.4342
 1783TIP3   OH226763   4.474   2.972   4.521 -0.4170  0.3216  0.1795
 1783TIP3    H126764   4.461   2.896   4.578 -1.0621  1.9859  2.3646
 1783TIP3    H226765   4.404   3.033   4.546  0.6372  2.0243 -0.8394
 1784TIP3   OH226766   5.834   5.153  13.244 -0.1310  0.1373 -0.0431
 1784TIP3    H126767   5.924   5.123  13.228  0.1730  1.5665 -1.2995
 1784TIP3    H226768   5.843   5.223  13.308 -0.2776  0.5799 -0.4975
 1785TIP3   OH226769   5.190   3.377  14.523  0.6401 -0.5539 -0.4973
 1785TIP3    H126770   5.234   3.457  14.493  0.9015 -1.3235 -2.2740
 1785TIP3    H226771   5.104   3.379  14.481 -0.5936  0.2676  1.8934
 1786TIP3   OH226772   6.456   1.452  15.331  0.9443  0.0688 -0.3445
 1786TIP3    H126773   6.376   1.478  15.284  0.9174 -0.3320 -0.5248
 1786TIP3    H226774   6.527   1.485  15.277  0.9455  3.3249  1.4109
 1787TIP3   OH226775   4.750   0.680   3.074  0.4837 -0.2952 -0.5472
 1787TIP3    H126776   4.765   0.625   2.997  1.3186 -1.5533  0.4880
 1787TIP3    H226777   4.656   0.699   3.071  0.5457 -0.1373 -1.9889
 1788TIP3   OH226778   5.204   2.554  17.123 -0.5634 -0.2070 -0.0206
 1788TIP3    H126779   5.110   2.564  17.112 -0.5351 -1.1458 -1.4617
 1788TIP3    H226780   5.225   2.471  17.079  0.8152 -0.4389  0.9968
 1789TIP3   OH226781   0.221   1.655  16.926  0.2808  0.2307  0.0125
 1789TIP3    H126782   0.223   1.584  16.989  1.1880 -1.0639 -1.4208
 1789TIP3    H226783   0.235   1.734  16.979 -0.9776 -0.5851  1.6605
 1790TIP3   OH226784   5.044   2.503  13.226  0.0592  0.0110 -0.3548
 1790TIP3    H126785   5.111   2.474  13.287 -0.1842 -0.1828 -0.1801
 1790TIP3    H226786   5.093   2.546  13.156  0.3310  0.3938  0.0615
 1791TIP3   OH226787   4.763   1.923   1.526  0.5780 -0.2452 -0.3132
 1791TIP3    H126788   4.821   1.991   1.560 -0.6471  1.2764 -1.1131
 1791TIP3    H226789   4.820   1.867   1.474  1.1393  2.2994 -2.6817
 1792TIP3   OH226790   1.813   6.312  11.395  0.2073 -0.2618 -0.1339
 1792TIP3    H126791   1.723   6.299  11.423  0.4779  0.3421  1.0630
 1792TIP3    H226792   1.825   6.248  11.324 -2.2886  2.0535 -2.9337
 1793TIP3   OH226793   5.753   3.984  13.105  0.0613 -0.1875  0.7637
 1793TIP3    H126794   5.657   3.980  13.108  0.0188  1.0423  1.8861
 1793TIP3    H226795   5.773   4.077  13.112  1.3404 -0.3955  0.1048
 1794TIP3   OH226796   1.662   2.641   4.136 -0.2565  0.3475  0.2070
 1794TIP3    H126797   1.573   2.617   4.111  0.0345 -0.3609 -0.2064
 1794TIP3    H226798   1.684   2.714   4.078 -1.3528  2.0708  1.8558
 1795TIP3   OH226799   3.117   5.702  12.952 -0.5333  0.7617  0.4909
 1795TIP3    H126800   3.037   5.738  12.990  0.1097  0.3194  2.3869
 1795TIP3    H226801   3.087   5.641  12.885 -1.8038  0.4117  1.3475
 1796TIP3   OH226802   0.936   5.943   5.825 -0.0616 -0.1452  0.0763
 1796TIP3    H126803   0.899   5.930   5.737 -0.2464  1.4580 -0.1186
 1796TIP3    H226804   1.027   5.914   5.818  0.2421  0.9971 -0.9688
 1797TIP3   OH226805   2.912   5.189  15.425  0.1147  0.4801 -0.1884
 1797TIP3    H126806   2.929   5.129  15.498 -0.9983  1.6282  1.0616
 1797TIP3    H226807   2.884   5.132  15.354 -0.3977 -0.5440  0.7948
 1798TIP3   OH226808   2.671   1.280  11.075  0.6163 -0.4219 -0.3448
 1798TIP3    H126809   2.655   1.188  11.095  1.3735 -0.5312 -0.2027
 1798TIP3    H226810   2.587   1.323  11.091 -0.0194 -1.2392 -1.3876
 1799TIP3   OH226811   3.664   0.998   1.976 -0.1164 -0.2463  0.3486
 1799TIP3    H126812   3.749   0.955   1.985  0.0486 -0.3565 -1.4316
 1799TIP3    H226813   3.605   0.928   1.946 -0.1490  0.4445 -1.2772
 1800TIP3   OH226814   0.344   3.427  13.844 -0.0897 -0.6720  0.2051
 1800TIP3    H126815   0.408   3.368  13.886  1.6686  1.3522  0.5645
 1800TIP3    H226816   0.317   3.486  13.915 -1.6423 -0.8937 -0.1849
 1801TIP3   OH226817   4.173   1.319   1.386 -0.0583 -0.2986  0.2150
 1801TIP3    H126818   4.210   1.404   1.361  0.1151 -0.7329 -1.0618
 1801TIP3    H226819   4.161   1.326   1.481 -0.8712  1.4881  0.0370
 1802TIP3   OH226820   1.887   0.074   0.115 -0.0530 -0.5369 -0.3600
 1802TIP3    H126821   1.940   0.131   0.170 -0.4936 -0.9610  0.5170
 1802TIP3    H226822   1.950   0.025   0.063  0.4275 -0.9849  0.6220
 1803TIP3   OH226823   0.793   5.135   5.081 -0.3346 -0.3595  0.1855
 1803TIP3    H126824   0.779   5.226   5.055 -0.5082 -0.5806 -0.5283
 1803TIP3    H226825   0.875   5.135   5.129 -0.4380  0.2076  0.3625
 1804TIP3   OH226826   1.339   5.276   1.909  0.3309  0.1233  0.7344
 1804TIP3    H126827   1.410   5.280   1.973 -0.4836 -1.9218  1.8563
 1804TIP3    H226828   1.283   5.204   1.940 -0.9928  0.1761 -1.3735
 1805TIP3   OH226829   0.807   3.153   4.653  0.0587 -0.0784  0.4827
 1805TIP3    H126830   0.864   3.184   4.583  0.2093 -1.5513 -0.0773
 1805TIP3    H226831   0.847   3.186   4.733  1.5866 -0.8665  0.0799
 1806TIP3   OH226832   1.505   5.307   3.698  0.0785 -0.0775  0.0853
 1806TIP3    H126833   1.538   5.311   3.787  1.5645  0.5350 -0.4577
 1806TIP3    H226834   1.440   5.237   3.699 -0.3654  0.3175  1.7665
 1807TIP3   OH226835   0.169   6.263   1.633 -0.1245 -0.0884 -0.6534
 1807TIP3    H126836   0.177   6.209   1.712 -0.1835  0.2141 -0.4338
 1807TIP3    H226837   0.219   6.343   1.655  0.8022 -0.4585 -1.3443
 1808TIP3   OH226838   1.870   3.818  11.011 -0.0023 -0.4517 -0.2909
 1808TIP3    H126839   1.832   3.750  10.955 -0.4124  0.3461 -0.9948
 1808TIP3    H226840   1.965   3.808  10.999 -0.0435 -1.0706 -0.1709
 1809TIP3   OH226841   4.728   4.442   5.683 -0.0657  0.1795  0.2469
 1809TIP3    H126842   4.683   4.493   5.750 -0.6163  1.1779 -0.8455
 1809TIP3    H226843   4.713   4.351   5.708 -0.0101  0.5277  1.6210
 1810TIP3   OH226844   2.651   6.652  13.178  0.3775 -0.5759 -0.4260
 1810TIP3    H126845   2.620   6.709  13.248  2.5300 -1.1213  1.0457
 1810TIP3    H226846   2.586   6.582  13.173  1.0839 -1.5405  2.3574
 1811TIP3   OH226847   5.770   2.846   0.078  0.8868  0.4262 -0.3262
 1811TIP3    H126848   5.794   2.912   0.143 -0.5195  2.8103 -2.1007
 1811TIP3    H226849   5.848   2.835   0.024  2.2656 -1.9851  1.8990
 1812TIP3   OH226850   5.321   4.895   1.807  0.0923 -0.2583  0.1585
 1812TIP3    H126851   5.339   4.988   1.823 -1.1230  0.0087  0.0451
 1812TIP3    H226852   5.353   4.851   1.885 -2.2957  0.6254  1.7473
 1813TIP3   OH226853   4.764   4.718  11.047  0.0979 -0.3145 -0.4226
 1813TIP3    H126854   4.721   4.636  11.021 -0.6654 -0.5094  1.3072
 1813TIP3    H226855   4.858   4.700  11.040 -0.0018 -1.9328  1.4389
 1814TIP3   OH226856   4.709   3.782  13.096  0.3425 -0.8368  0.0855
 1814TIP3    H126857   4.710   3.803  13.003  0.6542 -0.4461  0.1761
 1814TIP3    H226858   4.781   3.719  13.107  0.9477 -0.1324  0.2321
 1815TIP3   OH226859   6.582   4.337  11.778  0.0231  0.3308  0.2027
 1815TIP3    H126860   6.513   4.271  11.780 -0.1031  0.4594  0.1331
 1815TIP3    H226861   6.663   4.287  11.767 -0.0632  0.1822  0.2414
 1816TIP3   OH226862   6.134   2.084  13.072  0.0269 -0.8101 -0.2904
 1816TIP3    H126863   6.183   2.008  13.042  0.2164 -0.4927 -0.8134
 1816TIP3    H226864   6.165   2.156  13.016  1.2335  0.0670  1.4053
 1817TIP3   OH226865   5.703   0.589   1.635 -0.4513 -0.7396 -0.1152
 1817TIP3    H126866   5.652   0.576   1.555 -0.0841  0.0489 -0.4950
 1817TIP3    H226867   5.639   0.581   1.706 -0.8763 -0.9481 -0.5162
 1818TIP3   OH226868   5.766   6.318  16.631 -0.2996 -0.4517  0.7128
 1818TIP3    H126869   5.860   6.332  16.636 -0.2558 -0.4702  0.0314
 1818TIP3    H226870   5.727   6.398  16.667 -0.0461  1.1368 -2.1854
 1819TIP3   OH226871   3.443   5.490  15.475  0.4770  0.7122  0.7016
 1819TIP3    H126872   3.396   5.407  15.470  2.0967 -0.3067  1.6454
 1819TIP3    H226873   3.410   5.532  15.554 -1.9704  2.0901 -0.9093
 1820TIP3   OH226874   6.494   5.352  14.165 -0.1549 -0.4459 -0.2177
 1820TIP3    H126875   6.588   5.370  14.162 -0.7462  3.7667 -0.0565
 1820TIP3    H226876   6.475   5.339  14.258  0.2470 -1.3765 -0.2583
 1821TIP3   OH226877   0.559   5.695  10.304 -0.5654  0.3511  0.2090
 1821TIP3    H126878   0.622   5.633  10.268 -1.2209 -0.0046 -0.3451
 1821TIP3    H226879   0.480   5.644  10.318  0.4469 -0.3431  5.0972
 1822TIP3   OH226880   4.893   1.021  11.581  0.1591 -0.2472  0.6193
 1822TIP3    H126881   4.872   1.017  11.674 -1.6611 -0.5324  0.2321
 1822TIP3    H226882   4.989   1.031  11.578  0.1451  0.9428  2.5286
 1823TIP3   OH226883   0.455   4.673   4.192 -0.2493  0.5099  0.3081
 1823TIP3    H126884   0.367   4.702   4.216  0.2838  3.6166 -1.0101
 1823TIP3    H226885   0.507   4.683   4.272 -1.0770 -1.8816  1.2582
 1824TIP3   OH226886   0.001   6.316  13.733 -0.1321  0.3511  0.7517
 1824TIP3    H126887   0.052   6.370  13.795 -0.1167  1.1988  0.0158
 1824TIP3    H226888  -0.085   6.309  13.773 -0.1756  1.0437  0.7905
 1825TIP3   OH226889   2.637   6.189  13.286  0.5986 -0.2355 -0.2714
 1825TIP3    H126890   2.688   6.161  13.362 -0.0170 -1.1138 -0.1700
 1825TIP3    H226891   2.546   6.187  13.316  0.4716  1.1535 -0.5025
 1826TIP3   OH226892   4.347   2.760   3.848 -0.1157  0.3211 -0.1854
 1826TIP3    H126893   4.259   2.743   3.813  0.0411  0.5009 -0.6731
 1826TIP3    H226894   4.334   2.767   3.943 -0.9224  2.0491 -0.3775
 1827TIP3   OH226895   1.767   4.817  13.546 -0.5038  0.0280 -0.5395
 1827TIP3    H126896   1.774   4.730  13.506 -0.3820 -0.0819 -0.2849
 1827TIP3    H226897   1.706   4.865  13.490 -2.1586 -0.8645  0.4355
 1828TIP3   OH226898   1.738   0.295   2.678 -0.1542  0.0168  0.1227
 1828TIP3    H126899   1.807   0.344   2.722  0.2109 -0.5278  0.1606
 1828TIP3    H226900   1.668   0.288   2.743 -0.4504  0.9750 -0.0703
 1829TIP3   OH226901   1.473   5.791  17.252 -0.6949  0.1531  0.9207
 1829TIP3    H126902   1.450   5.718  17.309 -0.2211  0.0849  1.0284
 1829TIP3    H226903   1.431   5.867  17.293  0.1905  0.2200  1.7468
 1830TIP3   OH226904   6.176   0.983  15.914  0.3680  0.0409  0.1964
 1830TIP3    H126905   6.119   1.027  15.851  0.7618 -0.1675 -0.3179
 1830TIP3    H226906   6.256   0.964  15.864  0.6667 -0.1741  0.7478
 1831TIP3   OH226907   2.661   6.352  12.115 -0.0447  0.4482 -0.7101
 1831TIP3    H126908   2.669   6.281  12.051  1.4446  1.0088 -1.2101
 1831TIP3    H226909   2.590   6.326  12.173  0.4962 -1.4701 -0.8586
 1832TIP3   OH226910   6.296   0.449  15.352 -0.0017  0.1764  0.3113
 1832TIP3    H126911   6.344   0.478  15.430 -0.7462 -0.9354  1.2317
 1832TIP3    H226912   6.317   0.513  15.285  1.5113  0.5751  1.1298
 1833TIP3   OH226913   2.150   0.330  14.321 -0.4542 -0.3753 -0.4436
 1833TIP3    H126914   2.189   0.257  14.273  1.4774  0.1051  0.2674
 1833TIP3    H226915   2.222   0.392  14.331 -1.6207  0.8891  0.4001
 1834TIP3   OH226916   6.242   6.623   0.208 -0.1388 -0.1366  0.0584
 1834TIP3    H126917   6.250   6.637   0.113  0.2026  1.1615  0.2595
 1834TIP3    H226918   6.150   6.598   0.220 -0.9699  2.4597 -0.3489
 1835TIP3   OH226919   6.055   3.573   4.818  0.6581 -0.8863  0.3540
 1835TIP3    H126920   6.024   3.601   4.732  3.0860  0.0965 -0.2712
 1835TIP3    H226921   6.025   3.641   4.878 -1.5014 -1.8375  0.4605
 1836TIP3   OH226922   2.831   3.880   4.470  0.4580 -0.9076  0.1652
 1836TIP3    H126923   2.808   3.861   4.561  0.6426  0.2166  0.4654
 1836TIP3    H226924   2.770   3.949   4.444 -0.2077 -1.8774 -0.8794
 1837TIP3   OH226925   1.415   2.852   3.066  0.2145  0.3866 -0.3831
 1837TIP3    H126926   1.461   2.800   3.132 -0.9535  1.1802  1.1112
 1837TIP3    H226927   1.444   2.815   2.982  0.3257 -1.9024  0.5781
 1838TIP3   OH226928   3.840   2.824  11.452 -0.2790  0.0036  0.3511
 1838TIP3    H126929   3.909   2.777  11.404  0.9675  1.5208  0.5687
 1838TIP3    H226930   3.761   2.810  11.400  0.4916 -0.5946 -0.6993
 1839TIP3   OH226931   1.161   0.718   6.856  0.6711  0.6491 -0.1918
 1839TIP3    H126932   1.116   0.634   6.843 -0.9548  1.6877 -1.8016
 1839TIP3    H226933   1.249   0.703   6.822  0.4554 -0.4667 -0.2946
 1840TIP3   OH226934   3.669   4.893   3.914 -0.6544  0.2386  0.6175
 1840TIP3    H126935   3.675   4.934   4.000  1.1859  0.2414  0.5183
 1840TIP3    H226936   3.627   4.959   3.859  0.5162  1.2750  0.9186
 1841TIP3   OH226937   1.476   3.535   2.942  0.7536 -0.6492 -0.6554
 1841TIP3    H126938   1.531   3.469   2.983  0.6415 -0.5325 -0.3115
 1841TIP3    H226939   1.431   3.578   3.015  1.6013  0.5090 -0.7751
 1842TIP3   OH226940   5.638   2.148  12.646 -0.2135  0.3478 -0.3518
 1842TIP3    H126941   5.622   2.071  12.592  0.4230 -1.1006  1.4248
 1842TIP3    H226942   5.610   2.123  12.734 -0.2860  2.2636  0.2280
 1843TIP3   OH226943   2.111   5.912   1.187  0.1636  1.0649 -0.0944
 1843TIP3    H126944   2.037   5.914   1.248 -0.1686 -0.8726 -0.3669
 1843TIP3    H226945   2.080   5.959   1.110 -0.4724  1.0133  0.1267
 1844TIP3   OH226946   0.070   3.477  17.015 -0.0996 -0.2095  0.0375
 1844TIP3    H126947   0.152   3.526  17.018  0.4218 -1.0793  0.3371
 1844TIP3    H226948   0.004   3.538  17.049  0.4288  0.4706 -0.1347
 1845TIP3   OH226949   4.275   6.603   0.772 -0.8835 -0.1491 -0.3252
 1845TIP3    H126950   4.223   6.672   0.730 -0.7721 -0.4838 -1.0348
 1845TIP3    H226951   4.363   6.614   0.734 -0.6735 -0.2008  0.1373
 1846TIP3   OH226952   5.357   5.063   2.378 -0.8143  0.2635 -0.0281
 1846TIP3    H126953   5.289   4.997   2.391 -1.2552  1.2421  3.7182
 1846TIP3    H226954   5.438   5.013   2.368 -1.5109 -0.8516 -0.2564
 1847TIP3   OH226955   1.364   4.348   3.254  0.0275 -0.5050 -0.4255
 1847TIP3    H126956   1.303   4.314   3.320 -0.6634  0.7142 -0.4052
 1847TIP3    H226957   1.330   4.315   3.171  1.1682 -2.4398 -0.1866
 1848TIP3   OH226958   5.789   6.576  15.310 -0.1992 -0.1224 -0.2566
 1848TIP3    H126959   5.698   6.552  15.290  0.0474 -1.2070 -0.1354
 1848TIP3    H226960   5.832   6.579  15.225 -0.1220 -0.6071 -0.2388
 1849TIP3   OH226961   1.099   2.105   0.729 -0.6909  0.0577  0.5696
 1849TIP3    H126962   1.039   2.056   0.784  0.2138 -0.5495  1.0424
 1849TIP3    H226963   1.162   2.040   0.697 -1.5608  0.2724 -1.7375
 1850TIP3   OH226964   1.711   5.619  14.521 -0.7081 -0.1218 -0.5024
 1850TIP3    H126965   1.780   5.556  14.542 -1.2979 -0.0608  1.9062
 1850TIP3    H226966   1.757   5.701  14.507 -0.2606  0.1175  1.9159
 1851TIP3   OH226967   4.069   5.500  11.898 -0.2446 -0.2889 -0.4061
 1851TIP3    H126968   4.027   5.579  11.932  0.1744  0.4650 -1.5782
 1851TIP3    H226969   4.137   5.479  11.962 -0.2033  0.4383 -0.2068
 1852TIP3   OH226970   0.161   3.207   3.618 -0.1058  0.3523  0.0137
 1852TIP3    H126971   0.168   3.302   3.617 -1.9858  0.5830 -2.8828
 1852TIP3    H226972   0.242   3.177   3.575 -1.1354  0.9597 -2.5354
 1853TIP3   OH226973   2.134   2.491  16.206  0.4063 -0.1289  0.2475
 1853TIP3    H126974   2.094   2.486  16.119  1.7354 -0.6691 -0.3593
 1853TIP3    H226975   2.227   2.472  16.191  1.2233  2.5456  1.3850
 1854TIP3   OH226976   0.304   6.013   4.263  0.0642  0.7242 -0.2882
 1854TIP3    H126977   0.271   6.077   4.327  1.4644  0.5334  0.6535
 1854TIP3    H226978   0.370   5.963   4.310  1.0603  0.4909 -1.8561
 1855TIP3   OH226979   5.784   0.843  14.713  0.5275 -0.4481 -0.1285
 1855TIP3    H126980   5.777   0.840  14.809 -1.0145  0.8209 -0.1538
 1855TIP3    H226981   5.850   0.910  14.696 -0.2037  0.3453  0.0701
 1856TIP3   OH226982   0.015   5.417  16.891 -0.3759  0.1223 -0.8488
 1856TIP3    H126983   0.090   5.469  16.920 -0.9895  0.1386  0.7834
 1856TIP3    H226984   0.022   5.336  16.941 -1.4848  0.1460 -0.6463
 1857TIP3   OH226985   5.861   3.417  16.877  0.3033 -0.2180  0.1844
 1857TIP3    H126986   5.803   3.466  16.819 -2.1810 -1.0000  1.8330
 1857TIP3    H226987   5.946   3.420  16.834 -0.7872  1.5236 -2.0813
 1858TIP3   OH226988   6.091   5.992  12.991  0.6297 -0.0311  0.1200
 1858TIP3    H126989   6.085   5.998  12.896 -0.2724  0.6117  0.1968
 1858TIP3    H226990   6.083   5.899  13.010 -1.4133 -0.0142 -0.3432
 1859TIP3   OH226991   0.243   3.589   4.655  0.5191  0.3474  0.4575
 1859TIP3    H126992   0.314   3.526   4.667  0.9395  0.8854  0.8398
 1859TIP3    H226993   0.172   3.538   4.615  1.0781 -0.2185  0.1749
 1860TIP3   OH226994   0.715   4.060   4.388  0.0557 -0.6724  0.4030
 1860TIP3    H126995   0.734   4.006   4.465 -0.6619 -1.5164  0.0026
 1860TIP3    H226996   0.776   4.134   4.395  0.5403 -1.1453  1.3559
 1861TIP3   OH226997   5.667   0.442   3.773 -0.2395 -0.3162 -0.5233
 1861TIP3    H126998   5.752   0.417   3.809 -0.7715 -1.1790  0.1829
 1861TIP3    H226999   5.687   0.478   3.687  1.0420  1.4136  0.4196
 1862TIP3   OH227000   3.997   1.552  14.384  0.2114  0.0853 -0.1318
 1862TIP3    H127001   3.933   1.578  14.318 -0.6264  1.2232  1.0766
 1862TIP3    H227002   3.949   1.492  14.442 -0.0614  1.5393  1.2239
 1863TIP3   OH227003   4.872   3.578   2.983 -0.0152 -0.0954  0.7538
 1863TIP3    H127004   4.781   3.608   2.985 -0.1854 -0.1860 -2.0841
 1863TIP3    H227005   4.924   3.658   2.979 -0.1887 -0.0424 -1.1355
 1864TIP3   OH227006   2.392   1.296  16.266 -0.0840  0.2303 -0.0884
 1864TIP3    H127007   2.400   1.244  16.346 -1.8306 -0.1925 -0.1535
 1864TIP3    H227008   2.421   1.384  16.292 -1.0039  0.1963  1.1372
 1865TIP3   OH227009   1.541   2.507  16.053  0.3448  0.4772 -0.2433
 1865TIP3    H127010   1.566   2.452  16.126  1.0567  0.4363 -0.5159
 1865TIP3    H227011   1.458   2.548  16.081 -1.5156 -2.5113 -0.9662
 1866TIP3   OH227012   5.915   2.810   2.011  0.0578  0.2610  0.0450
 1866TIP3    H127013   6.004   2.776   2.004  0.1276  0.4464  0.0182
 1866TIP3    H227014   5.867   2.743   2.059  0.1094 -0.0258 -0.3001
 1867TIP3   OH227015   6.077   5.885  15.115 -0.4810 -0.3346 -0.5462
 1867TIP3    H127016   6.094   5.822  15.186 -1.0690 -0.3101 -0.3836
 1867TIP3    H227017   6.085   5.833  15.035  2.3406  0.0544 -0.6354
 1868TIP3   OH227018   1.886   3.724   3.734  0.1392  0.3637  0.1498
 1868TIP3    H127019   1.981   3.716   3.742  0.2245  0.6899 -0.4177
 1868TIP3    H227020   1.859   3.647   3.684  0.5208  1.7226 -2.3447
 1869TIP3   OH227021   4.105   1.159   3.453  0.1524 -0.7201  0.0593
 1869TIP3    H127022   4.060   1.243   3.449  0.3533 -0.6171 -0.0758
 1869TIP3    H227023   4.121   1.145   3.547 -2.3527 -1.9499  0.3733
 1870TIP3   OH227024   5.781   1.040  13.746 -0.0206  0.0904 -0.1196
 1870TIP3    H127025   5.839   1.028  13.820  0.7274 -2.8964 -1.0694
 1870TIP3    H227026   5.831   1.008  13.670 -2.3487 -1.3590 -1.1709
 1871TIP3   OH227027   0.211   1.322   3.484  0.6945 -0.8460 -0.3420
 1871TIP3    H127028   0.247   1.403   3.450 -0.1026 -0.6277 -0.6822
 1871TIP3    H227029   0.287   1.265   3.495  1.2994  0.0471  0.2082
 1872TIP3   OH227030   1.928   3.783  15.492 -0.2718  0.3419 -0.2880
 1872TIP3    H127031   1.836   3.799  15.472 -1.6874 -3.3716  2.1463
 1872TIP3    H227032   1.943   3.828  15.575 -0.6575 -0.8456  0.4570
 1873TIP3   OH227033   3.825   3.709  13.295  0.1623  0.4987 -0.1633
 1873TIP3    H127034   3.812   3.682  13.386 -1.3554  1.4207 -0.0756
 1873TIP3    H227035   3.895   3.773  13.300  1.0295 -0.4425  0.1548
 1874TIP3   OH227036   2.758   6.047  16.050 -0.0687  0.5958 -0.5173
 1874TIP3    H127037   2.853   6.036  16.046 -0.1307  0.2043 -0.9446
 1874TIP3    H227038   2.736   6.031  16.142  0.4779  2.3509 -0.0366
 1875TIP3   OH227039   6.710   1.113  10.995  0.0177 -0.0757  0.2464
 1875TIP3    H127040   6.653   1.173  10.946  1.7434 -0.1554 -2.0036
 1875TIP3    H227041   6.765   1.170  11.048  0.1608  0.2026 -0.1998
 1876TIP3   OH227042   4.703   0.608   2.811 -0.3363  0.4076 -0.3578
 1876TIP3    H127043   4.632   0.655   2.768  0.4823  3.3851  1.2622
 1876TIP3    H227044   4.754   0.570   2.739 -2.2726  0.0970 -1.6268
 1877TIP3   OH227045   2.650   5.640  11.798 -0.3304  0.0099 -0.0538
 1877TIP3    H127046   2.636   5.670  11.888  3.2803  0.2507  0.5907
 1877TIP3    H227047   2.579   5.679  11.748 -1.2828  1.5931  2.3566
 1878TIP3   OH227048   2.353   6.465   2.456 -0.1810  0.4221  0.2261
 1878TIP3    H127049   2.352   6.409   2.533 -0.4647 -0.8500 -0.6729
 1878TIP3    H227050   2.312   6.547   2.485 -0.6442 -0.1729  1.3030
 1879TIP3   OH227051   1.573   6.332  16.363 -0.2009  0.0056 -0.3180
 1879TIP3    H127052   1.659   6.293  16.351 -0.4318  0.0077 -2.2086
 1879TIP3    H227053   1.547   6.305  16.451  3.3202  3.2048  2.0178
 1880TIP3   OH227054   6.154   4.110  11.566 -0.0027 -0.0576  0.2638
 1880TIP3    H127055   6.112   4.171  11.505 -1.3524 -2.3576 -1.2572
 1880TIP3    H227056   6.094   4.107  11.641 -0.7913 -0.6894 -0.3710
 1881TIP3   OH227057   0.250   6.177   6.371 -0.3839  0.6235  0.1585
 1881TIP3    H127058   0.268   6.264   6.407 -0.3455  1.1679 -1.1404
 1881TIP3    H227059   0.336   6.134   6.369 -0.3169  0.7499  0.2804
 1882TIP3   OH227060   4.054   0.763   2.383 -0.2953 -0.8223  0.0204
 1882TIP3    H127061   3.972   0.713   2.380  0.5341 -2.1942 -1.6807
 1882TIP3    H227062   4.113   0.709   2.436 -0.2655 -0.2081  0.6174
 1883TIP3   OH227063   4.350   2.904  14.109 -0.9220  0.1908  0.1315
 1883TIP3    H127064   4.267   2.866  14.136 -1.3824  0.6861 -0.5419
 1883TIP3    H227065   4.381   2.846  14.039 -0.3809 -0.3527  0.8155
 1884TIP3   OH227066   1.416   1.913   2.556  0.3146 -0.3458  0.1987
 1884TIP3    H127067   1.396   1.939   2.646 -0.1523 -0.3732  0.1040
 1884TIP3    H227068   1.440   1.995   2.512 -0.3781 -0.1905  0.1055
 1885TIP3   OH227069   1.997   5.514   0.627  0.1531 -0.2632  0.1596
 1885TIP3    H127070   2.065   5.559   0.577  0.0526  0.3001  0.5180
 1885TIP3    H227071   2.007   5.548   0.716  1.2385 -2.2749  0.8672
 1886TIP3   OH227072   5.665   1.204  11.945  0.2256  0.2590 -0.2634
 1886TIP3    H127073   5.646   1.115  11.975 -0.0039  0.4241  0.0847
 1886TIP3    H227074   5.589   1.227  11.891 -1.0786  1.2722  1.8901
 1887TIP3   OH227075   4.978   1.647   3.639 -0.2785  0.2421  0.2853
 1887TIP3    H127076   5.001   1.554   3.633  0.3979  0.2579  2.1479
 1887TIP3    H227077   4.915   1.660   3.568  2.4409 -0.7327 -2.5423
 1888TIP3   OH227078   2.373   1.050   2.968  0.2965 -0.0501  0.4307
 1888TIP3    H127079   2.363   1.047   2.873 -0.5749  0.4242  0.4964
 1888TIP3    H227080   2.292   1.090   2.999  0.1873 -1.0196  1.4405
 1889TIP3   OH227081   0.936   5.165   3.623  0.1857  0.0350  0.4147
 1889TIP3    H127082   0.898   5.078   3.618 -0.6225  0.4331 -0.8812
 1889TIP3    H227083   0.923   5.203   3.536  0.3120  1.5303  1.0058
 1890TIP3   OH227084   1.461   3.463  17.290 -0.4031 -0.2885 -0.3164
 1890TIP3    H127085   1.436   3.420  17.372  3.0937  0.0280  1.0961
 1890TIP3    H227086   1.411   3.544  17.289 -0.5158 -0.2852  1.5690
 1891TIP3   OH227087   6.070   6.212  12.510  0.3607  0.7478 -0.4203
 1891TIP3    H127088   5.980   6.245  12.512 -0.0430 -0.1885  2.6390
 1891TIP3    H227089   6.124   6.289  12.490 -0.9886  1.7219 -0.4284
 1892TIP3   OH227090   1.386   4.223   2.665  0.8120 -0.0954  0.7578
 1892TIP3    H127091   1.366   4.303   2.617  0.7670  0.4251  1.6214
 1892TIP3    H227092   1.433   4.168   2.602  1.2558  0.7993  0.2906
 1893TIP3   OH227093   1.236   2.861  14.331 -0.2438  0.7599 -0.0183
 1893TIP3    H127094   1.223   2.876  14.237 -1.0321  2.6258  0.3401
 1893TIP3    H227095   1.148   2.850  14.366  0.0799 -0.4599  0.4404
 1894TIP3   OH227096   5.422   4.333  12.776 -0.2791  0.3642  0.0840
 1894TIP3    H127097   5.484   4.366  12.711 -1.1905  0.6781 -0.6319
 1894TIP3    H227098   5.470   4.264  12.822  0.1514 -0.3181 -1.3573
 1895TIP3   OH227099   6.482   5.809  16.232 -0.3591 -0.3249 -0.3698
 1895TIP3    H127100   6.425   5.732  16.233 -0.9101  0.0056 -2.2939
 1895TIP3    H227101   6.456   5.858  16.154 -1.0059  2.5912  1.5120
 1896TIP3   OH227102   2.178   0.494  14.801  0.1900 -0.5653  0.0086
 1896TIP3    H127103   2.151   0.428  14.865  0.5654 -0.6449  0.0866
 1896TIP3    H227104   2.166   0.452  14.716  0.2449 -0.6648  0.0500
 1897TIP3   OH227105   3.860   6.054  14.273  0.6067  0.2092  0.0875
 1897TIP3    H127106   3.825   6.108  14.202  1.4162  1.6448  0.7462
 1897TIP3    H227107   3.954   6.050  14.257  0.7314  0.1171  0.8061
 1898TIP3   OH227108   2.858   2.506   4.718 -0.1138 -0.0023 -0.5392
 1898TIP3    H127109   2.943   2.489   4.677 -0.8458 -1.7488 -1.4617
 1898TIP3    H227110   2.833   2.593   4.687  0.6767 -0.1022 -1.4966
 1899TIP3   OH227111   5.013   3.668   1.317 -0.3769 -0.3644 -0.1510
 1899TIP3    H127112   4.924   3.635   1.299 -0.8660 -0.0653  1.4781
 1899TIP3    H227113   5.006   3.763   1.307 -0.3491 -0.3071  0.3465
 1900TIP3   OH227114   5.557   2.662   0.690  0.3481  0.0777  0.4035
 1900TIP3    H127115   5.467   2.630   0.690  1.0690 -2.1126 -0.2180
 1900TIP3    H227116   5.549   2.757   0.697 -1.9913 -0.0874  0.5769
 1901TIP3   OH227117   6.477   0.419   2.925  0.9641  0.4412  0.4625
 1901TIP3    H127118   6.492   0.338   2.974  1.0669  1.1552  1.6553
 1901TIP3    H227119   6.564   0.457   2.914  0.8408  0.7589  0.5710
 1902TIP3   OH227120   4.588   4.165   5.760 -0.0608  0.3290  0.3483
 1902TIP3    H127121   4.548   4.107   5.825  0.1963  0.8898  1.0133
 1902TIP3    H227122   4.523   4.172   5.690  0.6285 -2.2780 -0.6807
 1903TIP3   OH227123   4.538   0.186   2.067 -0.0943  0.0282  0.3822
 1903TIP3    H127124   4.495   0.195   1.982 -1.3334 -1.4879  0.8048
 1903TIP3    H227125   4.476   0.137   2.120  1.4978 -0.8294  1.5365
 1904TIP3   OH227126   3.994   4.885  14.229 -0.4430 -0.4541 -0.0371
 1904TIP3    H127127   4.037   4.812  14.184 -1.1798 -0.8312 -0.1470
 1904TIP3    H227128   3.937   4.923  14.163  0.4746  0.7066 -0.2012
 1905TIP3   OH227129   6.228   0.425  13.424  0.0497  0.0553 -0.1117
 1905TIP3    H127130   6.183   0.447  13.342  0.4112  0.9800 -0.0773
 1905TIP3    H227131   6.248   0.332  13.417 -0.9716 -0.1364 -0.5633
 1906TIP3   OH227132   2.702   5.480   1.297 -0.2326 -0.0160 -0.3072
 1906TIP3    H127133   2.642   5.498   1.369 -2.2824 -0.2229 -1.8690
 1906TIP3    H227134   2.708   5.562   1.249 -1.4620 -0.6732 -1.6667
 1907TIP3   OH227135   3.850   1.539   2.636 -0.6926  0.2948  0.0557
 1907TIP3    H127136   3.925   1.494   2.674  0.4503  0.8145 -1.4963
 1907TIP3    H227137   3.886   1.618   2.596 -2.0311  0.5068 -0.8210
 1908TIP3   OH227138   5.357   3.576   0.691  0.3400  0.4972  0.1578
 1908TIP3    H127139   5.428   3.511   0.694 -0.1426 -0.0461 -0.0874
 1908TIP3    H227140   5.353   3.610   0.781 -1.5125 -2.1410  1.2155
 1909TIP3   OH227141   4.743   0.340   5.026 -0.0472  0.2735 -0.4396
 1909TIP3    H127142   4.781   0.393   4.956  0.4277  0.9082  0.2708
 1909TIP3    H227143   4.666   0.389   5.054 -1.2045 -0.8155 -1.6121
 1910TIP3   OH227144   5.614   2.928  13.132 -0.0503 -0.1299 -0.7011
 1910TIP3    H127145   5.641   2.998  13.072  0.0624  1.2428  0.8695
 1910TIP3    H227146   5.612   2.970  13.218 -0.1665 -2.0331  0.2776
 1911TIP3   OH227147   1.791   3.411  16.155 -0.1453  0.5888 -1.1946
 1911TIP3    H127148   1.836   3.495  16.160  0.2213  0.3590 -0.5658
 1911TIP3    H227149   1.764   3.404  16.063  1.3615  0.6000 -1.6674
 1912TIP3   OH227150   3.901   2.532  15.196 -0.1735 -0.7029  0.0026
 1912TIP3    H127151   3.962   2.602  15.219  0.5794 -1.1887 -0.4821
 1912TIP3    H227152   3.956   2.458  15.171 -0.9458 -0.7953 -1.5691
 1913TIP3   OH227153   2.842   2.664   0.632 -0.2839  0.0886 -0.3423
 1913TIP3    H127154   2.798   2.601   0.689 -2.3229 -0.2733 -2.1545
 1913TIP3    H227155   2.792   2.745   0.642  1.1677  0.9178  0.5540
 1914TIP3   OH227156   5.915   5.104   6.061  0.3215 -0.0278 -0.6148
 1914TIP3    H127157   5.845   5.074   6.118  2.9217  0.8588  3.4357
 1914TIP3    H227158   5.881   5.185   6.022 -1.1281  0.0509  0.7427
 1915TIP3   OH227159   3.078   2.732   3.324  0.4253 -0.2698 -0.5282
 1915TIP3    H127160   3.081   2.674   3.401 -1.3468  2.0934  1.4545
 1915TIP3    H227161   3.004   2.700   3.273 -0.0804 -0.2027  0.1566
 1916TIP3   OH227162   4.092   0.845  14.833 -0.5323  0.2449  0.3528
 1916TIP3    H127163   4.186   0.859  14.825 -0.3998 -0.8953 -0.2306
 1916TIP3    H227164   4.080   0.813  14.922 -0.5980  1.9738  1.0078
 1917TIP3   OH227165   2.238   6.271   3.043 -0.7698  0.1231 -0.0221
 1917TIP3    H127166   2.284   6.335   2.990 -0.1273 -0.1160  0.2388
 1917TIP3    H227167   2.229   6.313   3.129 -2.4740  0.8175 -0.4865
 1918TIP3   OH227168   2.182   5.094   4.098 -0.1092 -0.3829  0.4387
 1918TIP3    H127169   2.165   5.187   4.089 -0.2599 -0.2124  2.1862
 1918TIP3    H227170   2.130   5.053   4.028 -0.7937  0.7587  0.2625
 1919TIP3   OH227171   4.367   3.231   4.966 -0.4529  0.1164  0.1361
 1919TIP3    H127172   4.405   3.222   5.053 -0.6477 -1.2575  0.0884
 1919TIP3    H227173   4.273   3.215   4.979 -0.7925  1.7505 -0.0398
 1920TIP3   OH227174   1.514   0.588  14.461 -0.2220  0.0043  0.7806
 1920TIP3    H127175   1.507   0.519  14.395  0.5298  2.2398 -1.8416
 1920TIP3    H227176   1.606   0.587  14.487 -0.6115 -1.1717  2.2249
 1921TIP3   OH227177   1.841   1.294   0.474 -0.5874  0.3757 -0.1347
 1921TIP3    H127178   1.871   1.226   0.414  0.2161  1.8030 -1.4232
 1921TIP3    H227179   1.890   1.372   0.448 -1.9092  1.6019  0.9086
 1922TIP3   OH227180   0.645   1.987   3.331 -0.1701 -0.2588 -0.2775
 1922TIP3    H127181   0.556   2.014   3.309 -0.4833 -1.2436 -0.2338
 1922TIP3    H227182   0.655   2.015   3.423  0.3371  1.7618 -0.8877
 1923TIP3   OH227183   5.305   1.013  15.149 -0.2870 -0.2275  0.3994
 1923TIP3    H127184   5.339   1.087  15.199 -1.0723 -0.6378  1.5721
 1923TIP3    H227185   5.381   0.956  15.135 -0.3497 -1.0235  2.7880
 1924TIP3   OH227186   3.816   5.331  14.625 -0.0854  0.3711 -0.3054
 1924TIP3    H127187   3.892   5.331  14.566 -0.3806  0.3245 -0.6866
 1924TIP3    H227188   3.741   5.317  14.567 -0.4276  0.8593  0.0190
 1925TIP3   OH227189   5.497   2.828   1.647  0.0082 -0.1566 -0.1488
 1925TIP3    H127190   5.457   2.897   1.594 -0.5620 -0.7190 -0.4672
 1925TIP3    H227191   5.581   2.864   1.674 -1.4587  1.8907  2.1652
 1926TIP3   OH227192   2.212   4.282   0.812  0.8299  0.3822 -0.2349
 1926TIP3    H127193   2.173   4.213   0.865  1.0359  1.1758  1.0011
 1926TIP3    H227194   2.198   4.362   0.863  1.7978  1.0514 -0.9742
 1927TIP3   OH227195   2.351   0.851   0.884 -0.0432  0.1033  0.0039
 1927TIP3    H127196   2.315   0.769   0.917 -0.9442  0.4625 -0.0428
 1927TIP3    H227197   2.274   0.906   0.868  0.4440  0.4553 -1.3008
 1928TIP3   OH227198   5.407   4.656  17.128 -0.0397  0.1975 -0.4778
 1928TIP3    H127199   5.404   4.744  17.166  0.5736  0.0575 -0.0894
 1928TIP3    H227200   5.494   4.650  17.087 -0.3988  0.0674 -1.2311
 1929TIP3   OH227201   3.126   3.598  13.720  0.4626  0.6021  0.3952
 1929TIP3    H127202   3.032   3.615  13.726  0.4589  1.2234 -0.9961
 1929TIP3    H227203   3.161   3.628  13.804 -0.3725  1.9243  0.2980
 1930TIP3   OH227204   4.205   3.299   0.320  1.0260  0.2406  0.2687
 1930TIP3    H127205   4.290   3.339   0.307  1.4000 -0.4433  0.5321
 1930TIP3    H227206   4.154   3.364   0.368  0.4142  1.8334 -2.3652
 1931TIP3   OH227207   6.070   5.866  14.205  0.2202 -0.0571  0.5055
 1931TIP3    H127208   5.997   5.893  14.150 -0.3511 -1.7883  0.3510
 1931TIP3    H227209   6.091   5.778  14.175  1.8371  0.0904  1.1083
 1932TIP3   OH227210   3.543   1.654   0.229 -0.1148  0.0120  0.1130
 1932TIP3    H127211   3.564   1.743   0.256 -0.9014 -0.1491  1.3269
 1932TIP3    H227212   3.449   1.657   0.208 -0.3030 -0.6807  0.8293
 1933TIP3   OH227213   5.439   5.073   6.338  0.7538 -0.5553  0.6083
 1933TIP3    H127214   5.398   5.022   6.409  0.2720 -0.7874  0.1726
 1933TIP3    H227215   5.529   5.042   6.336  0.9997  0.0362  1.6594
 1934TIP3   OH227216   6.250   4.239   0.566 -0.0299 -0.2900  0.1293
 1934TIP3    H127217   6.248   4.293   0.645  2.1712 -0.5905  0.4515
 1934TIP3    H227218   6.304   4.164   0.590 -0.4758 -1.0804 -1.2619
 1935TIP3   OH227219   3.889   2.445  17.090  0.4526  0.1806 -0.2567
 1935TIP3    H127220   3.912   2.370  17.035 -1.0453 -1.3402  1.0628
 1935TIP3    H227221   3.814   2.484  17.045 -0.8750 -1.1580  0.6649
 1936TIP3   OH227222   6.066   2.825  13.026  0.2916 -0.2314 -0.5568
 1936TIP3    H127223   6.099   2.779  13.103  0.3501 -0.8094 -0.9216
 1936TIP3    H227224   5.972   2.807  13.025  0.1640  0.3788 -0.2199
 1937TIP3   OH227225   0.178   2.227   1.386 -0.3123  0.1344 -1.1196
 1937TIP3    H127226   0.237   2.160   1.352  0.6320  1.3190 -1.8868
 1937TIP3    H227227   0.231   2.306   1.389 -1.4463  0.8902 -0.3687
 1938TIP3   OH227228   5.402   1.453  12.799  0.1520 -0.0942  0.4055
 1938TIP3    H127229   5.416   1.536  12.845  1.1544 -0.2655  0.4157
 1938TIP3    H227230   5.389   1.390  12.869 -0.2389 -0.0211  0.4043
 1939TIP3   OH227231   1.966   2.622   4.999 -0.5279  0.8025  0.1476
 1939TIP3    H127232   1.918   2.613   4.917  0.1433  1.5360 -0.3471
 1939TIP3    H227233   1.953   2.538   5.044 -1.0056  0.4341 -0.6534
 1940TIP3   OH227234   4.135   4.993  14.994 -0.4211  0.0455  0.0123
 1940TIP3    H127235   4.213   4.941  15.009 -0.6999  0.0884  1.8404
 1940TIP3    H227236   4.123   5.043  15.075 -1.2607  1.4851 -0.9444
 1941TIP3   OH227237   2.385   0.394   4.918 -0.1103 -0.7667 -0.3304
 1941TIP3    H127238   2.308   0.364   4.967  0.8124 -1.0782  0.9828
 1941TIP3    H227239   2.423   0.314   4.882  1.3423 -1.0531  1.6766
 1942TIP3   OH227240   1.149   4.260   5.205  0.4245  0.2664 -0.0766
 1942TIP3    H127241   1.056   4.260   5.181  0.2599  0.7074  0.5219
 1942TIP3    H227242   1.156   4.194   5.273  0.8932 -0.9961 -1.3188
 1943TIP3   OH227243   6.000   4.125  11.797  0.1845 -0.0608  0.1284
 1943TIP3    H127244   5.919   4.112  11.747 -0.0287 -1.2550  0.7315
 1943TIP3    H227245   6.011   4.043  11.846  1.1457  0.5262  0.9362
 1944TIP3   OH227246   6.474   1.974  16.252 -0.3686 -0.6640  0.2018
 1944TIP3    H127247   6.483   1.958  16.346  0.4669 -0.0580  0.2325
 1944TIP3    H227248   6.562   1.999  16.223 -0.4407 -1.6166 -0.8961
 1945TIP3   OH227249   1.634   6.093  14.493  0.1772 -0.6016  0.5278
 1945TIP3    H127250   1.696   6.165  14.508  0.9485 -0.8320 -1.2728
 1945TIP3    H227251   1.572   6.099  14.566 -0.2144  2.3216  0.0677
 1946TIP3   OH227252   0.851   1.894   2.840  0.0556 -0.1144 -0.2784
 1946TIP3    H127253   0.771   1.875   2.790 -0.4638  3.1486 -0.8644
 1946TIP3    H227254   0.830   1.866   2.929 -0.8887 -1.3427 -0.8469
 1947TIP3   OH227255   5.883   5.263  11.690  0.1377 -0.1334  0.6638
 1947TIP3    H127256   5.874   5.251  11.595  0.1017  1.8581  0.3839
 1947TIP3    H227257   5.842   5.347  11.708  1.6629  0.3413  2.1925
 1948TIP3   OH227258   4.590   1.621  16.953  0.2829  0.3548 -0.2832
 1948TIP3    H127259   4.589   1.716  16.958  0.5281  0.3355  0.1590
 1948TIP3    H227260   4.503   1.598  16.920 -0.3878  0.6436  1.2241
 1949TIP3   OH227261   3.727   2.508   0.342  0.5232  0.0971  0.2114
 1949TIP3    H127262   3.745   2.417   0.366  0.5540  0.0151 -0.1143
 1949TIP3    H227263   3.796   2.530   0.279  0.8545  0.5310  0.7224
 1950TIP3   OH227264   3.680   3.092  15.152  0.5266  0.0692  0.3043
 1950TIP3    H127265   3.637   3.152  15.091  0.7447  1.1740  1.1819
 1950TIP3    H227266   3.764   3.070  15.111  0.6375  0.7412  0.1623
 1951TIP3   OH227267   5.493   6.672  15.704  0.4006 -0.0683  0.0008
 1951TIP3    H127268   5.401   6.676  15.677  0.4674  1.9130 -0.0744
 1951TIP3    H227269   5.541   6.709  15.631  1.3091 -1.3328 -0.0608
 1952TIP3   OH227270   4.273   1.699   1.169  0.3978 -0.1071  0.5382
 1952TIP3    H127271   4.187   1.662   1.150 -0.2468  2.5271 -2.7535
 1952TIP3    H227272   4.335   1.639   1.129 -0.1596 -0.5062  0.2712
 1953TIP3   OH227273   4.173   0.998  16.121  0.0921  1.1804 -0.2232
 1953TIP3    H127274   4.090   0.953  16.108 -0.7422  2.3686  0.7273
 1953TIP3    H227275   4.200   0.975  16.209  0.3994  1.3747 -0.2648
 1954TIP3   OH227276   2.577   0.557   0.576 -0.8352 -0.2637  0.0964
 1954TIP3    H127277   2.594   0.602   0.494 -1.0937 -1.2167 -0.5030
 1954TIP3    H227278   2.597   0.621   0.644  0.4003  0.2057 -0.6802
 1955TIP3   OH227279   4.474   1.030   3.490 -0.4220 -0.0169  0.7391
 1955TIP3    H127280   4.531   1.025   3.567 -0.6428  2.2294  1.1299
 1955TIP3    H227281   4.533   1.023   3.415  0.0044 -0.5091  1.1139
 1956TIP3   OH227282   1.188   1.807  16.789  0.2233  0.2738 -0.0600
 1956TIP3    H127283   1.151   1.733  16.739  1.1957 -0.2177 -0.0808
 1956TIP3    H227284   1.118   1.873  16.789 -0.9127 -0.8766  0.4977
 1957TIP3   OH227285   0.192   4.130   5.960 -0.0269 -0.3084 -0.4929
 1957TIP3    H127286   0.242   4.069   6.016  1.5971  0.8740 -0.5755
 1957TIP3    H227287   0.132   4.173   6.020  1.6385  0.8914  0.4031
 1958TIP3   OH227288   3.871   2.457   3.648 -0.6331 -0.3200 -0.7190
 1958TIP3    H127289   3.830   2.402   3.715 -1.3217  0.1242 -0.7637
 1958TIP3    H227290   3.807   2.460   3.577  0.3920 -1.3814 -1.7321
 1959TIP3   OH227291   2.833   4.441   5.520 -0.3723 -0.1914  0.0103
 1959TIP3    H127292   2.859   4.352   5.542  0.9188 -1.1126 -4.3333
 1959TIP3    H227293   2.915   4.487   5.501 -1.0170  1.9900  2.0021
 1960TIP3   OH227294   1.914   5.358   2.789  0.4602 -0.9035  0.3251
 1960TIP3    H127295   2.002   5.387   2.766 -0.1095  1.7934  1.1383
 1960TIP3    H227296   1.881   5.315   2.710  1.3638  0.9345 -1.1347
 1961TIP3   OH227297   4.928   5.759  11.180 -0.4036  0.4251 -0.0383
 1961TIP3    H127298   4.966   5.718  11.102 -0.5118 -1.8473  1.0378
 1961TIP3    H227299   4.838   5.778  11.156 -0.2647  0.3325 -0.6583
 1962TIP3   OH227300   0.090   0.547   4.734  0.5066 -0.0519 -0.0704
 1962TIP3    H127301   0.180   0.571   4.756  0.3262  0.6675 -0.1111
 1962TIP3    H227302   0.079   0.576   4.644 -0.0947  0.8276  0.2723
 1963TIP3   OH227303   5.854   5.911   3.114 -0.1452  0.0843  0.0382
 1963TIP3    H127304   5.932   5.959   3.088  0.3354 -0.8397 -0.2777
 1963TIP3    H227305   5.873   5.820   3.091 -2.5304  0.2025 -3.0488
 1964TIP3   OH227306   2.371   0.931  15.687  0.3992  0.1493  0.3375
 1964TIP3    H127307   2.388   0.982  15.767  0.1882 -0.6207  0.8928
 1964TIP3    H227308   2.399   0.843  15.709  0.2067 -0.1032 -0.4015
 1965TIP3   OH227309   5.370   1.165   0.628 -0.1469  0.3350  0.5545
 1965TIP3    H127310   5.279   1.152   0.654 -0.1494  0.2692  0.5132
 1965TIP3    H227311   5.384   1.259   0.638 -0.0450  0.2614  1.1105
 1966TIP3   OH227312   0.375   3.164  16.165  0.3867  0.1059 -0.5333
 1966TIP3    H127313   0.296   3.145  16.114  0.2809  1.0161 -0.7233
 1966TIP3    H227314   0.391   3.257  16.151  0.7368  0.2266  0.5717
 1967TIP3   OH227315   5.642   2.566   5.758  0.1181  0.1451 -0.0267
 1967TIP3    H127316   5.651   2.656   5.726 -1.2849  0.0332 -0.8234
 1967TIP3    H227317   5.730   2.543   5.788  0.5579  1.6974 -0.0095
 1968TIP3   OH227318   0.488   3.211  13.165  0.4339 -0.1692  0.0966
 1968TIP3    H127319   0.398   3.196  13.136  0.4732  1.3145 -0.8914
 1968TIP3    H227320   0.481   3.216  13.261 -0.8289  1.4801 -0.0409
 1969TIP3   OH227321   3.188   6.180   2.349 -0.6921  0.7365  0.1915
 1969TIP3    H127322   3.212   6.159   2.259  0.7669 -0.8631  0.8838
 1969TIP3    H227323   3.168   6.273   2.347  3.4111  1.8177 -1.0636
 1970TIP3   OH227324   2.972   3.928  15.952 -0.5750  0.1547  0.2319
 1970TIP3    H127325   2.994   3.979  15.874 -0.2611  0.7960  0.7233
 1970TIP3    H227326   3.046   3.868  15.962 -0.6112  0.0780  0.0360
 1971TIP3   OH227327   1.810   2.803   5.303  0.1407 -0.3461  0.4960
 1971TIP3    H127328   1.768   2.726   5.265 -1.7308  1.0566 -0.4953
 1971TIP3    H227329   1.740   2.843   5.356  0.2988  1.8845 -0.8886
 1972TIP3   OH227330   5.699   5.134   4.537 -0.6820 -0.4303 -0.1473
 1972TIP3    H127331   5.703   5.219   4.492 -1.8852 -0.5107 -0.4489
 1972TIP3    H227332   5.656   5.076   4.474 -0.0052 -1.2308  0.1192
 1973TIP3   OH227333   2.997   1.844   1.868  0.6449 -0.3486 -0.6076
 1973TIP3    H127334   3.067   1.797   1.822  0.6108 -1.1405  0.1249
 1973TIP3    H227335   2.934   1.867   1.800 -0.3137 -3.0914 -0.7640
 1974TIP3   OH227336   1.128   1.868   5.056 -0.2108 -0.2378 -0.0209
 1974TIP3    H127337   1.052   1.827   5.097 -0.3475  0.0623  0.0256
 1974TIP3    H227338   1.115   1.962   5.069 -0.5665 -0.0976 -1.3074
 1975TIP3   OH227339   2.860   5.651   0.665 -0.5694  0.4596 -0.3527
 1975TIP3    H127340   2.863   5.586   0.595 -4.3241  0.8734 -1.0760
 1975TIP3    H227341   2.775   5.639   0.706  0.7096  1.5333  2.9749
 1976TIP3   OH227342   0.294   4.312   3.062  0.1259 -0.4081 -0.3278
 1976TIP3    H127343   0.269   4.238   3.117  0.9740 -2.3626 -2.3662
 1976TIP3    H227344   0.370   4.281   3.013  1.2448  2.2667 -0.4769
 1977TIP3   OH227345   5.587   2.904   5.152  0.0509 -0.1553 -0.2979
 1977TIP3    H127346   5.657   2.839   5.160  0.4993  0.4279  0.7003
 1977TIP3    H227347   5.619   2.981   5.199 -2.3061 -0.7622  2.6370
 1978TIP3   OH227348   6.364   3.808   3.166 -0.4000  0.5337  0.0006
 1978TIP3    H127349   6.294   3.860   3.205 -1.0781  0.0222 -0.5195
 1978TIP3    H227350   6.438   3.869   3.161 -1.4947  1.8302 -1.6568
 1979TIP3   OH227351   3.093   0.894  12.244 -0.5431 -0.3881 -0.1000
 1979TIP3    H127352   3.128   0.980  12.219 -1.5461  0.2369  0.5755
 1979TIP3    H227353   3.122   0.835  12.174 -0.6251  0.6815 -1.0625
 1980TIP3   OH227354   1.717   2.544   5.208 -0.3676 -0.0726 -0.1258
 1980TIP3    H127355   1.796   2.490   5.220  0.3162  0.4850 -1.8471
 1980TIP3    H227356   1.663   2.496   5.146 -0.1846  0.7312 -0.9384
 1981TIP3   OH227357   6.425   0.153  14.089  0.5486  0.3344 -0.3530
 1981TIP3    H127358   6.345   0.101  14.084 -0.5576  1.6244  2.1697
 1981TIP3    H227359   6.482   0.116  14.021 -1.2505 -2.2161 -0.6200
 1982TIP3   OH227360   0.496   4.703   5.916 -0.2460  0.1255 -0.2996
 1982TIP3    H127361   0.566   4.715   5.980 -1.2378 -0.1376  0.8646
 1982TIP3    H227362   0.494   4.786   5.867  0.9099  0.1057 -0.3968
 1983TIP3   OH227363   1.857   0.965  16.568  0.7784 -0.0380  0.1675
 1983TIP3    H127364   1.827   1.049  16.602 -0.1337 -0.5573  0.7066
 1983TIP3    H227365   1.929   0.987  16.509 -0.0423  1.1963 -0.4236
 1984TIP3   OH227366   5.506   0.818  13.164  0.1775 -0.4914 -0.1460
 1984TIP3    H127367   5.484   0.727  13.145 -1.1203 -0.1098 -0.5774
 1984TIP3    H227368   5.422   0.863  13.170  0.7701  1.2991 -3.0491
 1985TIP3   OH227369   3.946   1.418   3.123  0.0125 -0.2965 -0.2348
 1985TIP3    H127370   3.944   1.340   3.178 -0.9685  0.0706  0.2626
 1985TIP3    H227371   3.884   1.399   3.053 -0.7879  0.3253  0.2956
 1986TIP3   OH227372   2.878   4.922  11.251 -0.1232 -0.6632 -0.3980
 1986TIP3    H127373   2.783   4.911  11.247 -0.0257 -1.2806 -1.4175
 1986TIP3    H227374   2.892   5.016  11.258 -0.7922 -0.4956 -1.2132
 1987TIP3   OH227375   4.268   5.950  15.881  0.4707  0.0515  0.1569
 1987TIP3    H127376   4.307   6.007  15.948 -0.3957  0.9410 -0.0732
 1987TIP3    H227377   4.281   5.861  15.915 -0.5202  0.5016  1.8609
 1988TIP3   OH227378   0.733   6.267   3.931 -0.6756  0.1650  0.3366
 1988TIP3    H127379   0.813   6.215   3.932 -1.0336 -0.4126 -0.2340
 1988TIP3    H227380   0.663   6.204   3.946 -1.2232  0.2633 -1.6300
 1989TIP3   OH227381   6.609   3.944   4.546  0.1114 -0.5817  0.0898
 1989TIP3    H127382   6.575   3.859   4.574 -0.0599 -0.9385 -1.1522
 1989TIP3    H227383   6.552   3.970   4.473  0.8503  0.0724 -0.2694
 1990TIP3   OH227384   1.652   2.560  15.574  0.2611 -0.0014  0.2313
 1990TIP3    H127385   1.599   2.543  15.651 -1.7558  1.5731 -0.7091
 1990TIP3    H227386   1.743   2.548  15.603 -0.5059 -0.8174  2.4327
 1991TIP3   OH227387   3.476   0.764   0.644  0.1727 -0.3435 -0.2226
 1991TIP3    H127388   3.450   0.688   0.593  1.7039 -1.0253 -0.0320
 1991TIP3    H227389   3.428   0.755   0.727  1.0269 -1.6229  0.1620
 1992TIP3   OH227390   3.117   5.051   2.020  0.0240 -0.3911 -0.0126
 1992TIP3    H127391   3.187   4.998   2.059 -0.2586 -0.0657  0.9629
 1992TIP3    H227392   3.162   5.120   1.972  0.3783 -0.0148  0.8508
 1993TIP3   OH227393   3.159   1.766   1.174 -0.0455 -0.2164  0.1759
 1993TIP3    H127394   3.189   1.713   1.100 -0.2681  0.0816 -0.1298
 1993TIP3    H227395   3.064   1.768   1.166 -0.0721 -0.1922  0.4766
 1994TIP3   OH227396   1.650   4.368  16.941  0.0721 -0.1333 -0.3356
 1994TIP3    H127397   1.742   4.345  16.953  0.3198  0.6784 -0.6032
 1994TIP3    H227398   1.608   4.341  17.023  1.0270  1.7899  0.8627
 1995TIP3   OH227399   0.452   4.403   5.375 -0.4316  0.1194  0.2298
 1995TIP3    H127400   0.529   4.381   5.324 -0.0010 -1.5023  1.4946
 1995TIP3    H227401   0.385   4.340   5.345 -0.5029 -0.1104  0.8609
 1996TIP3   OH227402   6.414   6.683  15.241  0.1688  0.1602  0.5228
 1996TIP3    H127403   6.459   6.680  15.156 -0.0999 -0.4842  0.3948
 1996TIP3    H227404   6.378   6.772  15.246 -2.5984 -0.7068 -1.5329
 1997TIP3   OH227405   6.477   5.118   5.646 -0.2253  0.7304  0.0420
 1997TIP3    H127406   6.433   5.154   5.722 -0.8968 -0.6412  0.3432
 1997TIP3    H227407   6.470   5.023   5.657  1.7703  0.4663 -0.5084
 1998TIP3   OH227408   1.566   5.946   2.462 -0.1225 -0.1684  0.0851
 1998TIP3    H127409   1.648   5.996   2.459 -0.4981  0.4547 -0.1969
 1998TIP3    H227410   1.547   5.937   2.555  0.0662  0.0360  0.1456
 1999TIP3   OH227411   0.533   4.513  15.257  0.3713  0.4581  0.4064
 1999TIP3    H127412   0.502   4.521  15.167  0.5853  0.3382  0.3205
 1999TIP3    H227413   0.627   4.498  15.249  0.1459 -1.1932  0.5879
 2000TIP3   OH227414   1.252   0.823  16.763  0.3361  0.1379 -0.0261
 2000TIP3    H127415   1.206   0.858  16.685 -1.4725 -1.3856  0.2892
 2000TIP3    H227416   1.235   0.888  16.831 -1.8275 -0.5649  0.1918
 2001TIP3   OH227417   0.206   6.267   2.747 -0.4748  0.5324 -0.2928
 2001TIP3    H127418   0.283   6.284   2.801 -0.6853 -0.5470  0.3616
 2001TIP3    H227419   0.136   6.248   2.809 -0.4341 -1.9780 -0.9148
 2002TIP3   OH227420   2.702   0.635   0.923 -0.4034  0.4073  0.5535
 2002TIP3    H127421   2.695   0.590   1.007  2.9578  1.2180  1.3999
 2002TIP3    H227422   2.747   0.573   0.866 -0.5129  0.7442  0.0928
 2003TIP3   OH227423   4.650   2.641  12.866  0.0325  0.2442 -0.1668
 2003TIP3    H127424   4.641   2.567  12.925 -1.1424 -0.3567 -1.0715
 2003TIP3    H227425   4.668   2.716  12.924  1.6833 -0.7793  0.7272
 2004TIP3   OH227426   6.044   2.667  10.448  0.3646  0.0633  0.2239
 2004TIP3    H127427   5.984   2.725  10.403  0.5417  0.9223  1.0641
 2004TIP3    H227428   6.001   2.647  10.531  0.2906 -1.0430 -0.0671
 2005TIP3   OH227429   0.380   2.369   4.098  0.0709  0.1309 -0.1545
 2005TIP3    H127430   0.302   2.422   4.111 -0.0396 -0.3550  1.3999
 2005TIP3    H227431   0.374   2.337   4.008  0.3787  3.0922 -1.3319
 2006TIP3   OH227432   2.693   2.929   4.452 -0.0565  0.1917 -0.2355
 2006TIP3    H127433   2.736   3.014   4.448  1.7432 -0.6225  0.7022
 2006TIP3    H227434   2.659   2.915   4.363  3.8872 -0.1872 -1.8981
 2007TIP3   OH227435   4.811   2.878   3.257 -0.4511 -0.1152  0.4534
 2007TIP3    H127436   4.818   2.914   3.345 -0.2726 -0.5633  0.6189
 2007TIP3    H227437   4.847   2.947   3.201 -4.2647  2.0227  0.2705
 2008TIP3   OH227438   0.112   0.624  16.940 -1.0240 -0.2047  0.2933
 2008TIP3    H127439   0.113   0.574  17.021  0.2695 -0.8371 -0.0921
 2008TIP3    H227440   0.141   0.712  16.966 -1.6585 -0.0971  0.6774
 2009TIP3   OH227441   2.593   1.776   0.226 -0.2386  0.1342  0.3095
 2009TIP3    H127442   2.549   1.691   0.225 -0.8675  0.4471  0.7675
 2009TIP3    H227443   2.595   1.802   0.318  1.1948 -0.0059  0.3447
 2010TIP3   OH227444   0.689   5.205   2.040  0.0752 -0.0091 -0.1548
 2010TIP3    H127445   0.675   5.194   1.946  1.9903  2.7021 -0.8851
 2010TIP3    H227446   0.602   5.229   2.074 -0.4032  0.1743 -1.4567
 2011TIP3   OH227447   5.295   2.612   2.699  0.2865  0.1126  0.0357
 2011TIP3    H127448   5.233   2.595   2.770  1.2358 -2.0664  0.4061
 2011TIP3    H227449   5.294   2.533   2.646  1.5550  0.6769 -0.8791
 2012TIP3   OH227450   4.026   1.897   0.533  0.7701 -0.3631  0.4314
 2012TIP3    H127451   3.964   1.840   0.488  0.5832 -0.3009  0.6086
 2012TIP3    H227452   4.111   1.874   0.496  0.7853 -1.2329  0.9798
 2013TIP3   OH227453   5.909   1.436  14.413 -0.3346  0.7223  0.6772
 2013TIP3    H127454   6.004   1.430  14.398 -0.4301  0.8271 -0.0392
 2013TIP3    H227455   5.896   1.402  14.501 -0.0152 -2.4847 -0.3978
 2014TIP3   OH227456   2.192   4.235   5.075 -0.0994  0.2959 -0.2606
 2014TIP3    H127457   2.103   4.207   5.053 -0.5157  1.7737 -0.5751
 2014TIP3    H227458   2.249   4.169   5.034 -0.9213  1.4613 -3.5978
 2015TIP3   OH227459   1.489   3.725  12.977 -0.0790  0.0169  0.0687
 2015TIP3    H127460   1.569   3.748  12.930 -0.5916  2.3190  0.2223
 2015TIP3    H227461   1.448   3.658  12.922  0.9256  0.3207 -1.0919
 2016TIP3   OH227462   6.095   2.108  11.677 -0.0018 -0.5120 -0.1967
 2016TIP3    H127463   6.114   2.053  11.753 -0.9506 -1.8711 -0.9064
 2016TIP3    H227464   6.181   2.129  11.640  0.3856 -1.5163  0.1049
 2017TIP3   OH227465   0.088   1.810   0.729  0.0795  0.1499 -0.4657
 2017TIP3    H127466   0.129   1.810   0.816 -0.2602  1.4248 -0.2747
 2017TIP3    H227467   0.054   1.899   0.719  1.6958  0.6081 -2.6477
 2018TIP3   OH227468   6.017   1.144   2.019  0.5055  0.2253 -0.2505
 2018TIP3    H127469   5.952   1.148   2.089  1.4769 -0.4384  0.7328
 2018TIP3    H227470   6.087   1.202   2.049  1.9337 -1.7402  0.4564
 2019TIP3   OH227471   1.086   6.591  15.177  0.6274 -0.1963  0.1053
 2019TIP3    H127472   1.042   6.643  15.109 -0.2265  0.6573  1.2692
 2019TIP3    H227473   1.018   6.532  15.209  0.9076 -0.2974  0.5070
 2020TIP3   OH227474   2.701   1.556  11.613  0.5071  0.4094  0.3533
 2020TIP3    H127475   2.637   1.613  11.656 -0.9698 -0.7597 -0.2111
 2020TIP3    H227476   2.650   1.511  11.545  2.0906 -0.0777 -0.5434
 2021TIP3   OH227477   0.060   6.674  14.411  0.0410 -0.0015 -0.6376
 2021TIP3    H127478   0.154   6.676  14.390  0.5452  0.7952  1.3898
 2021TIP3    H227479   0.050   6.596  14.466  0.1417  1.3250  1.4039
 2022TIP3   OH227480   0.529   4.914  11.237 -0.3057 -0.1725  0.2059
 2022TIP3    H127481   0.568   4.886  11.153  1.6159  0.1653  0.9330
 2022TIP3    H227482   0.534   4.836  11.292 -1.2386 -0.2911  0.1317
 2023TIP3   OH227483   6.578   5.285  13.503 -0.1416 -0.2510 -0.2407
 2023TIP3    H127484   6.652   5.229  13.479  0.3870  0.7280 -0.9131
 2023TIP3    H227485   6.537   5.309  13.420 -1.9333 -1.6906  0.1607
 2024TIP3   OH227486   6.763   3.855  14.542  0.2559  0.4964 -0.3674
 2024TIP3    H127487   6.752   3.766  14.509 -0.3372  1.0270 -1.6755
 2024TIP3    H227488   6.674   3.888  14.551  0.4757  0.9782  0.1005
 2025TIP3   OH227489   6.531   4.252   0.161 -0.1754  0.2837  0.2484
 2025TIP3    H127490   6.512   4.260   0.254  0.1700  1.2559  0.2501
 2025TIP3    H227491   6.620   4.287   0.151 -0.0588 -0.1715 -0.3841
 2026TIP3   OH227492   1.794   6.207   1.450 -0.4247 -0.2356  0.0830
 2026TIP3    H127493   1.710   6.167   1.427 -0.1447 -0.6844 -0.1803
 2026TIP3    H227494   1.771   6.292   1.486 -0.9439  0.2128 -1.2193
 2027TIP3   OH227495   1.832   5.984  15.474  0.2004 -0.3694 -0.2342
 2027TIP3    H127496   1.772   6.036  15.422  0.9321 -0.3773 -1.1104
 2027TIP3    H227497   1.902   5.960  15.413  0.8519 -0.7463  0.6394
 2028TIP3   OH227498   6.031   0.127  13.598  0.2967 -0.8430  0.2594
 2028TIP3    H127499   6.114   0.081  13.584 -0.0273 -1.0651 -1.0193
 2028TIP3    H227500   6.054   0.220  13.586  0.3293 -0.9173 -0.2698
 2029TIP3   OH227501   6.626   4.170   3.524  0.4905  0.7372 -0.1509
 2029TIP3    H127502   6.608   4.211   3.609 -0.2708  0.6725 -0.2731
 2029TIP3    H227503   6.544   4.178   3.476  0.2600 -1.0526 -0.1199
 2030TIP3   OH227504   2.209   1.953  13.603  0.1587 -0.0480 -0.0619
 2030TIP3    H127505   2.186   1.998  13.685 -0.1450  1.9198 -1.1484
 2030TIP3    H227506   2.304   1.953  13.601  0.1695 -0.4437  0.4742
 2031TIP3   OH227507   2.005   5.592  15.543  0.0373 -0.2319  0.5793
 2031TIP3    H127508   1.947   5.599  15.619  0.4883  0.4023  0.8759
 2031TIP3    H227509   1.952   5.622  15.469 -0.1356 -0.0376  0.7817
 2032TIP3   OH227510   1.859   5.583  12.292 -0.0307 -0.4020 -0.0303
 2032TIP3    H127511   1.796   5.513  12.306 -0.3911 -0.0730 -0.0068
 2032TIP3    H227512   1.910   5.586  12.373 -2.4032  1.8072  1.5138
 2033TIP3   OH227513   4.821   5.342   1.713 -0.3663 -0.2707  0.3006
 2033TIP3    H127514   4.869   5.264   1.684 -0.6556 -0.9280  1.5368
 2033TIP3    H227515   4.736   5.335   1.671 -0.0518 -0.0796 -0.3929
 2034TIP3   OH227516   2.773   3.630  12.805 -0.2960  0.0246  0.4347
 2034TIP3    H127517   2.855   3.646  12.757  1.4854 -2.8332  2.2162
 2034TIP3    H227518   2.750   3.715  12.841  2.0944  0.8933  0.1262
 2035TIP3   OH227519   2.259   6.172  13.574 -0.1893 -0.0978 -0.4747
 2035TIP3    H127520   2.224   6.174  13.663  0.6817  0.2464 -0.1237
 2035TIP3    H227521   2.254   6.080  13.547 -1.1600 -0.0818 -0.3677
 2036TIP3   OH227522   5.503   1.870  16.594 -0.0249  0.0766  0.4099
 2036TIP3    H127523   5.536   1.780  16.598  1.3659  0.5998  1.5483
 2036TIP3    H227524   5.475   1.881  16.503  2.7608 -0.5109 -0.6187
 2037TIP3   OH227525   4.978   3.074   3.090 -0.4456 -0.5608 -0.3266
 2037TIP3    H127526   5.057   3.033   3.124  0.4736  0.9169 -0.5890
 2037TIP3    H227527   5.003   3.165   3.072 -2.1557 -0.0920 -0.5812
 2038TIP3   OH227528   3.216   5.977  11.229  0.1233 -0.5874 -0.2292
 2038TIP3    H127529   3.263   5.914  11.284  1.0886  0.1031 -0.2417
 2038TIP3    H227530   3.285   6.028  11.187 -0.6433  0.2814 -0.4646
 2039TIP3   OH227531   2.946   2.291  13.043 -0.2359  0.0969 -0.7952
 2039TIP3    H127532   3.001   2.213  13.035  2.3072  1.7768 -0.7957
 2039TIP3    H227533   2.984   2.354  12.981 -1.2527  1.8522  0.2828
 2040TIP3   OH227534   6.034   1.569  13.220 -0.0635 -0.4403  0.9290
 2040TIP3    H127535   6.114   1.609  13.186 -0.3250 -0.0032  0.8211
 2040TIP3    H227536   6.042   1.575  13.315  1.1286 -2.5633  1.0157
 2041TIP3   OH227537   1.030   3.848   2.804  0.8662 -0.0669 -0.0789
 2041TIP3    H127538   1.111   3.865   2.754  0.8498 -0.7849 -0.3604
 2041TIP3    H227539   0.971   3.809   2.740  0.1014  0.9113 -0.0031
 2042TIP3   OH227540   0.820   1.277   6.055  0.1825 -0.4337 -0.6239
 2042TIP3    H127541   0.856   1.316   6.135 -0.9169  0.1125 -0.3786
 2042TIP3    H227542   0.892   1.282   5.992  0.6005  0.4835 -0.1042
 2043TIP3   OH227543   4.137   2.892  12.683 -0.0169  0.2260  0.1728
 2043TIP3    H127544   4.112   2.921  12.771 -1.1961  0.5225 -0.2339
 2043TIP3    H227545   4.100   2.804  12.675 -2.0343  1.0942 -0.8360
 2044TIP3   OH227546   4.720   2.010   5.041 -0.1167 -0.3944  0.1780
 2044TIP3    H127547   4.658   2.035   5.110  0.6797  1.5253  0.2690
 2044TIP3    H227548   4.671   2.019   4.960  0.1096  1.6876  0.2017
 2045TIP3   OH227549   0.416   0.947   0.086  0.2784 -0.4970  0.1503
 2045TIP3    H127550   0.340   0.924   0.139 -0.3416  0.4109 -0.3163
 2045TIP3    H227551   0.379   0.987   0.007  1.2529  1.4632  0.6230
 2046TIP3   OH227552   6.495   4.886   1.746 -0.2459  0.0860  0.8807
 2046TIP3    H127553   6.545   4.829   1.804  1.3287  0.0687 -0.4182
 2046TIP3    H227554   6.490   4.969   1.794  0.6607 -0.0476  1.2468
 2047TIP3   OH227555   6.414   0.824  15.232 -0.1100  0.0882  0.3339
 2047TIP3    H127556   6.349   0.836  15.301  0.4907 -0.2623  0.9772
 2047TIP3    H227557   6.479   0.893  15.249  0.0419 -0.0033  0.1273
 2048TIP3   OH227558   2.541   0.829  16.112 -0.0254 -0.1555 -0.2235
 2048TIP3    H127559   2.535   0.851  16.205  1.3527  0.7252 -0.3035
 2048TIP3    H227560   2.633   0.808  16.099 -0.0833  0.3092 -1.5038
 2049TIP3   OH227561   1.396   1.999  12.164  0.4479 -0.0181 -0.0644
 2049TIP3    H127562   1.470   2.040  12.118 -1.9337  1.3507 -3.1227
 2049TIP3    H227563   1.319   2.044  12.128 -1.9881 -2.5330  1.6261
 2050TIP3   OH227564   1.874   2.539   6.068 -0.0143  0.7536  0.5854
 2050TIP3    H127565   1.814   2.527   6.141 -0.0838 -1.3163  0.2390
 2050TIP3    H227566   1.822   2.580   5.999 -0.1120  2.1149  1.4323
 2051TIP3   OH227567   1.132   5.916  14.580  0.5302  0.2504  0.2686
 2051TIP3    H127568   1.201   5.867  14.536  0.3016  0.5032 -0.3909
 2051TIP3    H227569   1.097   5.854  14.645  1.6233  0.2548  0.8922
 2052TIP3   OH227570   2.530   5.367   2.661  0.3120  0.6144  0.2861
 2052TIP3    H127571   2.598   5.315   2.701  0.1587 -0.7374 -1.1222
 2052TIP3    H227572   2.470   5.304   2.623 -0.9707  1.7966  0.2456
 2053TIP3   OH227573   6.694   5.611   2.344 -0.3814  0.0868  0.1927
 2053TIP3    H127574   6.693   5.686   2.284 -2.9224 -0.0505 -0.0231
 2053TIP3    H227575   6.725   5.648   2.427 -1.0308  1.2591 -0.0588
 2054TIP3   OH227576   4.872   3.187   4.093  0.8504 -0.0523  0.0785
 2054TIP3    H127577   4.881   3.172   4.187 -0.8909  0.8813  0.4423
 2054TIP3    H227578   4.866   3.282   4.084 -0.0467 -0.1738 -0.8497
 2055TIP3   OH227579   2.739   2.661   5.716 -0.5207 -0.5795  0.1683
 2055TIP3    H127580   2.673   2.692   5.653  0.3062 -0.0712 -0.4833
 2055TIP3    H227581   2.735   2.724   5.787  0.7500  0.7618 -0.8855
 2056TIP3   OH227582   1.723   0.624   4.721 -0.2264  0.7802 -0.0649
 2056TIP3    H127583   1.753   0.675   4.796 -0.7947  1.1917 -0.1177
 2056TIP3    H227584   1.730   0.533   4.750  1.3311  0.8412 -0.1650
 2057TIP3   OH227585   5.787   3.555  13.613 -0.6323 -0.7465 -0.3966
 2057TIP3    H127586   5.757   3.465  13.626 -3.2968  0.2465  0.9512
 2057TIP3    H227587   5.840   3.575  13.690 -1.7010 -0.5308  0.2868
 2058TIP3   OH227588   4.043   5.276  11.752  0.0786  0.5545  0.4836
 2058TIP3    H127589   4.056   5.367  11.778  0.2422  0.9463 -0.8925
 2058TIP3    H227590   4.050   5.227  11.833  2.9453  1.4790  0.9024
 2059TIP3   OH227591   3.203   1.200  14.171 -0.6800 -0.0379  0.4331
 2059TIP3    H127592   3.245   1.285  14.155 -1.2759  0.1999  0.0677
 2059TIP3    H227593   3.276   1.138  14.176 -0.2429  0.4757  0.5940
 2060TIP3   OH227594   0.155   3.573  12.820 -0.1977 -0.0267  0.3158
 2060TIP3    H127595   0.171   3.541  12.909 -1.2509  1.4287  1.0749
 2060TIP3    H227596   0.082   3.520  12.788  0.2029 -0.5753  0.2973
 2061TIP3   OH227597   3.731   1.517   3.456  0.0554 -0.2246 -0.0110
 2061TIP3    H127598   3.656   1.464   3.428 -0.5921  0.4835  0.3443
 2061TIP3    H227599   3.696   1.575   3.524  0.0323  2.5020 -2.1233
 2062TIP3   OH227600   1.940   1.176  15.611  0.4475 -0.3068 -0.2539
 2062TIP3    H127601   1.913   1.248  15.554 -0.8945 -0.5866  0.0051
 2062TIP3    H227602   1.892   1.190  15.692  1.6652 -0.4138  0.5016
 2063TIP3   OH227603   3.948   2.922   0.173  0.0374 -0.0379 -0.1444
 2063TIP3    H127604   3.932   2.829   0.155 -0.9519  0.3588 -1.5327
 2063TIP3    H227605   4.000   2.952   0.099 -1.8781  1.0696 -1.1236
 2064TIP3   OH227606   6.779   2.421  16.072  0.0780  0.5425  0.3311
 2064TIP3    H127607   6.827   2.494  16.110 -1.0065  1.4028  0.0806
 2064TIP3    H227608   6.696   2.419  16.120 -0.4675  0.3587 -0.6052
 2065TIP3   OH227609   2.556   6.423   4.283 -0.4878  0.0713 -0.5898
 2065TIP3    H127610   2.625   6.486   4.262 -0.5435  0.3642  0.1095
 2065TIP3    H227611   2.593   6.338   4.258  0.2309  0.1976  0.0368
 2066TIP3   OH227612   3.568   6.325   3.903 -0.6649  0.2124  0.2623
 2066TIP3    H127613   3.581   6.301   3.995  1.9162  0.0937 -0.0596
 2066TIP3    H227614   3.580   6.420   3.900 -2.8969  0.5370  0.3253
 2067TIP3   OH227615   6.083   1.172  11.627  0.3105  0.7547 -0.2768
 2067TIP3    H127616   6.090   1.264  11.603  0.7182  0.9804  0.6641
 2067TIP3    H227617   6.003   1.167  11.680 -0.4257  0.3172 -1.4017
 2068TIP3   OH227618   5.501   1.947   5.349  0.0446 -0.1186  0.0087
 2068TIP3    H127619   5.499   2.040   5.370  2.6489 -0.0386  0.2643
 2068TIP3    H227620   5.467   1.942   5.259 -0.1129  1.0722 -0.0100
 2069TIP3   OH227621   2.818   6.389  12.351  0.3997  0.1260  0.3602
 2069TIP3    H127622   2.788   6.345  12.272 -0.3363 -0.8728  1.1675
 2069TIP3    H227623   2.765   6.469  12.355  1.6961  1.1197 -1.0720
 2070TIP3   OH227624   6.037   3.127  12.563  0.2363 -0.0819 -0.3131
 2070TIP3    H127625   6.082   3.086  12.490  0.0551  0.6225 -0.8277
 2070TIP3    H227626   5.991   3.055  12.606  0.4718 -0.5235 -0.7919
 2071TIP3   OH227627   0.040   5.748   6.196 -0.4888  0.0268 -0.2968
 2071TIP3    H127628   0.020   5.710   6.281  0.8064 -0.9252 -0.3877
 2071TIP3    H227629   0.015   5.680   6.133 -0.2679  0.2217 -0.5965
 2072TIP3   OH227630   2.903   3.076   1.396  0.4585  0.0508  0.0748
 2072TIP3    H127631   2.995   3.081   1.421  0.4703  1.1274 -0.1231
 2072TIP3    H227632   2.855   3.084   1.479  0.5269 -2.6006  0.4410
 2073TIP3   OH227633   1.075   3.109   5.787  0.1928  0.1337 -0.6711
 2073TIP3    H127634   1.035   3.100   5.873  0.6218 -1.9395 -0.6297
 2073TIP3    H227635   1.084   3.203   5.774 -0.8047  0.5175  1.1034
 2074TIP3   OH227636   0.028   1.729  11.653  0.4617 -0.0779 -0.3586
 2074TIP3    H127637   0.024   1.779  11.734 -0.6905 -1.3107  0.3929
 2074TIP3    H227638   0.095   1.662  11.670  0.0306 -0.5028 -0.3166
 2075TIP3   OH227639   1.197   1.539   0.061 -0.0596  0.4246 -0.5211
 2075TIP3    H127640   1.192   1.456   0.013 -0.5242  0.9920 -1.4951
 2075TIP3    H227641   1.134   1.529   0.132  2.8771 -1.6449  2.0366
 2076TIP3   OH227642   0.844   2.129  14.798  0.3267  0.2358  0.4657
 2076TIP3    H127643   0.868   2.109  14.889  1.7037  0.7992  0.2561
 2076TIP3    H227644   0.766   2.185  14.806 -0.0712 -0.4098  1.2544
 2077TIP3   OH227645   1.445   6.457   4.252  0.1324 -0.0720  0.2104
 2077TIP3    H127646   1.532   6.423   4.236  0.2319 -0.0301  0.6424
 2077TIP3    H227647   1.387   6.403   4.199  0.0460 -2.2182  2.3303
 2078TIP3   OH227648   5.801   0.432   4.326  0.9164 -0.2417  0.0510
 2078TIP3    H127649   5.812   0.503   4.263 -1.0484  0.2098  0.1644
 2078TIP3    H227650   5.811   0.352   4.274 -1.2992  0.1119 -1.0350
 2079TIP3   OH227651   0.737   0.343  14.964 -0.1203 -0.7831 -0.4724
 2079TIP3    H127652   0.816   0.333  15.016 -0.5001  0.7134  0.4512
 2079TIP3    H227653   0.768   0.379  14.881  0.2119 -0.7005 -0.3147
 2080TIP3   OH227654   0.648   1.601   5.245  0.2140  0.4875 -0.1157
 2080TIP3    H127655   0.687   1.514   5.249 -0.3795  0.2495  0.6649
 2080TIP3    H227656   0.606   1.605   5.160 -1.1539 -0.6088  0.4786
 2081TIP3   OH227657   4.734   6.635  12.849 -0.3968 -0.3787  0.1354
 2081TIP3    H127658   4.658   6.676  12.891  0.6521 -0.0669  1.8291
 2081TIP3    H227659   4.752   6.690  12.773 -0.2040  1.2328  1.2829
 2082TIP3   OH227660   6.638   1.769   5.774 -0.3061 -0.7709  0.4544
 2082TIP3    H127661   6.690   1.704   5.821  0.0016 -0.3808  0.6524
 2082TIP3    H227662   6.570   1.795   5.837  0.8283  0.6532  1.1521
 2083TIP3   OH227663   0.111   4.851  12.610  0.2842 -0.6071  0.3867
 2083TIP3    H127664   0.195   4.894  12.626 -0.3455  0.7593  0.1570
 2083TIP3    H227665   0.125   4.760  12.637  2.1681 -0.6870 -0.7013
 2084TIP3   OH227666   6.256   0.768  12.071  0.6231 -0.3618 -0.1404
 2084TIP3    H127667   6.340   0.744  12.110  0.0399  0.4618  1.7590
 2084TIP3    H227668   6.215   0.826  12.136 -1.3870 -0.6974 -1.0241
 2085TIP3   OH227669   4.877   3.711  12.746 -0.6043  0.2733  0.1371
 2085TIP3    H127670   4.907   3.732  12.657  2.2823 -1.3346  0.6086
 2085TIP3    H227671   4.808   3.646  12.733 -0.6624  0.5251 -0.9399
 2086TIP3   OH227672   0.675   3.565   3.784  0.1262  0.2488  0.0280
 2086TIP3    H127673   0.756   3.603   3.818 -0.2015  0.2384  0.8455
 2086TIP3    H227674   0.685   3.568   3.688  0.4862  1.5779  0.0867
 2087TIP3   OH227675   5.236   1.378   0.186 -0.4721 -0.0499 -0.0267
 2087TIP3    H127676   5.315   1.326   0.173 -1.2063 -1.0470 -0.6643
 2087TIP3    H227677   5.172   1.340   0.126 -1.4769  0.6554  0.5643
 2088TIP3   OH227678   3.906   2.643  16.354 -0.6240  0.6014 -0.6018
 2088TIP3    H127679   3.949   2.597  16.426 -1.1033 -0.1470 -0.7835
 2088TIP3    H227680   3.820   2.601  16.346 -0.5527  0.6218 -1.6498
 2089TIP3   OH227681   2.194   4.750   4.554 -0.3778  0.3750 -0.2741
 2089TIP3    H127682   2.226   4.836   4.581 -0.1554  1.0485 -2.4930
 2089TIP3    H227683   2.269   4.708   4.513 -0.4542 -0.9660  0.8594
 2090TIP3   OH227684   4.422   5.670  11.789 -0.1626 -0.1838 -0.1406
 2090TIP3    H127685   4.415   5.574  11.789  0.9968 -0.3037 -1.1607
 2090TIP3    H227686   4.428   5.693  11.696 -0.3305  0.8749  0.1002
 2091TIP3   OH227687   0.831   1.514  12.254  0.0520  0.0411  0.0431
 2091TIP3    H127688   0.784   1.555  12.182  0.2787 -0.7148 -0.5396
 2091TIP3    H227689   0.887   1.449  12.213 -0.6298 -1.1766  0.9810
 2092TIP3   OH227690   0.611   3.925  13.799  0.1970  0.4359  0.7171
 2092TIP3    H127691   0.581   3.913  13.889  0.7340 -0.5639  0.7739
 2092TIP3    H227692   0.681   3.861  13.788  0.9210  1.3309 -0.0536
 2093TIP3   OH227693   5.357   3.400   4.684  0.4143 -0.0146 -0.4652
 2093TIP3    H127694   5.417   3.328   4.667  0.0544 -0.3451 -0.3563
 2093TIP3    H227695   5.412   3.478   4.684  0.9050 -0.3582  0.0516
 2094TIP3   OH227696   0.375   4.072  17.162  0.3398  0.3019  0.4351
 2094TIP3    H127697   0.444   4.052  17.226  0.0327 -1.1774  0.3245
 2094TIP3    H227698   0.294   4.041  17.203  0.2054 -1.1829 -0.8636
 2095TIP3   OH227699   1.155   3.454  14.711 -0.0069 -0.2899 -0.1957
 2095TIP3    H127700   1.206   3.448  14.792  0.0631  1.3568 -0.0941
 2095TIP3    H227701   1.066   3.472  14.739 -0.3438 -1.4358 -0.4489
 2096TIP3   OH227702   6.582   6.428  16.429 -0.0587 -0.5859 -0.0301
 2096TIP3    H127703   6.593   6.342  16.469  1.4937 -0.0155  0.8311
 2096TIP3    H227704   6.647   6.430  16.359 -1.5091 -0.8742 -1.4318
 2097TIP3   OH227705   0.667   4.122  11.458 -0.0905 -0.1354  0.5275
 2097TIP3    H127706   0.683   4.063  11.531 -1.6819 -1.8836 -0.4699
 2097TIP3    H227707   0.754   4.139  11.422  0.6364  0.0761  2.2364
 2098TIP3   OH227708   1.628   5.297  11.805 -0.5112  0.1362 -0.1261
 2098TIP3    H127709   1.708   5.332  11.766 -0.6784 -0.3220 -0.8960
 2098TIP3    H227710   1.586   5.373  11.845  0.0997  0.4572 -0.0900
 2099TIP3   OH227711   6.162   2.073  15.889 -0.1145 -1.0064 -0.1565
 2099TIP3    H127712   6.197   2.076  15.978  0.6545 -1.4592 -0.4345
 2099TIP3    H227713   6.077   2.116  15.896  0.9891  1.2762  0.2950
 2100TIP3   OH227714   6.395   4.062  16.640 -0.2963 -0.0654  0.0667
 2100TIP3    H127715   6.368   4.129  16.703  1.1337  2.4741 -1.8307
 2100TIP3    H227716   6.453   4.004  16.689 -1.5157  0.0806  1.7520
 2101TIP3   OH227717   5.254   1.583   1.775 -0.2292  0.2215 -0.1356
 2101TIP3    H127718   5.312   1.659   1.781 -1.9380  1.5084  1.0292
 2101TIP3    H227719   5.301   1.513   1.820  1.9869  0.0970 -2.4143
 2102TIP3   OH227720   4.779   2.327  13.781  0.6389  0.3905 -0.0050
 2102TIP3    H127721   4.826   2.279  13.712  0.5894  2.5988 -1.6928
 2102TIP3    H227722   4.836   2.321  13.857  0.9971 -1.6113 -0.3559
 2103TIP3   OH227723   4.986   5.253  12.074  0.2414 -0.5816  0.0203
 2103TIP3    H127724   5.078   5.279  12.076  0.3542 -0.9513 -0.1205
 2103TIP3    H227725   4.939   5.325  12.115  0.3958  0.3879 -1.4732
 2104TIP3   OH227726   2.387   4.503   1.462 -0.5326 -0.2522 -0.4023
 2104TIP3    H127727   2.390   4.575   1.525  0.8664  0.0869 -0.8125
 2104TIP3    H227728   2.326   4.440   1.500  1.1724 -0.6150  1.9331
 2105TIP3   OH227729   2.953   5.759  14.512  0.3890  0.3507 -0.6803
 2105TIP3    H127730   2.882   5.807  14.554 -0.1244 -0.6261 -0.4126
 2105TIP3    H227731   3.031   5.785  14.560  0.0215  0.3865 -0.0981
 2106TIP3   OH227732   4.991   5.400  16.978 -0.2793  0.1699  0.4339
 2106TIP3    H127733   5.083   5.384  16.956 -0.5385 -1.9407  0.6957
 2106TIP3    H227734   4.943   5.382  16.897 -0.5925 -0.2484  0.7093
 2107TIP3   OH227735   4.740   1.614   2.546 -0.3488 -0.0398  0.1945
 2107TIP3    H127736   4.726   1.527   2.509 -0.1451 -0.2830  0.6700
 2107TIP3    H227737   4.813   1.650   2.496  1.1420 -1.0822  1.5115
 2108TIP3   OH227738   3.249   5.732   6.299 -0.3569 -0.0633  0.1635
 2108TIP3    H127739   3.217   5.769   6.381 -1.7337 -2.1223  0.6451
 2108TIP3    H227740   3.286   5.647   6.324 -0.1324 -0.4057 -1.2432
 2109TIP3   OH227741   5.124   2.853   3.713 -0.1300 -0.1196 -0.3025
 2109TIP3    H127742   5.139   2.941   3.679  0.6042  0.0405  0.3927
 2109TIP3    H227743   5.069   2.867   3.790  1.2459 -0.0860  0.7171
 2110TIP3   OH227744   0.022   4.074  16.250 -0.3602  0.5805 -0.3574
 2110TIP3    H127745  -0.016   4.003  16.199 -1.0947  0.2348  0.6266
 2110TIP3    H227746  -0.051   4.106  16.304  0.6574  0.0602  1.4193
 2111TIP3   OH227747   3.482   3.750   0.507  0.3711  0.6490  0.3905
 2111TIP3    H127748   3.502   3.741   0.414  0.4064 -1.3499  0.5406
 2111TIP3    H227749   3.566   3.741   0.551  0.0320 -1.3257  0.7168
 2112TIP3   OH227750   2.300   0.056  17.248 -0.0249  0.4776 -0.0163
 2112TIP3    H127751   2.360  -0.017  17.231 -0.2844  0.2771 -0.0807
 2112TIP3    H227752   2.337   0.130  17.200  0.4555  0.4918  0.3741
 2113TIP3   OH227753   6.571   5.674   1.286 -0.2543 -0.0484 -0.0045
 2113TIP3    H127754   6.490   5.711   1.321 -0.3742  0.0790 -0.4104
 2113TIP3    H227755   6.588   5.724   1.206  0.6584  0.4584  0.4916
 2114TIP3   OH227756   4.555   2.003  11.817  0.2310  0.0436 -0.1697
 2114TIP3    H127757   4.575   2.060  11.742  1.0188 -0.5190 -0.3927
 2114TIP3    H227758   4.633   1.950  11.829  1.3646  2.1303  2.9505
 2115TIP3   OH227759   5.014   4.420  16.353 -0.1017 -0.3501  0.2534
 2115TIP3    H127760   5.015   4.367  16.433  0.0945  0.0927  0.5524
 2115TIP3    H227761   4.921   4.425  16.329 -0.0239 -1.8387 -0.4795
 2116TIP3   OH227762   1.473   1.530  11.424 -0.3008  0.2550 -0.3501
 2116TIP3    H127763   1.511   1.616  11.405 -1.1016  0.7617  0.2367
 2116TIP3    H227764   1.409   1.548  11.493 -1.3631 -0.6137 -1.0865
 2117TIP3   OH227765   3.881   6.142   8.791  0.1170  0.3809 -0.1866
 2117TIP3    H127766   3.896   6.112   8.701  1.6138  0.6684 -0.0457
 2117TIP3    H227767   3.957   6.111   8.840 -0.0838  1.2959  0.7229
 2118TIP3   OH227768   2.864   1.738   0.139  0.5976 -0.6276  0.2076
 2118TIP3    H127769   2.778   1.755   0.178 -0.4492 -0.4150 -1.9757
 2118TIP3    H227770   2.918   1.707   0.211 -1.2696 -0.6045  1.7034
 2119TIP3   OH227771   3.649   1.107   5.251  0.5635  0.0197  0.0342
 2119TIP3    H127772   3.571   1.111   5.307 -0.0833  1.1370 -0.8993
 2119TIP3    H227773   3.703   1.037   5.290 -0.8663 -0.7439  0.7270
 2120TIP3   OH227774   3.162   4.102   1.657 -0.4168 -0.4975  0.0940
 2120TIP3    H127775   3.206   4.177   1.697 -0.6277 -0.2614 -0.1237
 2120TIP3    H227776   3.229   4.062   1.601 -0.8761  0.6643 -1.3203
 2121TIP3   OH227777   3.104   3.847   5.338 -0.0989 -0.9910 -0.4630
 2121TIP3    H127778   3.117   3.868   5.431  2.9091  0.3737 -1.0939
 2121TIP3    H227779   3.019   3.802   5.336 -1.5113  1.1532  2.5755
 2122TIP3   OH227780   5.814   4.223  11.219  0.1447 -0.1380 -0.3517
 2122TIP3    H127781   5.856   4.223  11.133  0.3677 -2.1189 -0.2949
 2122TIP3    H227782   5.728   4.184  11.203  0.5430 -1.4111  0.4347
 2123TIP3   OH227783   0.319   3.765  12.994  0.1304  0.8521  0.3254
 2123TIP3    H127784   0.326   3.711  13.073 -1.5111 -0.2785 -0.2419
 2123TIP3    H227785   0.264   3.714  12.935  1.3549  1.6587 -1.5956
 2124TIP3   OH227786   0.307   3.986  15.630 -0.7523  0.2310 -0.2587
 2124TIP3    H127787   0.401   3.987  15.649 -0.7011  0.5554 -0.5100
 2124TIP3    H227788   0.268   4.029  15.706 -0.7770 -0.6218  0.2213
 2125TIP3   OH227789   4.789   2.782   3.560 -0.7925 -0.1284 -0.6451
 2125TIP3    H127790   4.694   2.788   3.562 -0.8607 -1.3254  0.4279
 2125TIP3    H227791   4.819   2.869   3.589 -1.5849 -0.3603  0.9408
 2126TIP3   OH227792   0.408   5.496   1.515 -0.8069  0.1459  0.1532
 2126TIP3    H127793   0.468   5.487   1.441 -0.5823 -1.5289  0.4867
 2126TIP3    H227794   0.328   5.453   1.485 -0.5199 -1.0687  1.0490
 2127TIP3   OH227795   5.344   1.342  12.558  0.0196  0.1490  0.1477
 2127TIP3    H127796   5.333   1.420  12.504  0.1670 -0.6766 -1.1433
 2127TIP3    H227797   5.376   1.374  12.642  2.0239  1.3302 -0.9922
 2128TIP3   OH227798   4.491   4.866  12.875 -0.2950 -0.7760 -0.9896
 2128TIP3    H127799   4.445   4.831  12.798  1.6284 -0.3794 -2.4028
 2128TIP3    H227800   4.527   4.788  12.918  1.1515 -0.8576 -2.2476
 2129TIP3   OH227801   2.431   5.256   1.430 -0.4208 -0.1519 -0.2483
 2129TIP3    H127802   2.440   5.329   1.368 -1.4958  0.5083  0.3404
 2129TIP3    H227803   2.389   5.187   1.379  0.8668 -0.4999 -0.8913
 2130TIP3   OH227804   3.618   4.405  15.318  0.3744  0.2650 -0.1317
 2130TIP3    H127805   3.695   4.455  15.344  0.0829  0.1037  1.1045
 2130TIP3    H227806   3.545   4.449  15.363  0.0846 -1.1518  0.8139
 2131TIP3   OH227807   2.028   2.321  12.667 -0.0065  0.0493 -0.0281
 2131TIP3    H127808   2.061   2.361  12.748  2.2740 -2.0045  0.1738
 2131TIP3    H227809   2.052   2.229  12.675  0.1693 -0.2473 -3.0047
 2132TIP3   OH227810   1.540   0.043  17.032 -0.4851  0.0484  0.0180
 2132TIP3    H127811   1.463   0.011  16.985  0.7209 -0.9464 -1.3806
 2132TIP3    H227812   1.600   0.071  16.962  0.9174 -0.3991  1.0130
 2133TIP3   OH227813   2.568   2.104   5.628  0.4967 -0.2982 -0.0395
 2133TIP3    H127814   2.558   2.011   5.612 -2.8548 -0.0547  0.0514
 2133TIP3    H227815   2.570   2.144   5.541  0.3080 -0.3380 -0.0622
 2134TIP3   OH227816   3.348   6.557   1.762 -0.1257  0.1190 -0.0078
 2134TIP3    H127817   3.442   6.550   1.779 -0.5107 -0.2052  2.3049
 2134TIP3    H227818   3.331   6.650   1.753  0.3773  0.2040 -0.0659
 2135TIP3   OH227819   4.877   5.384   6.325 -0.1116 -0.2609 -0.3171
 2135TIP3    H127820   4.785   5.405   6.311  0.2886  0.6962 -1.7688
 2135TIP3    H227821   4.909   5.454   6.381 -0.3758 -0.8917  0.6396
 2136TIP3   OH227822   2.782   3.714   3.553 -0.4479 -0.0067 -0.2810
 2136TIP3    H127823   2.829   3.796   3.536 -0.1307 -0.2621 -0.6506
 2136TIP3    H227824   2.816   3.653   3.487 -1.5328 -0.1097 -0.7546
 2137TIP3   OH227825   3.915   6.014  14.621 -0.3725  0.4206 -0.2085
 2137TIP3    H127826   3.940   6.005  14.712  1.3095  0.6569 -0.6233
 2137TIP3    H227827   3.862   5.936  14.603  1.2398 -0.8476  0.3444
 2138TIP3   OH227828   5.890   1.581   4.761 -0.3113 -0.5667 -0.0271
 2138TIP3    H127829   5.851   1.511   4.708 -0.2633 -2.3984  2.2210
 2138TIP3    H227830   5.875   1.660   4.709 -3.4538 -1.7192 -1.1573
 2139TIP3   OH227831   2.150   0.111   4.618  0.4072  0.0171  0.5642
 2139TIP3    H127832   2.173   0.028   4.661 -0.4782 -0.2117  0.6239
 2139TIP3    H227833   2.136   0.172   4.690  1.5442  0.3730  0.5090
 2140TIP3   OH227834   3.090   4.786   4.691 -0.2474 -0.2668  0.8840
 2140TIP3    H127835   3.134   4.711   4.653 -1.2641 -0.0626 -0.8276
 2140TIP3    H227836   3.151   4.819   4.757  1.3463 -1.0413 -0.1340
 2141TIP3   OH227837   0.257   4.191  13.515 -0.0624 -0.1923  0.5531
 2141TIP3    H127838   0.224   4.260  13.458  0.5488  0.3375  0.8236
 2141TIP3    H227839   0.207   4.201  13.596 -1.4738 -1.4284 -0.1107
 2142TIP3   OH227840   3.840   2.439  12.234 -0.1524 -0.3609  0.1119
 2142TIP3    H127841   3.746   2.439  12.252 -0.1076  0.9547  0.4502
 2142TIP3    H227842   3.846   2.445  12.138 -0.4464  1.3294  0.1674
 2143TIP3   OH227843   1.033   1.731   3.018 -0.7108  0.5713 -0.1597
 2143TIP3    H127844   1.048   1.642   3.050 -2.5148  0.3013  0.0266
 2143TIP3    H227845   1.061   1.787   3.090 -1.2961  0.0886  0.4515
 2144TIP3   OH227846   0.322   3.884   2.576  0.3336 -0.0265  0.3989
 2144TIP3    H127847   0.254   3.817   2.583  1.1602 -1.0449 -0.8183
 2144TIP3    H227848   0.302   3.945   2.647 -1.6692 -0.4342  0.2585
 2145TIP3   OH227849   0.596   0.249   0.463 -0.3094  0.1653  0.4341
 2145TIP3    H127850   0.541   0.299   0.402 -0.3101  0.7730  0.9200
 2145TIP3    H227851   0.545   0.171   0.483  0.8237 -1.4995 -2.4849
 2146TIP3   OH227852   0.041   1.524  12.063 -0.6129 -0.1048 -0.0139
 2146TIP3    H127853   0.034   1.485  12.150 -0.1869 -0.7244 -0.2541
 2146TIP3    H227854   0.032   1.451  12.003 -2.6626  0.5226 -0.5632
 2147TIP3   OH227855   0.263   5.484   3.942 -0.2772  0.1887 -0.1866
 2147TIP3    H127856   0.209   5.437   3.878  0.4698 -2.2596  0.8749
 2147TIP3    H227857   0.353   5.463   3.918  0.0748  0.8619  0.5051
 2148TIP3   OH227858   1.856   2.720   1.485  0.1025  0.5562  0.3197
 2148TIP3    H127859   1.857   2.785   1.416  0.0540  1.3657  1.0613
 2148TIP3    H227860   1.924   2.658   1.461 -1.5502 -0.5848 -1.7458
 2149TIP3   OH227861   6.583   1.183  12.243  0.2492 -0.1991  0.5646
 2149TIP3    H127862   6.609   1.243  12.313  0.6208  0.0284  0.2350
 2149TIP3    H227863   6.603   1.230  12.162  0.4350 -0.7195  0.3028
 2150TIP3   OH227864   1.171   6.078  13.720 -0.2262  0.0344  0.6091
 2150TIP3    H127865   1.195   6.170  13.730  0.1251 -0.0137  0.2646
 2150TIP3    H227866   1.209   6.053  13.636 -0.3861 -0.4038  0.6647
 2151TIP3   OH227867   3.568   3.546  13.219 -0.0976 -0.5605  0.8282
 2151TIP3    H127868   3.659   3.567  13.236 -0.1607  2.8441 -1.7223
 2151TIP3    H227869   3.570   3.489  13.142 -0.1599 -2.4751  2.1828
 2152TIP3   OH227870   4.747   3.545   0.140 -0.1672 -0.4300 -0.4158
 2152TIP3    H127871   4.750   3.489   0.062 -1.5773 -0.5512 -0.4187
 2152TIP3    H227872   4.818   3.513   0.195 -0.5236 -1.8107 -0.7036
 2153TIP3   OH227873   5.828   3.415  13.931 -0.0829 -0.3735  0.2776
 2153TIP3    H127874   5.759   3.349  13.937 -0.6166  0.1440 -0.0846
 2153TIP3    H227875   5.823   3.464  14.013 -1.2293  0.7025 -0.4015
 2154TIP3   OH227876   5.039   3.934   1.152 -0.3702 -0.0840  0.3225
 2154TIP3    H127877   5.104   3.943   1.082  0.5356 -0.0293  1.1591
 2154TIP3    H227878   4.970   3.995   1.128 -0.3800 -0.5212 -0.8599
 2155TIP3   OH227879   1.003   1.193   3.311  0.2230 -0.0212  0.4454
 2155TIP3    H127880   1.015   1.112   3.262 -0.9577 -1.1321  1.9128
 2155TIP3    H227881   0.916   1.224   3.286  0.3807  0.4280  0.4347
 2156TIP3   OH227882   1.288   6.722   3.604  0.3584 -0.8022  0.3977
 2156TIP3    H127883   1.236   6.744   3.682  0.6374 -0.2131  0.4271
 2156TIP3    H227884   1.375   6.755   3.624  0.6976 -1.5969  0.2613
 2157TIP3   OH227885   1.979   2.515  13.632 -0.7100 -0.2258  0.4677
 2157TIP3    H127886   2.010   2.512  13.722 -0.3356 -1.2804  0.3172
 2157TIP3    H227887   2.013   2.435  13.592  0.6587  1.0513 -1.0905
 2158TIP3   OH227888   0.109   0.442  11.777 -0.2883 -0.3791 -0.4446
 2158TIP3    H127889   0.104   0.499  11.854 -0.8593  0.4073 -1.0464
 2158TIP3    H227890   0.112   0.353  11.813  2.5454  0.0332  0.5980
 2159TIP3   OH227891   3.530   2.977   1.693  0.1296 -0.5764 -0.3882
 2159TIP3    H127892   3.481   2.897   1.715  2.1775 -1.4324  1.4132
 2159TIP3    H227893   3.585   2.952   1.619  0.4871 -0.7541 -0.0700
 2160TIP3   OH227894   6.595   4.613   0.338 -0.6064  0.3530  0.1566
 2160TIP3    H127895   6.575   4.527   0.374  3.3681  0.3764  3.1278
 2160TIP3    H227896   6.639   4.595   0.255 -2.4448 -0.2089 -0.7417
 2161TIP3   OH227897   5.878   3.960   2.041 -0.7552 -0.1614 -0.1746
 2161TIP3    H127898   5.865   3.924   1.953 -0.7358 -1.6557  0.4017
 2161TIP3    H227899   5.912   4.048   2.026 -2.0330  0.1186 -1.6631
 2162TIP3   OH227900   0.260   2.428  13.646  0.5207  0.1582 -0.6661
 2162TIP3    H127901   0.175   2.437  13.688  0.5802 -1.0851 -0.2278
 2162TIP3    H227902   0.323   2.445  13.716  0.6359 -3.1307  0.1941
 2163TIP3   OH227903   3.443   4.030  16.713  0.1703 -0.6340 -0.0647
 2163TIP3    H127904   3.411   4.115  16.683 -1.1671 -1.2991 -0.5769
 2163TIP3    H227905   3.496   4.051  16.790 -2.0298  0.4926  1.2444
 2164TIP3   OH227906   3.093   4.165  14.321 -0.2278  0.0582 -0.1732
 2164TIP3    H127907   3.034   4.143  14.249  0.4675 -0.3420 -0.6316
 2164TIP3    H227908   3.045   4.140  14.400  0.5988 -3.5058 -0.6340
 2165TIP3   OH227909   0.194   0.782  15.812  0.1038  0.1189  0.9697
 2165TIP3    H127910   0.285   0.799  15.785  0.3532 -1.1820  0.8845
 2165TIP3    H227911   0.173   0.698  15.770 -0.9401  0.1122  1.4814
 2166TIP3   OH227912   3.839   4.871  15.885 -0.6027 -0.2413  0.3983
 2166TIP3    H127913   3.785   4.797  15.913 -1.0431 -0.6622 -1.4736
 2166TIP3    H227914   3.921   4.861  15.934 -0.9441 -1.5259  0.7269
 2167TIP3   OH227915   3.389   2.527   4.294  0.6553  0.0555 -0.0106
 2167TIP3    H127916   3.310   2.526   4.348  0.4371 -0.5050 -0.3282
 2167TIP3    H227917   3.408   2.620   4.281  0.0802  0.1953  0.1159
 2168TIP3   OH227918   6.737   1.430  16.797 -0.4447 -0.0392 -0.2723
 2168TIP3    H127919   6.687   1.452  16.875  2.1779 -1.0494  1.8703
 2168TIP3    H227920   6.703   1.344  16.770  0.5141 -1.0962  1.6375
 2169TIP3   OH227921   1.010   1.696   2.747  0.5163 -0.1204 -0.4684
 2169TIP3    H127922   1.044   1.691   2.837  0.9090  0.0930 -0.6029
 2169TIP3    H227923   0.933   1.753   2.754 -0.1933 -1.1096 -0.0547
 2170TIP3   OH227924   1.487   5.362  10.904  0.0975  0.1806  0.6964
 2170TIP3    H127925   1.463   5.455  10.897  0.3885  0.1388 -1.5814
 2170TIP3    H227926   1.443   5.332  10.984 -1.3739  1.8774  0.5866
 2171TIP3   OH227927   3.507   0.017   6.315  0.3078 -0.2484  0.1005
 2171TIP3    H127928   3.537   0.034   6.404 -0.9139 -2.1951  0.9453
 2171TIP3    H227929   3.587  -0.002   6.266  0.9707  0.5572  0.8281
 2172TIP3   OH227930   0.285   0.819   1.481 -0.5198  0.0114  0.2850
 2172TIP3    H127931   0.214   0.774   1.528 -0.0273 -1.2851 -0.1688
 2172TIP3    H227932   0.342   0.853   1.551 -1.1778  0.3897  0.6424
 2173TIP3   OH227933   6.772   3.992   4.769 -0.1153  0.0843 -0.1222
 2173TIP3    H127934   6.816   4.072   4.740 -0.1921  0.0516 -0.3301
 2173TIP3    H227935   6.704   3.977   4.703 -0.0371 -0.2066 -0.1378
 2174TIP3   OH227936   6.287   6.183  13.117 -0.0255 -0.0794  0.1742
 2174TIP3    H127937   6.226   6.119  13.081  1.6204 -2.2147  0.9576
 2174TIP3    H227938   6.362   6.181  13.056  1.8179 -2.0693  2.3144
 2175TIP3   OH227939   6.445   3.101  11.520  0.2117  0.2823 -0.0961
 2175TIP3    H127940   6.537   3.094  11.497  0.4047 -0.8575  0.9493
 2175TIP3    H227941   6.440   3.069  11.610 -1.3177 -0.3634 -0.3858
 2176TIP3   OH227942   3.529   3.642   2.068 -0.9104 -0.0784 -0.5381
 2176TIP3    H127943   3.614   3.624   2.029 -0.5386 -2.1487  1.0558
 2176TIP3    H227944   3.477   3.681   1.998  1.4836  1.7510 -1.4050
 2177TIP3   OH227945   4.837   2.097  16.340  0.2777 -0.1232  0.0720
 2177TIP3    H127946   4.924   2.068  16.370  0.0184 -0.9640  0.0458
 2177TIP3    H227947   4.828   2.057  16.253 -0.7834 -1.4013  0.7314
 2178TIP3   OH227948   0.966   6.211   6.029 -0.1525  0.1380  0.1562
 2178TIP3    H127949   1.003   6.247   5.949 -0.2110 -1.2385 -0.5010
 2178TIP3    H227950   1.011   6.259   6.099  1.2543  0.0640 -0.6594
 2179TIP3   OH227951   1.932   4.229   4.971 -0.0367 -0.0982  0.2381
 2179TIP3    H127952   1.940   4.257   4.880  0.4573  0.6186  0.4954
 2179TIP3    H227953   1.902   4.307   5.018 -0.4379 -0.5027  0.6719
 2180TIP3   OH227954   6.719   6.719   5.439  0.0197  0.0053 -0.1921
 2180TIP3    H127955   6.775   6.646   5.466 -0.9585 -0.8345 -0.3611
 2180TIP3    H227956   6.630   6.682   5.441 -0.6045  1.4787  0.6997
 2181TIP3   OH227957   3.020   0.010  13.422 -0.3223 -0.3003 -0.0730
 2181TIP3    H127958   3.048   0.047  13.506  0.4662 -0.4902 -0.2396
 2181TIP3    H227959   3.050  -0.081  13.425  0.1317 -0.1819 -0.7441
 2182TIP3   OH227960   0.978   5.007  15.643  0.1507  0.0088  0.1447
 2182TIP3    H127961   0.968   5.071  15.714 -0.9329 -1.1433  1.0682
 2182TIP3    H227962   0.980   5.060  15.563 -2.0172  1.1666  0.7765
 2183TIP3   OH227963   3.811   2.700   2.759 -0.9060  0.4680 -0.5986
 2183TIP3    H127964   3.799   2.774   2.700 -1.3201  1.5236  0.7474
 2183TIP3    H227965   3.800   2.737   2.847 -4.3689 -1.7455  0.0857
 2184TIP3   OH227966   4.281   3.994  13.885  0.2076  0.0745 -0.2422
 2184TIP3    H127967   4.303   4.031  13.971  0.9501  1.2019 -0.8949
 2184TIP3    H227968   4.192   3.960  13.896  0.5052 -0.3274  1.1331
 2185TIP3   OH227969   1.845   6.357   6.501 -0.7043  0.0458  0.1277
 2185TIP3    H127970   1.878   6.437   6.459  2.1693 -1.2864 -0.3665
 2185TIP3    H227971   1.818   6.386   6.588  1.1769  1.4520  0.3052
 2186TIP3   OH227972   0.108   2.037   5.959  0.1883  0.2049  0.4355
 2186TIP3    H127973   0.054   2.006   6.032 -0.6387  0.0060 -0.2476
 2186TIP3    H227974   0.156   1.960   5.930  0.0153  0.1329  0.3409
 2187TIP3   OH227975   0.219   1.093   2.669  0.1963  0.4999  0.0974
 2187TIP3    H127976   0.137   1.112   2.623 -0.2341 -2.2156 -0.4553
 2187TIP3    H227977   0.275   1.052   2.603  0.6152 -0.9453  1.2768
 2188TIP3   OH227978   5.511   0.912   2.378 -0.4029 -0.6458 -0.1133
 2188TIP3    H127979   5.573   0.973   2.338 -0.4380  0.1796  1.0452
 2188TIP3    H227980   5.474   0.960   2.452 -0.2628 -2.1654  0.9891
 2189TIP3   OH227981   5.797   6.753   1.757  0.1424  0.3480 -0.9679
 2189TIP3    H127982   5.760   6.759   1.845  2.5254 -1.5108  0.2735
 2189TIP3    H227983   5.738   6.806   1.703 -1.1489  1.9720  1.7898
 2190TIP3   OH227984   5.514   3.365  11.641 -0.2277  0.5445 -0.4160
 2190TIP3    H127985   5.553   3.351  11.555  0.5881  1.6397 -0.2540
 2190TIP3    H227986   5.464   3.286  11.658 -0.8560  0.5360 -2.1252
 2191TIP3   OH227987   2.015   1.505   0.399  0.0928 -0.2754 -0.3652
 2191TIP3    H127988   2.038   1.484   0.308 -0.7835  0.2649 -0.7258
 2191TIP3    H227989   1.934   1.555   0.392 -0.5936 -1.1846  0.7834
 2192TIP3   OH227990   4.084   2.158   5.708 -0.3134 -0.4090 -0.2272
 2192TIP3    H127991   4.040   2.073   5.711 -1.5607  0.2232  0.2862
 2192TIP3    H227992   4.158   2.145   5.649  0.9823 -2.5270  1.7029
 2193TIP3   OH227993   2.082   0.958   1.687  0.5179 -0.1521 -0.3423
 2193TIP3    H127994   2.075   0.867   1.714 -0.4798 -0.7579 -2.4218
 2193TIP3    H227995   2.144   0.997   1.749 -0.0902 -1.8604  1.4549
 2194TIP3   OH227996   1.345   2.650  11.449 -0.5630 -0.6273  0.1829
 2194TIP3    H127997   1.353   2.557  11.429  0.7911 -0.4710 -0.1244
 2194TIP3    H227998   1.336   2.692  11.363  1.4792 -0.2803  0.0809
 2195TIP3   OH227999   3.861   0.350  11.488 -0.2583  0.0420  0.0633
 2195TIP3    H128000   3.894   0.261  11.499 -0.7871 -0.0341  1.1091
 2195TIP3    H228001   3.891   0.397  11.565 -0.9296  0.4804  0.0691
 2196TIP3   OH228002   4.944   1.071  15.193  0.0543 -0.2212 -0.4552
 2196TIP3    H128003   4.965   0.990  15.147 -0.8991 -0.9560  0.3498
 2196TIP3    H228004   4.854   1.059  15.222  0.9747 -0.3422  2.6941
 2197TIP3   OH228005   3.477   5.133  12.631  0.0123 -0.0644 -0.3435
 2197TIP3    H128006   3.548   5.070  12.624  2.4044  2.5216 -1.1855
 2197TIP3    H228007   3.461   5.142  12.725  2.5658  1.0221  0.0619
 2198TIP3   OH228008   2.144   1.433   2.842 -0.1468  0.1509 -0.5703
 2198TIP3    H128009   2.163   1.421   2.935 -2.5194  0.0711 -0.0158
 2198TIP3    H228010   2.181   1.356   2.799  1.3754  0.4051  0.2131
 2199TIP3   OH228011   6.043   2.851   1.043  0.6708  0.1414  0.5302
 2199TIP3    H128012   5.983   2.886   1.109 -0.3934  1.4122 -1.0411
 2199TIP3    H228013   5.990   2.841   0.964  2.0158 -0.8782 -0.2988
 2200TIP3   OH228014   5.587   5.721  16.974 -0.0991 -0.0390  0.0219
 2200TIP3    H128015   5.538   5.724  16.891  0.8933 -0.4806 -0.5876
 2200TIP3    H228016   5.661   5.781  16.960  0.7512 -1.0450  0.1325
 2201TIP3   OH228017   4.582   6.191  10.616 -0.3680  0.2694 -0.2008
 2201TIP3    H128018   4.492   6.223  10.614 -0.1140  0.9854 -0.6764
 2201TIP3    H228019   4.633   6.267  10.644 -0.0977 -0.5983  1.8342
 2202TIP3   OH228020   2.157   3.314  12.642  0.2584 -0.1899  0.4250
 2202TIP3    H128021   2.131   3.324  12.733  0.2764  1.9091  0.2589
 2202TIP3    H228022   2.077   3.329  12.592  0.7015  1.1267  0.0639
 2203TIP3   OH228023   0.334   6.625  17.167  0.2280  0.6093 -0.2302
 2203TIP3    H128024   0.293   6.541  17.188 -0.2691  1.4406  2.5849
 2203TIP3    H228025   0.260   6.685  17.154  0.5734  0.8503 -1.1090
 2204TIP3   OH228026   0.276   3.040  12.002 -0.4382  0.3975  0.3057
 2204TIP3    H128027   0.293   3.129  11.969 -0.1024 -0.0494 -0.7613
 2204TIP3    H228028   0.182   3.028  11.990 -0.5738  0.7914  0.9325
 2205TIP3   OH228029   4.724   5.068  13.703  0.1432 -0.0406  0.3679
 2205TIP3    H128030   4.817   5.060  13.683  0.6075  0.7952  1.9915
 2205TIP3    H228031   4.679   5.028  13.628  1.7618  0.5935 -0.9968
 2206TIP3   OH228032   0.044   6.257   0.919  0.2380 -0.2306 -0.0597
 2206TIP3    H128033   0.009   6.313   0.988 -1.3927 -0.1956 -0.8547
 2206TIP3    H228034   0.038   6.169   0.954  0.1351 -0.1450  0.1413
 2207TIP3   OH228035   0.156   1.131   5.049  0.2520 -0.1266 -0.1170
 2207TIP3    H128036   0.092   1.066   5.082 -0.4725  0.0557 -1.1268
 2207TIP3    H228037   0.233   1.079   5.028  0.7052 -0.2693  1.7278
 2208TIP3   OH228038   2.167   0.232  12.757  0.4319  0.4460 -0.3631
 2208TIP3    H128039   2.201   0.290  12.826 -0.2109  0.0257  0.3229
 2208TIP3    H228040   2.072   0.239  12.765  0.3457 -0.6269 -0.3272
 2209TIP3   OH228041   2.920   6.554   3.386  0.0673  0.5196 -0.6940
 2209TIP3    H128042   3.015   6.553   3.383  0.0889  1.7797 -3.2193
 2209TIP3    H228043   2.894   6.594   3.303 -2.7010 -1.4523 -0.9241
 2210TIP3   OH228044   4.422   5.657  13.263  0.2613 -0.3561  0.1323
 2210TIP3    H128045   4.435   5.706  13.182  0.5592 -1.4691 -0.5129
 2210TIP3    H228046   4.333   5.622  13.256  0.6181 -1.2229 -0.1473
 2211TIP3   OH228047   3.708   3.032   1.219 -0.0011  0.1686 -0.0016
 2211TIP3    H128048   3.783   3.090   1.227  2.0749 -2.6011  3.9107
 2211TIP3    H228049   3.647   3.060   1.287 -0.4450 -0.3654 -0.1672
 2212TIP3   OH228050   4.624   4.561   4.395  0.7925 -0.4014 -0.0540
 2212TIP3    H128051   4.678   4.637   4.414  2.5777 -1.6828  0.2073
 2212TIP3    H228052   4.675   4.511   4.331 -0.7810 -0.9288 -0.9501
 2213TIP3   OH228053   2.906   6.156   0.872  0.3170 -0.5829  0.2288
 2213TIP3    H128054   2.850   6.177   0.798 -0.0887  0.2790  0.7636
 2213TIP3    H228055   2.856   6.183   0.949  1.3598  0.0141  0.7290
 2214TIP3   OH228056   0.930   0.190  16.352 -0.4157  0.7629  0.0174
 2214TIP3    H128057   0.853   0.169  16.298 -1.6840  1.9213  1.2860
 2214TIP3    H228058   1.004   0.159  16.300 -1.7907 -2.2617 -0.3903
 2215TIP3   OH228059   2.689   6.202  15.709  0.3699 -0.2688 -0.2561
 2215TIP3    H128060   2.700   6.121  15.758  1.0772  0.3818  0.6778
 2215TIP3    H228061   2.595   6.206  15.691  0.2213 -0.9115  0.3405
 2216TIP3   OH228062   3.180   6.657  14.723 -0.0608 -0.0400  0.5069
 2216TIP3    H128063   3.151   6.582  14.775 -1.1514  0.6932  0.9859
 2216TIP3    H228064   3.103   6.713  14.715  0.2787  0.2396 -1.2921
 2217TIP3   OH228065   2.050   6.227   4.880  0.1427 -0.0736 -0.3816
 2217TIP3    H128066   2.034   6.134   4.866 -0.8270 -0.1530  1.0400
 2217TIP3    H228067   2.142   6.240   4.857 -0.3997 -0.7876 -3.3816
 2218TIP3   OH228068   0.286   4.989   5.249 -0.0362 -0.2592  0.0270
 2218TIP3    H128069   0.198   5.008   5.217 -0.2036 -0.1527  0.5350
 2218TIP3    H228070   0.344   5.045   5.198 -0.2156 -0.6436 -0.6121
 2219TIP3   OH228071   3.156   4.287  12.402 -0.4554 -0.0111 -0.0920
 2219TIP3    H128072   3.207   4.279  12.482 -1.6537 -0.3085  0.6522
 2219TIP3    H228073   3.137   4.381  12.396 -1.6054 -0.1755  0.7697
 2220TIP3   OH228074   0.356   4.477   4.480 -0.3805 -0.1743  0.2648
 2220TIP3    H128075   0.423   4.545   4.472  0.6443 -1.3444 -1.7292
 2220TIP3    H228076   0.404   4.395   4.474 -2.0224 -1.0623 -2.2065
 2221TIP3   OH228077   4.898   4.465  14.311  0.2218 -0.0617 -0.0114
 2221TIP3    H128078   4.962   4.506  14.369 -0.8864  1.7475 -0.0171
 2221TIP3    H228079   4.950   4.433  14.237  1.2696  0.2984  0.5543
 2222TIP3   OH228080   4.737   6.574   0.455 -0.1667 -0.2827 -0.1521
 2222TIP3    H128081   4.759   6.582   0.548 -2.0634 -1.6643  0.4755
 2222TIP3    H228082   4.715   6.662   0.427 -0.1597  0.0544  0.8690
 2223TIP3   OH228083   0.971   4.442   3.397 -0.3863 -0.2899 -0.0781
 2223TIP3    H128084   0.910   4.434   3.470 -2.3573 -0.9922 -1.7096
 2223TIP3    H228085   1.022   4.360   3.399  1.7526  0.9594  2.2335
 2224TIP3   OH228086   2.585   5.128  10.720 -0.0416  0.4402 -0.1837
 2224TIP3    H128087   2.588   5.214  10.762 -0.4101  0.5395 -0.3530
 2224TIP3    H228088   2.497   5.095  10.740  1.2619 -1.5489  3.1233
 2225TIP3   OH228089   4.826   4.722   1.966  0.1726  0.0567 -0.0033
 2225TIP3    H128090   4.866   4.792   2.019 -1.4150  0.7244  0.3657
 2225TIP3    H228091   4.732   4.735   1.976 -0.2951  1.0109 -3.9595
 2226TIP3   OH228092   2.939   2.397  14.898  0.1042  0.1784 -0.8455
 2226TIP3    H128093   2.993   2.318  14.910  0.4877  0.3379 -1.5174
 2226TIP3    H228094   2.850   2.367  14.916  0.5474  0.3052  2.1427
 2227TIP3   OH228095   6.647   1.561   3.635  0.5277 -0.5846 -0.0599
 2227TIP3    H128096   6.720   1.533   3.690  1.3387  0.2410 -0.6818
 2227TIP3    H228097   6.665   1.522   3.550  0.1664 -0.4876 -0.1836
 2228TIP3   OH228098   2.220   5.991  16.062  0.3282 -0.5806  0.4946
 2228TIP3    H128099   2.184   6.058  16.122  0.0817 -0.2451 -0.0211
 2228TIP3    H228100   2.201   5.908  16.105  2.3217 -0.2877  2.0902
 2229TIP3   OH228101   0.196   2.065  14.752 -0.4994  0.1085 -0.5737
 2229TIP3    H128102   0.154   2.046  14.668  0.8341  0.9119 -1.4626
 2229TIP3    H228103   0.165   1.996  14.811 -0.4656 -1.2383 -2.0690
 2230TIP3   OH228104   4.491   6.011   3.460  0.4898 -0.1229 -0.0240
 2230TIP3    H128105   4.530   6.034   3.376  1.6804  0.5878  0.7001
 2230TIP3    H228106   4.463   5.920   3.450  0.2055  0.0870 -1.3203
 2231TIP3   OH228107   2.948   0.270  14.029  0.2453  0.6690  0.5372
 2231TIP3    H128108   2.853   0.262  14.025  0.1627  0.5866  2.1446
 2231TIP3    H228109   2.981   0.181  14.022  0.3047  0.8057 -1.4399
 2232TIP3   OH228110   1.783   2.420  12.565 -0.1710 -0.4298 -0.2364
 2232TIP3    H128111   1.861   2.376  12.599 -0.1479  0.6016  1.1343
 2232TIP3    H228112   1.767   2.490  12.627 -1.2248  0.4128 -1.4234
 2233TIP3   OH228113   3.815   0.027   1.907  0.4790 -0.8235 -0.3790
 2233TIP3    H128114   3.879   0.077   1.856  1.9008 -2.7250 -0.5736
 2233TIP3    H228115   3.868  -0.038   1.954 -1.0575 -0.7684  1.5698
 2234TIP3   OH228116   6.219   0.173   5.307 -0.2038  0.1820  0.1052
 2234TIP3    H128117   6.220   0.230   5.230 -2.2940 -0.2202 -0.2897
 2234TIP3    H228118   6.128   0.145   5.314  0.4162 -1.6953  1.3364
 2235TIP3   OH228119   6.224   1.571  16.619 -0.3769  0.0323  0.1892
 2235TIP3    H128120   6.229   1.583  16.714  1.5088 -1.4589  0.3454
 2235TIP3    H228121   6.151   1.511  16.606 -0.2957 -0.1947  0.7486
 2236TIP3   OH228122   0.445   5.695   3.764  0.6252 -0.5902  0.1355
 2236TIP3    H128123   0.367   5.749   3.771  1.4816  0.7262 -0.0214
 2236TIP3    H228124   0.514   5.746   3.806  1.7611 -0.9582 -1.1797
 2237TIP3   OH228125   1.380   3.401  13.540 -0.2366  0.1284 -0.1731
 2237TIP3    H128126   1.402   3.347  13.464 -1.3811  0.3510 -0.6804
 2237TIP3    H228127   1.407   3.489  13.516 -0.2255  0.1267 -0.1670
 2238TIP3   OH228128   0.260   2.420  15.322  0.0848 -0.0891  0.1176
 2238TIP3    H128129   0.232   2.386  15.237  0.1775  0.8726 -0.3045
 2238TIP3    H228130   0.218   2.362  15.386 -1.3654  0.1797 -0.5382
 2239TIP3   OH228131   0.551   5.246  12.807  0.3299  0.5475 -0.1629
 2239TIP3    H128132   0.497   5.268  12.883 -0.3388  0.7213 -0.6896
 2239TIP3    H228133   0.501   5.276  12.731  0.9517  0.2910 -0.6861
 2240TIP3   OH228134   0.382   1.635  14.264  0.1826 -0.0445  0.2501
 2240TIP3    H128135   0.385   1.655  14.357  0.6989  1.8162 -0.1142
 2240TIP3    H228136   0.442   1.699  14.224  0.9117 -1.5787 -1.2406
 2241TIP3   OH228137   5.248   1.582   1.128 -0.9172  0.1604 -0.5591
 2241TIP3    H128138   5.165   1.621   1.099  0.0619  1.5841 -1.5333
 2241TIP3    H228139   5.308   1.594   1.055  0.5669  0.4464  0.6467
 2242TIP3   OH228140   5.030   2.581  12.769 -0.3018  0.4398 -0.1359
 2242TIP3    H128141   4.990   2.653  12.721  0.2738 -0.2160 -1.6815
 2242TIP3    H228142   5.121   2.609  12.783 -0.4694  0.6340  0.6182
 2243TIP3   OH228143   5.648   6.566   2.787 -0.3264  0.0473  0.8210
 2243TIP3    H128144   5.616   6.476   2.782 -4.3561  1.3488 -2.6091
 2243TIP3    H228145   5.734   6.563   2.743 -1.4188 -1.8550 -1.4351
 2244TIP3   OH228146   5.099   3.448   1.134  0.1719 -0.6706 -0.0181
 2244TIP3    H128147   5.073   3.516   1.196  1.4212  0.2347 -0.4383
 2244TIP3    H228148   5.076   3.484   1.048 -1.0068 -1.6603 -0.1396
 2245TIP3   OH228149   6.190   4.231   3.901 -0.3290  0.5083  0.6701
 2245TIP3    H128150   6.275   4.270   3.920  0.5607 -1.2146  0.4234
 2245TIP3    H228151   6.202   4.137   3.917 -1.8252  0.0606 -0.5473
 2246TIP3   OH228152   1.860   1.950   5.642  0.3561 -0.4935  0.2208
 2246TIP3    H128153   1.784   1.997   5.608  0.9394 -0.0949 -0.5630
 2246TIP3    H228154   1.830   1.859   5.650 -0.4071 -0.2132  0.5735
 2247TIP3   OH228155   1.322   6.549  11.689  0.4269 -0.2292  0.5710
 2247TIP3    H128156   1.279   6.477  11.735  2.3646 -1.8829 -0.0406
 2247TIP3    H228157   1.367   6.507  11.616 -0.4220  1.9703 -1.3502
 2248TIP3   OH228158   0.207   4.284   5.323  0.3431 -0.0405 -0.2240
 2248TIP3    H128159   0.167   4.236   5.396  1.9363 -1.1940 -0.0489
 2248TIP3    H228160   0.193   4.228   5.247 -0.7965  0.8827 -0.7120
 2249TIP3   OH228161   5.259   5.155   1.403 -0.4567 -0.3707  0.0257
 2249TIP3    H128162   5.225   5.070   1.432  2.1646 -1.6464 -0.3220
 2249TIP3    H228163   5.310   5.187   1.477 -0.4538  0.3366 -0.2772
 2250TIP3   OH228164   0.341   3.055   2.871 -0.2055  0.0400 -0.0325
 2250TIP3    H128165   0.255   3.057   2.911 -1.0096 -0.3212 -1.6573
 2250TIP3    H228166   0.363   2.962   2.864  0.7641  0.1443  1.2233
 2251TIP3   OH228167   4.504   6.207   0.858  0.3052  0.1019  0.0204
 2251TIP3    H128168   4.478   6.153   0.933 -3.7140  0.0289 -1.2017
 2251TIP3    H228169   4.551   6.281   0.897  0.2100 -0.9844  2.3639
 2252TIP3   OH228170   3.986   6.655  14.521  0.0280 -0.6838  0.2139
 2252TIP3    H128171   3.962   6.570  14.484 -0.3274  0.0021 -1.2155
 2252TIP3    H228172   3.939   6.659  14.604 -0.9790 -1.3653 -0.3004
 2253TIP3   OH228173   2.029   1.128  13.690  0.5318 -0.3908  0.3076
 2253TIP3    H128174   2.099   1.076  13.729 -1.1939 -2.3617  0.9746
 2253TIP3    H228175   1.967   1.142  13.761 -1.5710 -2.0603 -1.0652
 2254TIP3   OH228176   1.432   0.244   4.347  0.5843 -0.1179 -0.7477
 2254TIP3    H128177   1.448   0.165   4.398  0.1295 -0.4140 -1.0532
 2254TIP3    H228178   1.440   0.316   4.410  2.0637 -0.3073 -0.6724
 2255TIP3   OH228179   1.614   6.395   5.987  0.1079  0.0504  0.2169
 2255TIP3    H128180   1.678   6.349   6.041 -0.1100  1.6565  1.9765
 2255TIP3    H228181   1.537   6.403   6.044  0.2012  2.6533  0.1191
 2256TIP3   OH228182   0.741   5.133   2.499  0.4547 -1.3426  0.1802
 2256TIP3    H128183   0.670   5.188   2.532  1.5174  0.5563 -0.5326
 2256TIP3    H228184   0.732   5.050   2.547 -1.4952 -0.7349  0.9457
 2257TIP3   OH228185   0.568   5.022  12.453  0.5045 -0.3781  0.1520
 2257TIP3    H128186   0.647   5.005  12.402 -0.3008 -1.3660 -0.8239
 2257TIP3    H228187   0.554   5.116  12.446  2.6434  0.1628  1.9794
 2258TIP3   OH228188   6.776   2.740   5.885 -0.1164  0.2135 -0.1118
 2258TIP3    H128189   6.693   2.702   5.857 -0.1820  0.1402  0.1736
 2258TIP3    H228190   6.776   2.728   5.980  0.9308 -1.2254 -0.2620
 2259TIP3   OH228191   1.042   4.926   2.884  0.6339 -0.1168  0.2593
 2259TIP3    H128192   1.117   4.923   2.824  1.2320 -0.3292  1.0061
 2259TIP3    H228193   0.988   4.997   2.850  2.0448  1.2251  0.7071
 2260TIP3   OH228194   0.073   5.119  12.250  0.5794  0.2760  0.3992
 2260TIP3    H128195   0.125   5.192  12.216  1.3602 -0.7033 -0.5487
 2260TIP3    H228196  -0.011   5.126  12.205  1.2496 -0.4016 -1.0081
 2261TIP3   OH228197   0.157   4.499   3.725 -0.4421 -0.2361 -0.1001
 2261TIP3    H128198   0.087   4.533   3.670 -1.2601  0.0463  1.0838
 2261TIP3    H228199   0.113   4.469   3.805  0.9243  1.4102  1.3408
 2262TIP3   OH228200   4.271   1.926  17.054  0.1241  0.4090  0.4517
 2262TIP3    H128201   4.229   1.966  16.978  0.5167  0.7781  0.4301
 2262TIP3    H228202   4.211   1.856  17.079 -0.1431  0.4563 -0.0318
 2263TIP3   OH228203   5.527   2.476  13.885 -0.2951  0.3350 -0.4449
 2263TIP3    H128204   5.539   2.542  13.954 -2.0665  0.1422  0.1038
 2263TIP3    H228205   5.453   2.509  13.834 -0.9261 -0.9894 -0.4298
 2264TIP3   OH228206   2.227   3.579   1.370  0.2588 -0.3920 -0.0032
 2264TIP3    H128207   2.267   3.662   1.398  1.0877 -1.4278  2.1096
 2264TIP3    H228208   2.156   3.605   1.312  1.0049  1.7563 -0.0482
 2265TIP3   OH228209   0.987   1.779  12.215  0.1019  0.0327  0.3618
 2265TIP3    H128210   0.924   1.707  12.223  0.4098 -0.6647 -2.4710
 2265TIP3    H228211   0.945   1.842  12.157  1.3791  0.2566 -0.3714
 2266TIP3   OH228212   0.356   0.019   0.939  0.5798  0.1837 -0.1932
 2266TIP3    H128213   0.432   0.018   0.997  0.7188  1.1886 -0.3365
 2266TIP3    H228214   0.328   0.111   0.938 -0.4275 -0.1099 -0.4150
 2267TIP3   OH228215   2.280   3.044  13.929  0.2049 -0.1199 -0.5877
 2267TIP3    H128216   2.238   3.042  13.843  1.2381  0.8923 -1.1476
 2267TIP3    H228217   2.313   3.133  13.937 -0.9187  0.1627  1.3954
 2268TIP3   OH228218   1.084   2.691   5.383 -0.1203 -0.1695  0.3254
 2268TIP3    H128219   1.032   2.624   5.338  1.7511 -1.1153 -0.5503
 2268TIP3    H228220   1.094   2.657   5.472 -0.5066 -0.2538  0.3399
 2269TIP3   OH228221   5.682   0.777  14.976  0.0070 -0.8056 -0.7025
 2269TIP3    H128222   5.606   0.782  15.034 -0.4460 -1.4937 -1.2138
 2269TIP3    H228223   5.739   0.848  15.004 -0.6446 -0.5319 -0.0454
 2270TIP3   OH228224   5.096   5.908  11.304  0.2561 -0.2854  0.1749
 2270TIP3    H128225   5.026   5.860  11.260  0.6170 -1.6535  1.0144
 2270TIP3    H228226   5.169   5.906  11.243 -0.3642  1.0826 -0.6749
 2271TIP3   OH228227   1.831   6.607   2.704 -0.0713 -0.4091  0.4706
 2271TIP3    H128228   1.846   6.697   2.732  0.6699 -0.2270 -0.4718
 2271TIP3    H228229   1.879   6.553   2.766  1.4478 -0.0184 -0.3266
 2272TIP3   OH228230   3.594   4.571   2.142  0.2046 -0.8228  0.1025
 2272TIP3    H128231   3.638   4.605   2.220  0.1566  0.5159 -0.4147
 2272TIP3    H228232   3.567   4.650   2.094  0.1579 -1.6072 -1.2136
 2273TIP3   OH228233   3.648   2.482  14.017  0.1420 -0.1309 -0.2773
 2273TIP3    H128234   3.573   2.465  14.074 -0.0870 -1.0796 -0.8239
 2273TIP3    H228235   3.627   2.563  13.972 -0.0267  0.2141  0.4208
 2274TIP3   OH228236   2.871   5.371  16.654  0.2494 -0.2200  0.3433
 2274TIP3    H128237   2.778   5.354  16.644  0.1966 -1.6188  2.6428
 2274TIP3    H228238   2.912   5.329  16.578 -0.9238  0.2288 -0.5674
 2275TIP3   OH228239   4.709   5.348  12.128 -0.0317  0.1650  0.1656
 2275TIP3    H128240   4.715   5.289  12.203 -2.3903  1.7259  1.7194
 2275TIP3    H228241   4.688   5.291  12.054  0.3039 -1.1879  1.0723
 2276TIP3   OH228242   3.378   5.275   3.895  0.1249  0.3576 -0.3860
 2276TIP3    H128243   3.387   5.184   3.868  0.5680  0.3167 -0.1076
 2276TIP3    H228244   3.400   5.326   3.817 -0.8440  0.2297 -0.7611
 2277TIP3   OH228245   2.749   5.336  11.113  0.0438  0.3488  0.6478
 2277TIP3    H128246   2.709   5.376  11.190 -1.5233 -0.0751  0.0727
 2277TIP3    H228247   2.822   5.395  11.092 -0.3647  1.2416  1.6061
 2278TIP3   OH228248   5.383   1.877  11.766  0.0826  0.0931 -0.3401
 2278TIP3    H128249   5.467   1.854  11.805  0.6236 -0.3254 -1.7203
 2278TIP3    H228250   5.396   1.867  11.672 -1.0981  1.3800 -0.6805
 2279TIP3   OH228251   5.295   0.043   5.841  0.0681  0.0085  0.0674
 2279TIP3    H128252   5.295   0.010   5.931 -0.2014  1.4121  0.6069
 2279TIP3    H228253   5.269  -0.033   5.788  0.3245 -0.8655  1.1488
 2280TIP3   OH228254   3.206   0.845  11.208  0.2083 -0.1667  0.1527
 2280TIP3    H128255   3.150   0.769  11.197 -0.0538 -0.1486  1.3242
 2280TIP3    H228256   3.180   0.904  11.137  0.1679 -0.9991 -0.5401
 2281TIP3   OH228257   3.964   6.467  13.370 -0.0798  0.0050  0.2128
 2281TIP3    H128258   3.892   6.410  13.342  0.9140 -1.0203 -0.3119
 2281TIP3    H228259   3.921   6.535  13.421 -1.5596  0.0252 -0.9798
 2282TIP3   OH228260   6.612   5.324   4.899 -0.1045  0.2754  0.2918
 2282TIP3    H128261   6.561   5.365   4.969 -1.6274 -0.6787 -0.1878
 2282TIP3    H228262   6.651   5.397   4.851 -1.7145  1.1254  0.2172
 2283TIP3   OH228263   0.134   4.132  13.163  0.0706 -0.0389  0.5000
 2283TIP3    H128264   0.213   4.090  13.195 -0.3122 -1.4587 -0.3578
 2283TIP3    H228265   0.082   4.148  13.242  0.4045 -0.7835  0.8764
 2284TIP3   OH228266   4.721   0.916  11.304  0.8217 -0.3015 -0.1178
 2284TIP3    H128267   4.730   0.914  11.399 -1.0603  1.1700  0.1253
 2284TIP3    H228268   4.802   0.874  11.272  0.9921 -1.8458  2.1081
 2285TIP3   OH228269   2.468   2.070  10.886  0.1825 -0.0052  0.1233
 2285TIP3    H128270   2.464   2.130  10.812  0.3209  0.2799  0.3462
 2285TIP3    H228271   2.466   1.983  10.846 -0.8403  0.1376 -0.1551
 2286TIP3   OH228272   6.112   6.056  16.621 -0.3450  1.0009  0.4887
 2286TIP3    H128273   6.153   6.132  16.581  0.6765  0.9454  1.3813
 2286TIP3    H228274   6.178   6.021  16.680  0.0918 -1.8868 -1.4675
 2287TIP3   OH228275   5.426   2.706   0.391  0.6111 -0.1742  0.1256
 2287TIP3    H128276   5.362   2.720   0.461 -0.5901  0.0386 -0.9801
 2287TIP3    H228277   5.506   2.680   0.437  0.4194  1.7788  1.7133
 2288TIP3   OH228278   0.264   0.751   0.642  0.0517 -0.3698 -0.3083
 2288TIP3    H128279   0.326   0.678   0.637  0.2840 -0.1876 -0.1040
 2288TIP3    H228280   0.195   0.720   0.701  0.4961 -0.1709  0.3179
 2289TIP3   OH228281   6.061   3.842  11.519  0.2293 -0.1773  0.1914
 2289TIP3    H128282   5.986   3.866  11.574  0.0786  0.0675 -0.1210
 2289TIP3    H228283   6.111   3.922  11.510  0.3626 -0.2664  0.1374
 2290TIP3   OH228284   6.420   6.677  14.382 -0.2653 -0.3371  0.1726
 2290TIP3    H128285   6.426   6.760  14.431  0.6771 -0.6064  0.5416
 2290TIP3    H228286   6.471   6.692  14.303 -2.8991  0.5572 -1.4773
 2291TIP3   OH228287   5.681   3.520   1.922 -0.0972  0.3040 -0.1844
 2291TIP3    H128288   5.652   3.611   1.926 -1.8271 -0.2187  0.0319
 2291TIP3    H228289   5.772   3.524   1.892  0.5435  2.2198  1.8044
 2292TIP3   OH228290   2.484   3.242   1.015  0.3869  0.1410  0.0748
 2292TIP3    H128291   2.459   3.305   1.082  0.8536  0.9134 -0.4610
 2292TIP3    H228292   2.401   3.205   0.984  0.2108 -1.0792  1.8526
 2293TIP3   OH228293   4.569   1.027  10.706 -0.1765  0.3239 -0.6213
 2293TIP3    H128294   4.485   1.045  10.749 -2.0986 -1.9926 -2.9859
 2293TIP3    H228295   4.579   1.097  10.642 -1.0151 -0.0554 -1.1881
 2294TIP3   OH228296   3.057   5.847  13.339 -0.3602 -0.1747 -0.2264
 2294TIP3    H128297   2.979   5.819  13.290 -1.4414 -0.4050  1.5154
 2294TIP3    H228298   3.127   5.790  13.308 -0.7739  0.2646 -2.0935
 2295TIP3   OH228299   4.602   3.520  14.462 -0.2185 -0.3051 -0.6690
 2295TIP3    H128300   4.612   3.601  14.411 -0.9931  0.5402  0.4577
 2295TIP3    H228301   4.549   3.546  14.538  0.3366 -1.6577  0.2250
 2296TIP3   OH228302   1.049   0.334  17.150  0.0331  0.2113  0.0189
 2296TIP3    H128303   1.003   0.250  17.157  0.8716 -0.6668 -3.2039
 2296TIP3    H228304   0.985   0.399  17.180 -2.6719 -1.1394 -2.3272
 2297TIP3   OH228305   3.239   1.860   2.342 -0.5042  0.4642  0.0535
 2297TIP3    H128306   3.243   1.955   2.348 -1.4970  0.5163 -0.0159
 2297TIP3    H228307   3.331   1.832   2.344 -0.1333  1.4924 -1.1682
 2298TIP3   OH228308   2.852   5.473   1.747 -0.4164  0.0340 -0.0646
 2298TIP3    H128309   2.873   5.448   1.657 -2.7179 -1.7529 -0.2056
 2298TIP3    H228310   2.839   5.568   1.743  1.9138  0.3753 -1.0363
 2299TIP3   OH228311   2.720   0.741  16.660 -0.1642 -0.5278  0.3427
 2299TIP3    H128312   2.753   0.651  16.664 -0.4621 -0.6146  0.9297
 2299TIP3    H228313   2.628   0.734  16.682 -0.5262 -0.2483 -1.0146
 2300TIP3   OH228314   3.501   2.165  10.908  0.5314  0.4979 -0.2552
 2300TIP3    H128315   3.586   2.173  10.865  1.9985 -2.7759  1.6758
 2300TIP3    H228316   3.457   2.093  10.863 -0.8313  1.4688 -0.5460
 2301TIP3   OH228317   0.137   4.520   4.010  0.3582 -0.2991 -0.3014
 2301TIP3    H128318   0.199   4.523   4.084 -0.3088 -0.6221  0.2775
 2301TIP3    H228319   0.105   4.429   4.009  0.0670 -0.1941 -0.7456
 2302TIP3   OH228320   3.197   5.915  16.243  0.3081  0.3940  0.1125
 2302TIP3    H128321   3.159   5.833  16.276 -0.3987  0.0468 -1.4571
 2302TIP3    H228322   3.193   5.975  16.317  1.9571 -1.3255  1.6813
 2303TIP3   OH228323   3.332   6.128  16.426 -0.5483 -0.0724  0.0485
 2303TIP3    H128324   3.331   6.127  16.522 -1.2548  0.3499  0.0535
 2303TIP3    H228325   3.364   6.215  16.403  0.3442 -0.4346 -0.1071
 2304TIP3   OH228326   1.778   4.380  15.517 -0.4598  0.3892 -0.3276
 2304TIP3    H128327   1.848   4.349  15.575 -0.7717 -1.0722 -0.6923
 2304TIP3    H228328   1.792   4.475  15.512  1.0770  0.2226  0.1452
 2305TIP3   OH228329   3.641   0.937  10.360  0.0564 -0.2540 -0.5435
 2305TIP3    H128330   3.555   0.958  10.322 -0.3618 -0.7369  0.1234
 2305TIP3    H228331   3.665   1.014  10.410 -0.4998 -0.5296  0.1626
 2306TIP3   OH228332   0.519   3.425  15.830  0.0642 -0.1666 -0.0664
 2306TIP3    H128333   0.424   3.412  15.838 -0.0558  0.5618 -0.2344
 2306TIP3    H228334   0.531   3.463  15.743  0.4271  0.4989  0.2689
 2307TIP3   OH228335   2.450   5.945   3.910 -0.0783 -0.1996 -0.1514
 2307TIP3    H128336   2.462   5.851   3.926  0.6123 -0.2617 -0.9629
 2307TIP3    H228337   2.502   5.963   3.831 -0.0547  0.9005  0.0989
 2308TIP3   OH228338   6.368   2.447   2.408  0.5154  0.5778 -0.2931
 2308TIP3    H128339   6.436   2.407   2.353  0.1869 -0.4674  0.0376
 2308TIP3    H228340   6.358   2.535   2.373  1.2590  0.3741 -1.0552
 2309TIP3   OH228341   5.760   1.641  11.604 -0.4266 -0.3525 -0.6162
 2309TIP3    H128342   5.824   1.570  11.610  0.3366  0.3936  1.0477
 2309TIP3    H228343   5.679   1.604  11.637 -0.1020 -0.5361 -0.0112
 2310TIP3   OH228344   5.337   4.723  14.707 -0.0780  0.1413  0.1595
 2310TIP3    H128345   5.333   4.779  14.630 -0.7385  0.2133  0.2411
 2310TIP3    H228346   5.292   4.642  14.681  0.9440 -0.3904  0.0125
 2311TIP3   OH228347   2.008   0.260   6.640  0.3879  0.2988 -0.3806
 2311TIP3    H128348   2.076   0.193   6.643 -1.3324 -1.5455  0.1535
 2311TIP3    H228349   1.997   0.287   6.731 -0.0648  0.0752 -0.3675
 2312TIP3   OH228350   1.927   6.371   3.315  0.3142  0.0824  0.1557
 2312TIP3    H128351   1.869   6.324   3.375  2.5237 -0.5513  1.9329
 2312TIP3    H228352   2.014   6.336   3.334  1.6242  2.6036 -0.7581
 2313TIP3   OH228353   2.986   5.833  10.853  0.0238  0.4892  0.1964
 2313TIP3    H128354   3.035   5.914  10.841 -0.8058  0.9098 -0.4561
 2313TIP3    H228355   2.978   5.823  10.948 -0.4850  1.5580  0.2730
 2314TIP3   OH228356   0.616   1.029  13.850  0.0858  0.5679 -0.3644
 2314TIP3    H128357   0.613   0.985  13.935 -1.6820  2.2031  0.4880
 2314TIP3    H228358   0.673   1.104  13.863  2.5767 -0.9595 -1.6440
 2315TIP3   OH228359   3.456   5.817   5.654  0.4068 -0.2001 -1.1937
 2315TIP3    H128360   3.469   5.824   5.749  3.8338 -0.2600 -1.5599
 2315TIP3    H228361   3.430   5.726   5.640  0.9479 -0.4917 -0.3846
 2316TIP3   OH228362   5.706   4.145   2.323 -1.0209 -0.6014 -0.0245
 2316TIP3    H128363   5.771   4.074   2.317 -2.1101 -1.5901 -0.6564
 2316TIP3    H228364   5.720   4.183   2.410  0.0655 -1.1214  0.0463
 2317TIP3   OH228365   2.719   1.907  17.263 -0.2187 -0.2272  0.6475
 2317TIP3    H128366   2.653   1.844  17.234  1.4730 -1.9283  0.2638
 2317TIP3    H228367   2.700   1.920  17.356 -2.2745  0.9077  0.1311
 2318TIP3   OH228368   2.607   1.298   6.368 -0.1939 -0.0229  0.2298
 2318TIP3    H128369   2.541   1.357   6.404 -1.7823 -1.4244 -0.2783
 2318TIP3    H228370   2.668   1.282   6.440  0.9232  3.0278  0.0870
 2319TIP3   OH228371   0.613   6.725   2.030 -0.1567 -0.4788 -1.0658
 2319TIP3    H128372   0.601   6.799   1.970 -2.4072 -1.2142 -1.6199
 2319TIP3    H228373   0.688   6.750   2.084  0.5486  1.1922 -2.7115
 2320TIP3   OH228374   1.676   6.179   3.401  0.1184  0.4194  0.3452
 2320TIP3    H128375   1.763   6.168   3.441  0.4339 -0.8763 -0.6383
 2320TIP3    H228376   1.616   6.179   3.476  0.7562 -1.2831  0.9120
 2321TIP3   OH228377   6.106   3.515  14.254  0.1804 -0.1881  0.5755
 2321TIP3    H128378   6.098   3.584  14.321 -1.1328  0.6866 -0.4295
 2321TIP3    H228379   6.183   3.540  14.203 -0.5727  0.8513 -0.0894
 2322TIP3   OH228380   6.264   1.554  15.988  0.2104  0.3253 -0.0709
 2322TIP3    H128381   6.278   1.640  16.028  1.5614 -0.2835  0.8521
 2322TIP3    H228382   6.249   1.495  16.062 -0.4464 -0.2759 -0.6727
 2323TIP3   OH228383   2.079   3.791   1.260 -0.1828 -0.3933  0.2704
 2323TIP3    H128384   1.989   3.764   1.275 -0.6313  0.1041 -1.3236
 2323TIP3    H228385   2.088   3.872   1.311 -1.7607  1.4517 -2.1393
 2324TIP3   OH228386   2.846   5.901  11.397 -0.2763  0.2186 -0.4407
 2324TIP3    H128387   2.840   5.845  11.320 -0.5015 -0.0130 -0.2530
 2324TIP3    H228388   2.847   5.841  11.472  0.8909  0.3882 -0.2935
 2325TIP3   OH228389   1.818   2.317  16.433 -0.4588  0.1935 -0.2021
 2325TIP3    H128390   1.763   2.279  16.501 -3.1161 -0.5373 -2.5462
 2325TIP3    H228391   1.877   2.247  16.406 -0.6965 -0.1137  0.0843
 2326TIP3   OH228392   4.232   2.847   6.322  0.4344  0.3932 -0.1936
 2326TIP3    H128393   4.166   2.845   6.391 -0.2976  0.2243 -0.8806
 2326TIP3    H228394   4.231   2.937   6.289  0.3025  0.3120 -0.4209
 2327TIP3   OH228395   3.286   2.780  16.965 -0.5517 -0.0194 -0.1448
 2327TIP3    H128396   3.262   2.694  17.001 -0.2132 -0.1824 -0.3012
 2327TIP3    H228397   3.349   2.815  17.028  0.8797 -0.7714 -1.0886
 2328TIP3   OH228398   1.649   2.444   0.804  0.4357 -0.1249 -0.2576
 2328TIP3    H128399   1.661   2.374   0.739  2.0849  0.4509 -0.6171
 2328TIP3    H228400   1.586   2.503   0.764  1.8515  0.5156 -1.6334
 2329TIP3   OH228401   4.478   5.976  11.588 -0.6632  0.7917 -0.1762
 2329TIP3    H128402   4.416   5.986  11.660 -2.5615  1.5839 -1.8251
 2329TIP3    H228403   4.530   6.057  11.590  1.4425 -0.4808  2.0960
 2330TIP3   OH228404   3.172   1.489   5.388 -0.1934  0.1647  0.1699
 2330TIP3    H128405   3.246   1.515   5.333 -0.9667 -1.5178 -1.7876
 2330TIP3    H228406   3.205   1.414   5.438 -0.6908 -1.0132 -1.1908
 2331TIP3   OH228407   6.003   1.532   2.550 -1.1753 -0.1559 -0.1614
 2331TIP3    H128408   6.064   1.501   2.616 -1.0810 -0.5082 -0.4152
 2331TIP3    H228409   5.928   1.474   2.557 -1.3857  0.1278 -0.0144
 2332TIP3   OH228410   1.563   2.333   1.036  0.6277  0.6417 -0.0694
 2332TIP3    H128411   1.574   2.364   0.946  0.4973 -0.2168 -0.3917
 2332TIP3    H228412   1.635   2.373   1.084  1.4793  0.0786 -0.8374
 2333TIP3   OH228413   0.035   1.187  16.336  0.6590 -0.2333 -0.0065
 2333TIP3    H128414   0.066   1.115  16.390 -1.3359 -0.1355  1.3972
 2333TIP3    H228415   0.087   1.263  16.365  1.6778 -0.7681 -0.3910
 2334TIP3   OH228416   2.481   3.038  11.871  0.0949  0.0197  0.0993
 2334TIP3    H128417   2.476   3.011  11.780  2.2666 -0.2661  0.0310
 2334TIP3    H228418   2.405   3.096  11.883 -1.8210 -2.0864 -1.0752
 2335TIP3   OH228419   1.490   5.513  11.565 -0.2004  0.2785  0.4046
 2335TIP3    H128420   1.562   5.563  11.528 -0.8429  0.0613 -1.2278
 2335TIP3    H228421   1.474   5.553  11.650  1.7459  0.4046  0.7552
 2336TIP3   OH228422   0.869   4.719   1.144  0.4772 -0.3173 -0.4795
 2336TIP3    H128423   0.877   4.745   1.236  1.1258  0.4722 -0.7415
 2336TIP3    H228424   0.804   4.649   1.144 -1.1191  1.0712  0.3386
 2337TIP3   OH228425   4.607   0.895  16.581 -0.6495 -0.0216 -0.2845
 2337TIP3    H128426   4.598   0.866  16.672  0.3842 -0.8944 -0.4401
 2337TIP3    H228427   4.568   0.982  16.580  0.1077  0.3687  1.2072
 2338TIP3   OH228428   2.383   5.607  16.839  0.2257 -0.5426 -0.3776
 2338TIP3    H128429   2.348   5.696  16.839 -0.1509 -0.6884 -0.7457
 2338TIP3    H228430   2.370   5.575  16.929  0.2039 -0.2901 -0.2906
 2339TIP3   OH228431   5.989   0.623  12.669 -0.4387  0.1129  0.6667
 2339TIP3    H128432   6.026   0.545  12.711  0.7325  0.8240  0.9768
 2339TIP3    H228433   6.064   0.680  12.653 -1.0954  0.6373 -0.7559
 2340TIP3   OH228434   0.764   1.919   4.194 -0.3750 -0.1049 -0.4331
 2340TIP3    H128435   0.830   1.985   4.172 -0.2769 -0.2076 -0.4448
 2340TIP3    H228436   0.685   1.970   4.212 -1.3722 -0.0874 -3.9635
 2341TIP3   OH228437   2.569   3.775  15.761 -0.1670 -0.4109 -0.2163
 2341TIP3    H128438   2.496   3.722  15.730 -1.0728 -1.0359  2.7014
 2341TIP3    H228439   2.528   3.857  15.791  0.3330 -0.6334  1.1331
 2342TIP3   OH228440   3.375   1.322  15.312  0.0313 -0.4828  0.2376
 2342TIP3    H128441   3.298   1.361  15.269  0.3112  0.1095  0.2649
 2342TIP3    H228442   3.429   1.291  15.239  0.7712  1.0216  0.1051
 2343TIP3   OH228443   0.110   4.991  13.163 -0.1108  0.0145 -0.2673
 2343TIP3    H128444   0.065   4.988  13.079 -0.5963 -0.8613  0.0082
 2343TIP3    H228445   0.202   4.983  13.141 -0.0594  1.8546 -0.8430
 2344TIP3   OH228446   2.498   2.548   3.393 -0.6591 -0.4611 -0.0848
 2344TIP3    H128447   2.483   2.634   3.354  0.7126  0.5225  1.4230
 2344TIP3    H228448   2.426   2.494   3.361 -1.6813  1.2980 -0.8998
 2345TIP3   OH228449   5.200   3.625  15.696 -0.3926  0.4305  0.6827
 2345TIP3    H128450   5.268   3.687  15.668  1.3667 -1.4781  0.4348
 2345TIP3    H228451   5.119   3.677  15.698  0.8212  2.5026 -0.2784
 2346TIP3   OH228452   3.283   0.944  12.777 -0.6457  0.2635 -0.4563
 2346TIP3    H128453   3.370   0.932  12.739 -0.1055  1.9564  0.1586
 2346TIP3    H228454   3.292   0.912  12.867 -1.2301 -1.3731 -0.9413
 2347TIP3   OH228455   4.676   4.136   1.853 -0.2435  0.0149  0.4595
 2347TIP3    H128456   4.620   4.210   1.831 -0.4815 -0.4001 -0.3843
 2347TIP3    H228457   4.765   4.170   1.844 -0.3457  0.0196 -0.6196
 2348TIP3   OH228458   4.126   2.005  14.289  0.7884 -0.2961  0.6219
 2348TIP3    H128459   4.145   1.935  14.351 -0.9187  1.4254  3.3324
 2348TIP3    H228460   4.201   2.063  14.295  0.6283 -0.1331  1.1423
 2349TIP3   OH228461   0.764   2.152  13.066  0.1073  0.0789 -0.3200
 2349TIP3    H128462   0.733   2.193  13.147  0.8490 -1.5923  0.8427
 2349TIP3    H228463   0.855   2.180  13.058  0.0362  0.2400 -0.5980
 2350TIP3   OH228464   6.585   2.725   3.953 -0.2321  0.0855 -0.0161
 2350TIP3    H128465   6.664   2.779   3.952  0.9547 -1.6025 -0.5397
 2350TIP3    H228466   6.517   2.783   3.988  0.7750  2.1748 -1.3501
 2351TIP3   OH228467   4.219   1.616   4.485 -0.2306 -0.1255 -0.6289
 2351TIP3    H128468   4.226   1.632   4.579 -1.4044 -2.6185 -0.0057
 2351TIP3    H228469   4.266   1.533   4.471 -2.2048 -1.1463 -1.7101
 2352TIP3   OH228470   4.164   4.996   1.564  0.1816 -0.4387 -0.4533
 2352TIP3    H128471   4.149   5.028   1.653  2.6346  1.7794 -0.7174
 2352TIP3    H228472   4.085   5.020   1.517  0.6699  2.7461  0.1070
 2353TIP3   OH228473   3.063   6.074  14.361  0.1591 -0.1264 -0.1463
 2353TIP3    H128474   3.141   6.054  14.309 -0.0762  0.4175 -0.7123
 2353TIP3    H228475   2.991   6.035  14.312 -0.0173  0.0386 -0.0189
 2354TIP3   OH228476   5.241   0.792   5.531  0.0907 -0.3072  0.1530
 2354TIP3    H128477   5.164   0.812   5.478 -0.6229 -1.6203  0.6454
 2354TIP3    H228478   5.215   0.716   5.583  1.6164 -0.5797  0.5646
 2355TIP3   OH228479   4.703   0.060   2.347  0.0543 -0.1903  0.5706
 2355TIP3    H128480   4.762   0.130   2.373  1.9556 -1.8722  0.9960
 2355TIP3    H228481   4.740   0.025   2.266 -1.0237 -0.5534  0.2045
 2356TIP3   OH228482   5.238   1.376   5.298 -0.2360  0.0011  0.0236
 2356TIP3    H128483   5.286   1.328   5.230  0.0867  0.3549  0.0033
 2356TIP3    H228484   5.170   1.423   5.250 -0.0673  0.1767 -0.0409
 2357TIP3   OH228485   1.763   3.685   3.370  0.4266  0.0840 -0.2521
 2357TIP3    H128486   1.668   3.685   3.362  0.4597 -0.2705 -0.6708
 2357TIP3    H228487   1.787   3.778   3.372  0.1067  0.1747 -0.5603
 2358TIP3   OH228488   4.792   5.203  16.209  0.5062  0.3579 -0.0285
 2358TIP3    H128489   4.869   5.175  16.259  0.6720  0.2481 -0.3407
 2358TIP3    H228490   4.828   5.231  16.124  0.0061 -1.6708 -0.9592
 2359TIP3   OH228491   2.138   4.806  14.701  0.3709  0.5104 -0.0178
 2359TIP3    H128492   2.143   4.834  14.610 -0.2766 -3.1731 -1.3464
 2359TIP3    H228493   2.054   4.761  14.709  0.2766  0.9519  2.5013
 2360TIP3   OH228494   2.215   1.706  16.033  0.5289  0.4784 -0.3790
 2360TIP3    H128495   2.297   1.753  16.044 -0.7696  2.4599  1.7285
 2360TIP3    H228496   2.178   1.742  15.952  0.1100  2.2966  0.5792
 2361TIP3   OH228497   0.147   3.195  11.307 -0.5937 -0.3211 -0.4981
 2361TIP3    H128498   0.236   3.230  11.313 -0.8395  0.3229 -0.4201
 2361TIP3    H228499   0.156   3.111  11.264  0.3102 -1.2602  1.3976
 2362TIP3   OH228500   4.946   0.308  15.692 -0.2448  0.7444  0.0856
 2362TIP3    H128501   4.971   0.221  15.661  1.9026  1.6205 -0.8375
 2362TIP3    H228502   4.908   0.292  15.779 -1.6205 -1.2517 -0.7955
 2363TIP3   OH228503   6.502   6.252   3.456  1.3187  0.2420 -0.1756
 2363TIP3    H128504   6.566   6.221   3.520 -0.5003  0.7636  2.0032
 2363TIP3    H228505   6.508   6.348   3.462  0.8880  0.2913 -0.5429
 2364TIP3   OH228506   5.068   0.171  15.978  0.2929 -0.2385 -0.2354
 2364TIP3    H128507   5.015   0.092  15.986  0.2811 -0.1197  1.2423
 2364TIP3    H228508   5.097   0.190  16.068  0.9295  1.0000 -0.6664
 2365TIP3   OH228509   0.361   5.592   3.523  0.2998 -0.4566 -0.3304
 2365TIP3    H128510   0.266   5.592   3.537  0.3832 -0.8963  0.2686
 2365TIP3    H228511   0.398   5.611   3.609  0.7626 -0.6325 -0.4878
 2366TIP3   OH228512   5.472   0.384  17.113 -0.5134  0.9970  0.3316
 2366TIP3    H128513   5.442   0.427  17.193  1.6199  2.4914  0.4058
 2366TIP3    H228514   5.444   0.442  17.042  0.5935  1.5196  0.2894
 2367TIP3   OH228515   3.995   6.036  13.091 -0.2538  0.0577 -0.3405
 2367TIP3    H128516   3.969   6.099  13.023  2.4389  1.3728 -0.2734
 2367TIP3    H228517   4.052   5.974  13.045 -2.3709 -2.1198 -0.2648
 2368TIP3   OH228518   0.252   5.455  11.084 -0.0508  0.6271  0.2751
 2368TIP3    H128519   0.344   5.447  11.058  0.4552 -1.6512  2.4417
 2368TIP3    H228520   0.204   5.455  11.001  1.8653  2.1761 -0.9265
 2369TIP3   OH228521   0.283   0.634  13.487 -0.0824 -0.0911 -0.4719
 2369TIP3    H128522   0.343   0.693  13.441  0.6325  0.0501  0.5971
 2369TIP3    H228523   0.254   0.684  13.564  1.6959 -1.5690  1.2748
 2370TIP3   OH228524   3.246   1.714  13.771 -0.0538  0.2430  0.0877
 2370TIP3    H128525   3.305   1.650  13.812  0.0806  1.3693  1.7301
 2370TIP3    H228526   3.237   1.683  13.680  2.5993 -0.2811 -0.0748
 2371TIP3   OH228527   3.302   6.709  15.109  0.2434 -0.1243  0.1744
 2371TIP3    H128528   3.279   6.782  15.052 -0.4560  0.3789  1.0586
 2371TIP3    H228529   3.217   6.677  15.141  0.5928 -0.7640  0.4694
 2372TIP3   OH228530   2.702   4.512  11.377 -0.4370 -0.0113  0.2367
 2372TIP3    H128531   2.657   4.555  11.304  0.7893  0.5350 -0.2145
 2372TIP3    H228532   2.708   4.420  11.351 -1.5626 -0.1707  0.4557
 2373TIP3   OH228533   4.358   5.702  15.930  0.4055 -0.6120 -0.0421
 2373TIP3    H128534   4.378   5.667  16.017  2.3105  1.0239  0.2471
 2373TIP3    H228535   4.347   5.625  15.875 -2.1376 -1.7289  1.8378
 2374TIP3   OH228536   3.911   6.406   3.464  1.7130 -0.2133 -0.2919
 2374TIP3    H128537   3.903   6.500   3.447  2.5489 -0.0873 -0.0591
 2374TIP3    H228538   3.901   6.365   3.379  1.1298  0.0690 -0.3662
 2375TIP3   OH228539   2.413   2.734   5.961 -0.2000  0.7615 -0.5953
 2375TIP3    H128540   2.431   2.768   6.049  0.8815 -0.7963 -0.1711
 2375TIP3    H228541   2.330   2.687   5.970 -0.3169  0.9836 -0.5119
 2376TIP3   OH228542   0.003   3.525   2.100 -0.3510 -0.0615 -0.0257
 2376TIP3    H128543  -0.089   3.506   2.116  0.2759 -2.8435  0.7390
 2376TIP3    H228544   0.026   3.473   2.023  1.1910 -1.7435  1.4597
 2377TIP3   OH228545   5.033   2.678  14.709 -0.5353  0.1601 -0.6640
 2377TIP3    H128546   5.055   2.611  14.773 -0.3101  0.5985 -0.2718
 2377TIP3    H228547   4.947   2.709  14.737  0.2185  1.4317  0.3773
 2378TIP3   OH228548   3.569   1.676   3.013 -0.0195 -0.5904 -0.2079
 2378TIP3    H128549   3.521   1.695   2.932  0.4022  0.1097 -0.3047
 2378TIP3    H228550   3.509   1.623   3.065 -0.5966 -0.3913 -0.6575
 2379TIP3   OH228551   0.177   2.359   0.599 -0.0340  0.2897 -0.2953
 2379TIP3    H128552   0.110   2.417   0.637 -0.4405 -0.2173 -0.2182
 2379TIP3    H228553   0.172   2.280   0.652  1.0327  0.4581  0.0714
 2380TIP3   OH228554   6.062   6.496  11.677 -0.0579 -0.6785  0.0127
 2380TIP3    H128555   5.978   6.516  11.719  0.2868  0.3314  0.2526
 2380TIP3    H228556   6.042   6.491  11.583 -0.2889  0.1176  0.0169
 2381TIP3   OH228557   4.725   3.110  13.540 -0.4453 -0.0489 -0.1658
 2381TIP3    H128558   4.759   3.022  13.524  0.0031  0.3773 -1.7291
 2381TIP3    H228559   4.649   3.096  13.597  0.6882 -1.2636  1.1478
 2382TIP3   OH228560   1.938   3.792   4.473 -0.5886  0.2027 -0.1461
 2382TIP3    H128561   1.938   3.768   4.566 -0.0510  1.8854  0.3193
 2382TIP3    H228562   1.853   3.833   4.458 -0.7377 -0.2082 -0.4484
 2383TIP3   OH228563   3.344   5.384   5.786 -0.0632 -0.2170 -0.4941
 2383TIP3    H128564   3.429   5.341   5.797 -0.0083  0.0306  0.0485
 2383TIP3    H228565   3.280   5.316   5.808  0.0391  0.3923  1.9890
 2384TIP3   OH228566   0.982   1.297  12.159 -0.1103 -0.1165  0.4371
 2384TIP3    H128567   0.922   1.240  12.110  0.0236 -0.2450  0.4230
 2384TIP3    H228568   1.064   1.293  12.110  0.3022 -0.9638  1.1637
 2385TIP3   OH228569   2.014   6.735  14.045 -0.0147 -0.0592  0.4607
 2385TIP3    H128570   2.010   6.717  13.951  1.1484 -0.1789  0.4102
 2385TIP3    H228571   1.962   6.814  14.057 -0.2158 -0.0698 -0.2738
 2386TIP3   OH228572   4.197   2.642   2.586  0.5277  0.6640  0.2448
 2386TIP3    H128573   4.161   2.592   2.512 -0.6378  2.7120 -0.6553
 2386TIP3    H228574   4.289   2.656   2.562 -0.0029  1.8866 -1.1868
 2387TIP3   OH228575   3.127   3.515   0.400  0.7241 -0.0533 -0.6465
 2387TIP3    H128576   3.129   3.427   0.363 -0.2003 -0.4834  0.2705
 2387TIP3    H228577   3.082   3.504   0.484  1.1505  1.1909 -0.2360
 2388TIP3   OH228578   5.763   5.174  16.285  0.3525 -0.3221  0.2204
 2388TIP3    H128579   5.767   5.270  16.282  0.6456 -0.3575 -0.8208
 2388TIP3    H228580   5.835   5.149  16.343  2.0693 -0.0066 -1.6450
 2389TIP3   OH228581   6.304   2.835  11.597  0.1365  0.4938  0.7283
 2389TIP3    H128582   6.317   2.895  11.523  0.7663 -0.0318  0.4022
 2389TIP3    H228583   6.358   2.759  11.576 -1.2975 -0.5737  0.7188
 2390TIP3   OH228584   2.854   3.856  14.824 -0.0898 -0.1230  0.2998
 2390TIP3    H128585   2.765   3.853  14.857  0.3825 -0.4306  1.6030
 2390TIP3    H228586   2.903   3.904  14.891  1.1565 -1.8820  0.6990
 2391TIP3   OH228587   3.177   2.551  14.238  0.1362  0.2847 -0.0117
 2391TIP3    H128588   3.085   2.575  14.249 -0.0787  0.8251 -2.3278
 2391TIP3    H228589   3.191   2.479  14.299 -1.7954  0.2574  0.4647
 2392TIP3   OH228590   6.071   2.007   0.697  0.2536  0.0710  0.0957
 2392TIP3    H128591   6.035   2.063   0.765 -0.4475 -0.0321 -0.1777
 2392TIP3    H228592   6.098   2.067   0.628 -1.2420  0.0608 -0.5454
 2393TIP3   OH228593   3.271   6.551  12.441  0.4027 -0.4781 -0.1673
 2393TIP3    H128594   3.281   6.607  12.518  0.3226 -0.8917  0.1465
 2393TIP3    H228595   3.332   6.479  12.456 -0.4342 -1.1493  0.0475
 2394TIP3   OH228596   4.042   4.224  13.768  0.2130  0.3285  0.0166
 2394TIP3    H128597   4.097   4.238  13.845 -0.5262 -1.3742  0.8976
 2394TIP3    H228598   4.022   4.130  13.769 -2.2653  0.7742 -0.5638
 2395TIP3   OH228599   3.110   4.558   6.095  0.3860  0.3734  0.1342
 2395TIP3    H128600   3.089   4.632   6.153  0.9193 -1.0010  2.1798
 2395TIP3    H228601   3.085   4.481   6.145 -1.0959 -0.8650 -2.3483
 2396TIP3   OH228602   0.045   4.618  14.846 -0.0953  0.4924 -0.4823
 2396TIP3    H128603  -0.026   4.562  14.815 -0.1288 -0.1362  0.6698
 2396TIP3    H228604   0.092   4.564  14.910 -2.2021  2.7903  3.3687
 2397TIP3   OH228605   6.083   3.247   4.328 -0.0901  0.3248 -0.4157
 2397TIP3    H128606   6.130   3.247   4.411  0.9862 -0.0895 -1.0017
 2397TIP3    H228607   6.149   3.270   4.263 -0.5996 -0.6688 -1.3169
 2398TIP3   OH228608   1.736   1.599   5.999 -0.0679  0.3999 -0.5520
 2398TIP3    H128609   1.787   1.678   6.015 -1.0929  1.1137 -0.6701
 2398TIP3    H228610   1.694   1.580   6.083  0.1703 -0.0172 -0.5268
 2399TIP3   OH228611   3.257   5.233  15.299 -0.5149 -0.5822 -0.1510
 2399TIP3    H128612   3.211   5.313  15.326  2.6674  1.5549 -0.5317
 2399TIP3    H228613   3.261   5.239  15.204 -0.9265 -1.6303 -0.2431
 2400TIP3   OH228614   6.671   2.608  11.353  0.2656  0.2958 -0.0160
 2400TIP3    H128615   6.674   2.562  11.270 -0.4773  0.7374 -0.2975
 2400TIP3    H228616   6.759   2.644  11.365  0.5219 -0.2199 -0.3444
 2401TIP3   OH228617   4.660   3.950   5.546 -0.6290 -0.2899  0.1142
 2401TIP3    H128618   4.607   4.030   5.552  0.1446  0.3329 -0.8995
 2401TIP3    H228619   4.707   3.946   5.629  0.9796  1.5510 -0.6179
 2402TIP3   OH228620   3.012   0.752   4.969 -0.8417  0.2959  0.1045
 2402TIP3    H128621   3.106   0.738   4.966 -1.0699 -1.3326 -0.1877
 2402TIP3    H228622   2.979   0.716   4.887 -1.7593  0.5825  0.3285
 2403TIP3   OH228623   1.447   0.018  16.306  0.3961  0.0196 -0.3210
 2403TIP3    H128624   1.448   0.103  16.263  0.5550 -0.5024 -1.3943
 2403TIP3    H228625   1.538   0.000  16.328  0.6224 -0.6308 -1.6926
 2404TIP3   OH228626   4.961   5.196   0.981  0.5048  0.0400  0.7256
 2404TIP3    H128627   5.028   5.163   0.922  0.6728  0.4575  0.6746
 2404TIP3    H228628   4.953   5.129   1.049 -0.3335 -0.8751 -0.2497
 2405TIP3   OH228629   6.423   1.875  15.103 -0.6321 -0.1826  0.3016
 2405TIP3    H128630   6.336   1.913  15.110 -0.8526 -0.4978 -0.5651
 2405TIP3    H228631   6.482   1.944  15.135 -1.1251  0.3883  0.0077
 2406TIP3   OH228632   3.993   6.321  14.693 -0.4373  0.3274  0.3700
 2406TIP3    H128633   3.970   6.230  14.672 -1.9729  0.5691  0.9060
 2406TIP3    H228634   3.910   6.367  14.696  0.3448  1.8212 -0.1096
 2407TIP3   OH228635   5.789   3.440   4.835 -0.5070  0.1431  0.2739
 2407TIP3    H128636   5.712   3.463   4.783  0.4341 -0.6830 -1.6111
 2407TIP3    H228637   5.815   3.354   4.802  1.4160  0.5502  0.5842
 2408TIP3   OH228638   4.148   4.163  12.883  0.4124 -0.3467  0.6809
 2408TIP3    H128639   4.217   4.171  12.949 -1.1383 -1.1958  2.5196
 2408TIP3    H228640   4.189   4.117  12.810  1.8290 -0.6682  1.6397
 2409TIP3   OH228641   4.272   4.050   5.002  0.2456 -0.5431 -0.0557
 2409TIP3    H128642   4.211   4.061   5.076  0.7086  2.8857 -0.0247
 2409TIP3    H228643   4.258   3.960   4.973 -3.0777 -0.6742  1.4750
 2410TIP3   OH228644   5.419   2.530  11.696  0.2485 -0.4387  0.0687
 2410TIP3    H128645   5.453   2.441  11.688 -0.2139 -0.5862 -0.2726
 2410TIP3    H228646   5.455   2.562  11.780 -1.1788 -1.6556  1.1810
 2411TIP3   OH228647   6.142   0.620  12.932 -0.1875 -0.2185  0.0496
 2411TIP3    H128648   6.197   0.581  12.864  0.8575  1.2651 -0.0147
 2411TIP3    H228649   6.161   0.570  13.011  2.4744  1.1374  0.3961
 2412TIP3   OH228650   2.401   0.651   2.203  0.1773  0.3059 -0.1021
 2412TIP3    H128651   2.333   0.629   2.140 -2.0232 -0.8048  2.4353
 2412TIP3    H228652   2.378   0.740   2.233  0.3398  0.2707  0.1309
 2413TIP3   OH228653   4.369   3.526   2.831 -0.3781  0.2306 -0.1791
 2413TIP3    H128654   4.281   3.504   2.798 -0.8572  1.8255 -0.0406
 2413TIP3    H228655   4.354   3.597   2.893  1.0435  0.6745 -0.3273
 2414TIP3   OH228656   0.161   5.641   0.114  0.0152 -0.1709 -0.1446
 2414TIP3    H128657   0.110   5.608   0.039  0.5026 -1.2556 -0.0071
 2414TIP3    H228658   0.158   5.570   0.178  2.0357 -0.4163 -0.2852
 2415TIP3   OH228659   2.405   0.980  16.767  0.1343  0.6964 -0.7032
 2415TIP3    H128660   2.452   0.931  16.836 -2.2062  2.2065  2.2148
 2415TIP3    H228661   2.431   1.071  16.781 -1.9031  1.2808 -0.4009
 2416TIP3   OH228662   1.380   5.056   2.614 -0.2867  0.1734  0.2083
 2416TIP3    H128663   1.463   5.079   2.656  0.9735 -0.4803 -1.8054
 2416TIP3    H228664   1.370   5.121   2.545 -1.9922  0.8398  1.0352
 2417TIP3   OH228665   1.498   6.697   0.870 -0.2861  0.3844  0.1280
 2417TIP3    H128666   1.448   6.743   0.802 -1.2160  0.2952  0.7409
 2417TIP3    H228667   1.585   6.735   0.864 -0.7844  1.5465 -0.0322
 2418TIP3   OH228668   3.716   6.563   2.614 -0.4502  0.0711 -0.2890
 2418TIP3    H128669   3.763   6.629   2.666 -0.5688  2.2022 -2.7158
 2418TIP3    H228670   3.639   6.542   2.667 -1.1324  2.9538  0.0520
 2419TIP3   OH228671   1.313   3.987  16.987  0.0853 -0.2371  0.3538
 2419TIP3    H128672   1.332   4.069  16.942  0.9733 -0.4761  0.2855
 2419TIP3    H228673   1.340   4.003  17.078 -0.6460 -0.1408  0.5677
 2420TIP3   OH228674   1.058   3.383   5.835 -0.7700 -0.3005 -0.3535
 2420TIP3    H128675   0.989   3.416   5.778 -1.7272 -1.1492  0.2749
 2420TIP3    H228676   1.014   3.364   5.918 -0.0169 -1.8921 -0.2822
 2421TIP3   OH228677   5.903   1.823  12.696 -0.8050 -0.0718  0.4820
 2421TIP3    H128678   5.863   1.740  12.670 -0.2366  0.1355 -1.2372
 2421TIP3    H228679   5.870   1.840  12.784 -1.0592 -2.0257  0.7986
 2422TIP3   OH228680   3.356   4.723   3.249 -0.4906 -0.3034 -0.3215
 2422TIP3    H128681   3.397   4.729   3.335 -0.2891 -0.8908 -0.3671
 2422TIP3    H228682   3.356   4.812   3.216 -1.4170  0.0797  0.6712
 2423TIP3   OH228683   3.364   2.727   2.206 -0.1968  0.0755  0.0609
 2423TIP3    H128684   3.370   2.769   2.292 -1.5979 -1.1662  0.7912
 2423TIP3    H228685   3.406   2.642   2.217  1.0055  0.5074 -0.9276
 2424TIP3   OH228686   6.314   2.792   3.496  0.5942  0.1555 -0.1512
 2424TIP3    H128687   6.241   2.730   3.487  1.2131 -0.5284 -0.6165
 2424TIP3    H228688   6.367   2.777   3.418  1.8795 -0.2210  0.7559
 2425TIP3   OH228689   2.031   1.028   2.581  0.3798  0.1362 -0.0819
 2425TIP3    H128690   1.987   1.044   2.664 -0.6920  2.4746 -1.0018
 2425TIP3    H228691   1.974   0.966   2.535  0.5131 -0.4646  0.5456
 2426TIP3   OH228692   1.340   1.616  12.199  0.2358 -0.4135 -0.4631
 2426TIP3    H128693   1.312   1.571  12.279 -0.5339 -0.2331 -0.6243
 2426TIP3    H228694   1.421   1.571  12.174  2.5350  1.7371  2.3292
 2427TIP3   OH228695   0.724   3.064   5.751 -0.0262 -0.2489 -0.1231
 2427TIP3    H128696   0.678   3.004   5.809 -0.1947  0.0041  0.0070
 2427TIP3    H228697   0.797   3.097   5.803 -1.2429  1.4126  0.6060
 2428TIP3   OH228698   3.594   0.202  16.187 -0.5783 -0.2181  0.0206
 2428TIP3    H128699   3.653   0.259  16.236  1.5846 -1.2403 -1.2476
 2428TIP3    H228700   3.529   0.261  16.149  0.7399  1.2251 -0.0681
 2429TIP3   OH228701   2.011   6.678   0.500  0.3173  0.1199 -0.4004
 2429TIP3    H128702   1.965   6.747   0.548  0.5668 -0.5211  0.7898
 2429TIP3    H228703   2.063   6.726   0.435 -0.4925  0.9670 -0.4485
 2430TIP3   OH228704   6.775   2.875   1.485 -0.1662  0.5959 -0.8924
 2430TIP3    H128705   6.713   2.859   1.414 -1.3625  0.3262  0.1762
 2430TIP3    H228706   6.807   2.963   1.469 -0.9131  0.7833 -1.4293
 2431TIP3   OH228707   1.534   3.854   0.171  0.3906 -0.2904 -0.1207
 2431TIP3    H128708   1.542   3.762   0.195  2.3700 -0.4110 -1.0291
 2431TIP3    H228709   1.624   3.885   0.163 -0.1885  2.0565  1.2782
 2432TIP3   OH228710   0.232   4.784  17.169 -0.0618  0.1492 -0.4363
 2432TIP3    H128711   0.161   4.737  17.126 -0.4860 -1.1568  1.5891
 2432TIP3    H228712   0.297   4.717  17.189  1.3049  1.1559 -1.3051
 2433TIP3   OH228713   6.389   1.766  17.253  0.2896 -0.4642  0.4867
 2433TIP3    H128714   6.417   1.808  17.334 -1.9172  1.5645  0.3167
 2433TIP3    H228715   6.331   1.696  17.281 -1.0180  0.6674  0.7068
 2434TIP3   OH228716   1.344   1.786  13.873 -0.0562 -0.4352 -0.0584
 2434TIP3    H128717   1.330   1.709  13.928  0.1171 -0.9639 -0.7371
 2434TIP3    H228718   1.392   1.752  13.797 -0.4588  0.2408 -0.6221
 2435TIP3   OH228719   0.626   2.345   6.525  0.4651  0.1809  0.0946
 2435TIP3    H128720   0.695   2.281   6.509  0.4707  0.1068  0.4028
 2435TIP3    H228721   0.646   2.418   6.466  0.5559 -0.0260 -0.1331
 2436TIP3   OH228722   2.915   6.091   5.888  0.0068 -0.1889 -0.2429
 2436TIP3    H128723   2.830   6.132   5.904 -0.5506 -0.1931 -2.6851
 2436TIP3    H228724   2.904   6.000   5.917 -1.9592 -1.0523 -3.1208
 2437TIP3   OH228725   3.088   1.393   3.016  0.2740  0.2353 -0.1683
 2437TIP3    H128726   3.120   1.458   2.953  0.4806  0.3067  0.0116
 2437TIP3    H228727   2.995   1.413   3.025  0.4845  0.9888  0.4568
 2438TIP3   OH228728   1.443   4.351   6.108  0.1582  0.4223  0.4247
 2438TIP3    H128729   1.452   4.279   6.170 -1.0270  1.2624  1.6509
 2438TIP3    H228730   1.349   4.371   6.108  0.5474  2.5114  0.8145
 2439TIP3   OH228731   6.311   6.152   5.717 -0.4108  0.2488 -0.2671
 2439TIP3    H128732   6.361   6.150   5.636 -0.0498  1.2135 -0.0823
 2439TIP3    H228733   6.228   6.109   5.695  0.1196 -0.5106 -0.8273
 2440TIP3   OH228734   5.929   3.944   4.287 -0.2690 -0.0459  0.2347
 2440TIP3    H128735   5.909   3.863   4.239 -0.2982 -0.1085  0.3508
 2440TIP3    H228736   6.025   3.946   4.290 -0.2674 -0.4810  0.8994
 2441TIP3   OH228737   3.951   5.145   1.427 -0.3905  0.3824 -0.3420
 2441TIP3    H128738   3.918   5.221   1.380  2.6239  2.5051  0.7462
 2441TIP3    H228739   3.972   5.081   1.359 -0.5189  1.5290 -1.4747
 2442TIP3   OH228740   5.908   1.738  12.318  0.1100  0.9636  0.8706
 2442TIP3    H128741   5.875   1.825  12.339 -0.1588  0.9071  0.6978
 2442TIP3    H228742   5.958   1.749  12.238 -0.2788  0.8902  0.6124
 2443TIP3   OH228743   6.618   6.718  11.486  0.0808  0.0690 -0.2689
 2443TIP3    H128744   6.617   6.643  11.545 -0.1389  0.4682  0.2546
 2443TIP3    H228745   6.710   6.744  11.481 -0.1328  1.6395  2.0547
 2444TIP3   OH228746   1.283   2.510  16.801 -0.3375 -0.0214  0.9408
 2444TIP3    H128747   1.336   2.587  16.777 -0.7752  0.4283  1.3906
 2444TIP3    H228748   1.302   2.446  16.733 -1.2493  1.0731 -0.3943
 2445TIP3   OH228749   2.833   2.080   4.317  0.1901  0.0366 -0.1582
 2445TIP3    H128750   2.836   2.169   4.352 -1.5506  0.0532  0.0207
 2445TIP3    H228751   2.779   2.087   4.239  1.0003 -0.6826 -0.8084
 2446TIP3   OH228752   0.957   5.364   0.244  0.4458 -0.2416  0.6365
 2446TIP3    H128753   0.978   5.374   0.151 -0.8628  1.2560  0.4620
 2446TIP3    H228754   0.963   5.270   0.260  2.7621 -0.3543 -0.4268
 2447TIP3   OH228755   4.114   1.490  16.671 -0.7961 -0.0847  0.0782
 2447TIP3    H128756   4.205   1.461  16.670 -0.3345  1.3064  0.4593
 2447TIP3    H228757   4.089   1.494  16.579  0.0449  1.0755 -0.1132
 2448TIP3   OH228758   2.466   2.981   5.909 -0.0262 -0.2493  0.0778
 2448TIP3    H128759   2.536   3.005   5.848  0.7332  0.9053  1.3497
 2448TIP3    H228760   2.469   2.885   5.912  2.3981 -0.2055  1.0716
 2449TIP3   OH228761   1.849   5.574  17.072 -0.5242 -0.1699 -0.1335
 2449TIP3    H128762   1.943   5.589  17.067 -0.4742 -0.7823 -1.4397
 2449TIP3    H228763   1.810   5.655  17.039 -0.4590  0.0565  0.3398
 2450TIP3   OH228764   4.354   5.032   4.226  0.2786  0.4641  0.4506
 2450TIP3    H128765   4.321   4.946   4.251  1.4766  0.1992  1.2155
 2450TIP3    H228766   4.339   5.087   4.303  2.1108  0.1744  1.0814
 2451TIP3   OH228767   0.628   3.601  16.778  0.2827  0.3048 -0.1022
 2451TIP3    H128768   0.691   3.545  16.733 -0.4829  1.3236 -2.6143
 2451TIP3    H228769   0.552   3.545  16.793  1.5527 -0.8454  2.6742
 2452TIP3   OH228770   3.134   2.421   0.160 -0.4085  0.4599  0.2806
 2452TIP3    H128771   3.100   2.508   0.138 -0.9520  0.3100  0.5153
 2452TIP3    H228772   3.225   2.437   0.185  0.6239  0.5245 -3.0134
 2453TIP3   OH228773   2.300   1.302   0.344  0.2512  0.0313 -0.6197
 2453TIP3    H128774   2.220   1.250   0.351  0.3514  0.0653  2.1534
 2453TIP3    H228775   2.283   1.365   0.274 -1.5271 -0.9497 -1.1165
 2454TIP3   OH228776   0.608   1.854   2.186 -0.3427  0.8761  0.2097
 2454TIP3    H128777   0.539   1.829   2.248 -0.1234  0.5452  0.3175
 2454TIP3    H228778   0.600   1.792   2.114  2.4717 -1.9244  2.0436
 2455TIP3   OH228779   6.282   2.139  14.610  0.0920 -0.3117  0.2360
 2455TIP3    H128780   6.364   2.122  14.656 -0.2425 -1.0029  0.6026
 2455TIP3    H228781   6.304   2.125  14.518  0.4483 -0.2367  0.3074
 2456TIP3   OH228782   2.713   2.878  11.132  0.2301  0.1353  0.5156
 2456TIP3    H128783   2.682   2.944  11.194 -2.7133 -1.6058  1.0822
 2456TIP3    H228784   2.635   2.850  11.085  1.5788 -2.0953 -0.5725
 2457TIP3   OH228785   5.798   0.359   5.473 -0.1718 -0.0196 -0.5877
 2457TIP3    H128786   5.848   0.374   5.393  0.2792  0.8912 -0.1433
 2457TIP3    H228787   5.706   0.359   5.444 -0.0115  0.3108 -1.1004
 2458TIP3   OH228788   3.651   1.935   3.833 -0.3114  0.0428 -0.1914
 2458TIP3    H128789   3.646   2.023   3.870  0.7929  0.5528 -1.1938
 2458TIP3    H228790   3.682   1.880   3.906 -1.1282  0.4394  0.4702
 2459TIP3   OH228791   0.898   5.558   4.768  0.5050 -0.2911 -0.0877
 2459TIP3    H128792   0.932   5.544   4.856 -1.2409  1.2370  0.9083
 2459TIP3    H228793   0.823   5.617   4.780  0.7435  0.6924 -2.6897
 2460TIP3   OH228794   6.484   5.643  13.594 -0.0217 -0.4560  0.0266
 2460TIP3    H128795   6.535   5.594  13.657 -0.7430  1.1695  1.9865
 2460TIP3    H228796   6.531   5.633  13.511  0.7113 -3.0250  0.6629
 2461TIP3   OH228797   3.132   0.130   2.403  0.4151  0.7563 -0.3300
 2461TIP3    H128798   3.073   0.074   2.454  0.0988  0.1067 -1.3675
 2461TIP3    H228799   3.199   0.158   2.465  1.4049 -1.9240 -0.0499
 2462TIP3   OH228800   4.902   2.391  16.495  0.5614  0.4004  0.2188
 2462TIP3    H128801   4.983   2.363  16.537  0.1401 -1.1688  0.0578
 2462TIP3    H228802   4.903   2.486  16.501  1.8793  0.3477  1.2066
 2463TIP3   OH228803   3.151   4.417  14.446  0.1602 -0.0667  0.0525
 2463TIP3    H128804   3.193   4.462  14.373  1.8640 -0.0293  0.9942
 2463TIP3    H228805   3.120   4.334  14.409  1.6983 -0.4036 -0.5650
 2464TIP3   OH228806   5.848   3.528  12.627 -0.0407  0.1927 -0.0982
 2464TIP3    H128807   5.795   3.567  12.557  0.3290  0.0887 -0.4357
 2464TIP3    H228808   5.931   3.506  12.585 -0.4961 -1.6384 -0.0943
 2465TIP3   OH228809   1.552   6.039   4.321 -0.2153  0.7111 -0.4640
 2465TIP3    H128810   1.528   5.967   4.379  1.5871 -0.5232 -1.1527
 2465TIP3    H228811   1.474   6.053   4.267 -0.3946 -1.3035 -0.8334
 2466TIP3   OH228812   2.356   1.080   5.255  0.6777  0.4678 -0.3741
 2466TIP3    H128813   2.373   1.045   5.343  0.0302  0.4412 -0.2510
 2466TIP3    H228814   2.317   1.006   5.207 -1.2031  1.1306  0.0481
 2467TIP3   OH228815   2.875   6.132  14.614 -0.4809  0.2228 -0.3133
 2467TIP3    H128816   2.780   6.135  14.604 -0.6224  0.3690  0.8944
 2467TIP3    H228817   2.904   6.071  14.547 -1.4456  0.0606 -0.6007
 2468TIP3   OH228818   1.149   5.404  11.768  0.1115 -0.7583 -0.0370
 2468TIP3    H128819   1.128   5.347  11.693 -0.6294 -0.8597  0.2382
 2468TIP3    H228820   1.160   5.491  11.729 -0.4720 -0.7722 -0.2478
 2469TIP3   OH228821   4.323   1.024   5.607  0.0924  0.2946 -0.6957
 2469TIP3    H128822   4.383   0.955   5.635 -0.8936 -0.2453  0.1953
 2469TIP3    H228823   4.254   0.978   5.560 -0.3814  0.7112 -0.4201
 2470TIP3   OH228824   5.914   1.875   2.941  0.2755  0.0057  0.9020
 2470TIP3    H128825   5.852   1.811   2.904  1.5525 -1.3315  0.9628
 2470TIP3    H228826   5.893   1.956   2.896 -0.3617 -0.8232 -0.3766
 2471TIP3   OH228827   4.510   4.730  13.269  0.1037 -0.4128  0.1087
 2471TIP3    H128828   4.438   4.791  13.254 -1.2873 -2.1423 -0.5696
 2471TIP3    H228829   4.522   4.731  13.364 -0.1063  0.6734  0.1301
 2472TIP3   OH228830   6.145   1.922  15.153 -0.1669  0.3046  0.7590
 2472TIP3    H128831   6.162   1.957  15.240 -1.9831  0.3850  1.1149
 2472TIP3    H228832   6.068   1.969  15.122  0.3720  0.2066 -0.8666
 2473TIP3   OH228833   2.580   2.706  11.432 -0.0800 -0.0606  0.6375
 2473TIP3    H128834   2.491   2.712  11.396  0.1732 -1.2122 -0.2287
 2473TIP3    H228835   2.606   2.797  11.447 -0.6579  0.4005 -0.9909
 2474TIP3   OH228836   5.107   0.808   0.193  0.1871  0.2791  0.4995
 2474TIP3    H128837   5.026   0.786   0.147 -0.9933  2.0914  1.6125
 2474TIP3    H228838   5.088   0.890   0.238  2.3992  0.3359  1.4515
 2475TIP3   OH228839   5.935   2.164  14.059 -0.0233  0.2535  0.2776
 2475TIP3    H128840   6.023   2.137  14.085  0.2694  1.3419  0.4963
 2475TIP3    H228841   5.942   2.259  14.047 -0.4897  0.0491 -2.3410
 2476TIP3   OH228842   0.275   5.263  14.106 -0.9701 -0.0093  0.2519
 2476TIP3    H128843   0.213   5.221  14.046 -0.8035  0.5181 -0.2991
 2476TIP3    H228844   0.271   5.356  14.083 -0.0306  0.0371  0.2612
 2477TIP3   OH228845   4.522   0.422   4.571 -0.6292  0.2905  0.3005
 2477TIP3    H128846   4.554   0.362   4.504  2.1095  2.2450 -0.3412
 2477TIP3    H228847   4.601   0.450   4.618 -1.9773  2.0671  1.6581
 2478TIP3   OH228848   5.319   3.591   0.021  0.7378  0.1206 -0.1166
 2478TIP3    H128849   5.310   3.519   0.084 -0.3813  1.8947  1.8544
 2478TIP3    H228850   5.250   3.574  -0.043  1.3381 -1.2469 -0.4555
 2479TIP3   OH228851   5.748   1.630  16.203  0.5415  0.2762 -0.4704
 2479TIP3    H128852   5.678   1.573  16.171  0.7733 -0.5628  0.4450
 2479TIP3    H228853   5.828   1.583  16.181  0.7147 -0.2281  1.0793
 2480TIP3   OH228854   1.627   1.741  14.861  0.3535  0.4118 -0.1872
 2480TIP3    H128855   1.647   1.777  14.774  1.7219  0.6196  0.1891
 2480TIP3    H228856   1.694   1.674  14.875 -1.3136 -1.3564 -0.2843
 2481TIP3   OH228857   4.118   6.557   4.895 -0.1596 -0.2589 -0.4661
 2481TIP3    H128858   4.048   6.585   4.955  1.1556 -0.1614  1.0914
 2481TIP3    H228859   4.193   6.611   4.918  0.0400  0.8029 -3.2298
 2482TIP3   OH228860   1.531   1.986  13.934  0.4754  0.0374 -0.5584
 2482TIP3    H128861   1.600   1.937  13.980 -1.8262 -2.3863  0.6015
 2482TIP3    H228862   1.486   1.920  13.882 -0.9154  1.5582 -1.3607
 2483TIP3   OH228863   1.047   0.089  12.356  0.7118 -0.2099  0.4788
 2483TIP3    H128864   0.996   0.138  12.420  0.7285 -0.5450  0.7532
 2483TIP3    H228865   1.033   0.136  12.273  1.6008  0.8965  0.9306
 2484TIP3   OH228866   3.664   5.459  12.991  0.4409  0.5843  0.0219
 2484TIP3    H128867   3.665   5.499  12.904  0.9891  0.2905 -0.1096
 2484TIP3    H228868   3.671   5.533  13.052 -0.6669  0.8487 -0.1551
 2485TIP3   OH228869   1.527   3.122   3.604  0.1483  0.1400 -0.3792
 2485TIP3    H128870   1.470   3.139   3.529 -0.0679  0.9607 -0.0354
 2485TIP3    H228871   1.616   3.139   3.571  0.0858  0.1671 -0.5360
 2486TIP3   OH228872   0.800   5.751  15.046 -1.0649  0.1418  0.2108
 2486TIP3    H128873   0.764   5.713  15.126 -1.4546  0.0319 -0.0146
 2486TIP3    H228874   0.729   5.745  14.982 -0.6955  0.0561 -0.1987
 2487TIP3   OH228875   5.403   1.294  16.909  0.5332  0.0024 -0.3234
 2487TIP3    H128876   5.396   1.356  16.837 -1.6715 -0.2441 -0.3920
 2487TIP3    H228877   5.432   1.347  16.983 -1.3968  1.2190 -0.3496
 2488TIP3   OH228878   4.067   3.497  11.714  0.0807  0.5344  0.5834
 2488TIP3    H128879   4.100   3.507  11.804  0.5365  0.2972  0.4473
 2488TIP3    H228880   3.993   3.556  11.709  0.3761  0.9450  0.9566
 2489TIP3   OH228881   5.906   4.620  13.786  0.0710 -0.7218  0.4773
 2489TIP3    H128882   5.987   4.668  13.767  0.4545 -2.0529 -1.6914
 2489TIP3    H228883   5.838   4.686  13.784  0.7370 -0.0182 -1.1537
 2490TIP3   OH228884   2.078   2.190   0.207  0.0299 -0.1519 -0.4772
 2490TIP3    H128885   2.057   2.277   0.172  1.3082  0.4446  0.1690
 2490TIP3    H228886   2.163   2.201   0.249 -0.0654 -1.5842  0.1464
 2491TIP3   OH228887   0.908   2.532  12.959 -0.3709 -0.7375  0.0888
 2491TIP3    H128888   0.838   2.596  12.971  0.6668  0.4093  0.1682
 2491TIP3    H228889   0.888   2.462  13.021 -2.4091 -1.3106 -1.1278
 2492TIP3   OH228890   4.651   2.666  11.967 -0.7492  0.1398 -0.0808
 2492TIP3    H128891   4.615   2.662  12.056 -2.0819  0.9624 -0.5649
 2492TIP3    H228892   4.659   2.759  11.948 -2.0132  0.0161 -1.4113
 2493TIP3   OH228893   2.027   2.682   5.791 -0.0452 -0.4989 -0.5226
 2493TIP3    H128894   2.095   2.647   5.848 -0.7723 -0.0704  0.6449
 2493TIP3    H228895   1.946   2.667   5.839 -0.7600 -0.7368 -1.7610
 2494TIP3   OH228896   1.772   4.616   3.616  0.4575  0.0505 -0.1896
 2494TIP3    H128897   1.686   4.608   3.656  0.1433  1.2418 -0.5951
 2494TIP3    H228898   1.790   4.710   3.616  0.8877  0.0023 -1.8936
 2495TIP3   OH228899   2.574   5.796  14.907 -0.1115 -0.7929 -0.2760
 2495TIP3    H128900   2.602   5.764  14.993  0.3711 -0.3428 -0.2641
 2495TIP3    H228901   2.604   5.887  14.904 -1.8295 -0.1905 -0.1546
 2496TIP3   OH228902   5.464   4.624  12.612  0.0514  0.1319 -0.0847
 2496TIP3    H128903   5.430   4.571  12.541 -0.0800 -0.9209  0.7355
 2496TIP3    H228904   5.550   4.652  12.583 -0.8949  1.6380 -1.5937
 2497TIP3   OH228905   2.482   1.290   3.536 -0.1073 -0.3428 -0.7076
 2497TIP3    H128906   2.541   1.349   3.583  1.9024 -0.7285 -2.5785
 2497TIP3    H228907   2.413   1.268   3.600  0.2373  2.2962  0.7021
 2498TIP3   OH228908   6.071   1.046  13.910 -0.4375 -0.4472  0.1398
 2498TIP3    H128909   6.112   1.101  13.977  0.9555 -0.3634 -0.7405
 2498TIP3    H228910   6.012   0.989  13.958  0.4527 -0.3138  1.4297
 2499TIP3   OH228911   4.741   3.080   4.578  0.3149 -0.4063 -0.2741
 2499TIP3    H128912   4.742   3.007   4.640 -1.2868 -0.1482  0.0863
 2499TIP3    H228913   4.657   3.072   4.533  1.2801 -0.3754 -2.1808
 2500TIP3   OH228914   0.460   0.854  15.803 -0.5777  0.3487 -0.5852
 2500TIP3    H128915   0.473   0.870  15.897 -0.9147 -0.7665 -0.3294
 2500TIP3    H228916   0.549   0.851  15.767 -0.3376 -1.0526  0.0484
 2501TIP3   OH228917   6.007   2.854  15.848  0.0644  0.0664  0.0258
 2501TIP3    H128918   6.087   2.840  15.899  0.6176  0.7003 -0.6559
 2501TIP3    H228919   5.974   2.939  15.878  0.3728  0.4269 -0.6308
 2502TIP3   OH228920   0.758   0.436   4.739 -0.0871  0.1719 -0.1250
 2502TIP3    H128921   0.736   0.348   4.771 -3.0999  1.0843  0.7004
 2502TIP3    H228922   0.815   0.473   4.805  0.6016 -0.8947 -0.1069
 2503TIP3   OH228923   4.979   3.747  13.416 -0.6234 -0.2706  0.2073
 2503TIP3    H128924   4.920   3.672  13.428 -0.9503  0.0515  0.6276
 2503TIP3    H228925   4.922   3.823  13.413 -0.2635  0.0015  0.1308
 2504TIP3   OH228926   6.587   3.172  15.630 -0.4118  0.3431  0.0398
 2504TIP3    H128927   6.630   3.090  15.656  1.6366  0.7969 -1.6846
 2504TIP3    H228928   6.562   3.213  15.713  0.5031 -0.9902  1.0274
 2505TIP3   OH228929   0.525   0.951  15.031 -0.4089 -0.2931  0.7921
 2505TIP3    H128930   0.517   0.964  15.126 -0.2796  0.9299  0.6569
 2505TIP3    H228931   0.608   0.904  15.020  0.2397  0.7143  1.2165
 2506TIP3   OH228932   3.537   1.588   0.519  0.2796  0.1155  0.8938
 2506TIP3    H128933   3.521   1.497   0.546 -0.4544 -0.1340 -0.3245
 2506TIP3    H228934   3.533   1.586   0.423 -3.7699  2.0845  0.8119
 2507TIP3   OH228935   2.201   0.079   6.696 -0.4045  0.5058  0.2501
 2507TIP3    H128936   2.182   0.002   6.750  0.9501  1.6828  2.5311
 2507TIP3    H228937   2.241   0.043   6.617 -0.0613 -1.1692  1.1320
 2508TIP3   OH228938   6.613   5.294   2.555  0.5161 -0.2855 -0.2670
 2508TIP3    H128939   6.704   5.266   2.542  1.0735  2.3054 -2.6991
 2508TIP3    H228940   6.616   5.348   2.634  1.3832  0.7337 -0.9654
 2509TIP3   OH228941   5.413   4.793  15.917  0.0742 -0.0467 -0.1640
 2509TIP3    H128942   5.434   4.700  15.911 -0.1487 -0.2700  1.8565
 2509TIP3    H228943   5.403   4.821  15.826 -2.6778 -2.6184 -0.8177
 2510TIP3   OH228944   3.932   1.393   2.023  0.1501 -0.5001 -0.0893
 2510TIP3    H128945   3.844   1.402   2.061  0.4359 -2.4118  1.1660
 2510TIP3    H228946   3.923   1.322   1.959  0.4938  0.2645 -1.0079
 2511TIP3   OH228947   5.659   5.835   2.345 -0.0476  0.6792 -0.2779
 2511TIP3    H128948   5.613   5.893   2.284  2.7360  1.4057 -1.8443
 2511TIP3    H228949   5.664   5.751   2.299  0.7511  0.7958 -0.4046
 2512TIP3   OH228950   2.416   0.660  12.243  0.1212 -0.1958  0.7882
 2512TIP3    H128951   2.445   0.574  12.214  0.0417  0.1920 -0.4966
 2512TIP3    H228952   2.433   0.717  12.168  0.7191  1.0283  1.8171
 2513TIP3   OH228953   3.161   2.318  14.696  0.1521 -0.0622 -0.3094
 2513TIP3    H128954   3.089   2.374  14.724  0.8375  0.8662 -0.3642
 2513TIP3    H228955   3.171   2.336  14.602  1.3874  0.9251 -0.0173
 2514TIP3   OH228956   3.591   2.392   1.289  0.5989 -0.2375 -0.7261
 2514TIP3    H128957   3.608   2.307   1.330  1.6305  0.8345  1.1799
 2514TIP3    H228958   3.547   2.370   1.207 -0.5286 -2.5360  0.4085
 2515TIP3   OH228959   1.331   1.846   1.213  0.0935 -0.1825  0.4806
 2515TIP3    H128960   1.290   1.892   1.286 -0.1554  0.8322 -0.2685
 2515TIP3    H228961   1.425   1.858   1.227  0.0332  0.7098  0.2305
 2516TIP3   OH228962   0.721   4.524   1.303 -0.1545 -0.4108 -0.8661
 2516TIP3    H128963   0.814   4.536   1.320  0.1636 -1.4319 -1.7565
 2516TIP3    H228964   0.694   4.458   1.367 -0.5755  0.7603  0.2095
 2517TIP3   OH228965   0.056   5.440   5.231 -0.1256  0.2256 -0.3999
 2517TIP3    H128966  -0.034   5.455   5.202 -0.0824 -1.4801 -1.5054
 2517TIP3    H228967   0.099   5.525   5.218 -1.4410  0.9502 -0.2683
 2518TIP3   OH228968   6.362   2.232  13.270 -0.0527  0.0624 -0.1529
 2518TIP3    H128969   6.439   2.175  13.279  0.8653  1.0942 -1.0908
 2518TIP3    H228970   6.287   2.172  13.274  0.7200 -0.8606  1.7766
 2519TIP3   OH228971   1.508   2.490   3.090  0.2556 -0.4933  0.1980
 2519TIP3    H128972   1.548   2.494   3.003 -0.0766 -1.5508 -0.0215
 2519TIP3    H228973   1.548   2.414   3.132  0.5943  0.1553  1.0750
 2520TIP3   OH228974   3.989   1.539  13.189 -0.9631  0.2587  0.1685
 2520TIP3    H128975   3.987   1.599  13.264 -2.0533  0.0361  0.3331
 2520TIP3    H228976   3.990   1.596  13.112  1.8569  0.5225  0.3145
 2521TIP3   OH228977   1.806   3.011  13.307  0.2881 -0.1543  0.0251
 2521TIP3    H128978   1.766   2.976  13.387  1.0160 -1.7106 -0.2461
 2521TIP3    H228979   1.732   3.033  13.250 -0.2216  0.3059  0.8383
 2522TIP3   OH228980   2.170   4.547   3.178  0.9700  0.1509 -0.5703
 2522TIP3    H128981   2.255   4.582   3.206  0.4423 -1.2473  3.5493
 2522TIP3    H228982   2.107   4.590   3.236 -1.2308  0.9825 -3.3706
 2523TIP3   OH228983   1.204   4.152   0.650  0.2276  0.1088 -0.2526
 2523TIP3    H128984   1.206   4.079   0.712  0.8049  2.2486  2.4951
 2523TIP3    H228985   1.292   4.156   0.614  0.2434 -0.4276 -0.2838
 2524TIP3   OH228986   6.746   3.966   3.830  0.8101  0.0542  0.3873
 2524TIP3    H128987   6.793   3.929   3.904  0.5950  0.4141  0.7066
 2524TIP3    H228988   6.663   3.918   3.828  0.6192  0.3741  0.6705
 2525TIP3   OH228989   2.582   2.610  12.509 -0.9753 -0.3786 -0.0297
 2525TIP3    H128990   2.665   2.637  12.470 -1.7236  2.0837 -0.0985
 2525TIP3    H228991   2.605   2.583  12.598  0.1348 -1.7112 -0.6853
 2526TIP3   OH228992   4.355   0.391  12.808 -0.8115  0.1044  0.3554
 2526TIP3    H128993   4.326   0.477  12.838  0.6118  0.1273  1.7788
 2526TIP3    H228994   4.358   0.338  12.888  3.8261  0.3688  0.5891
 2527TIP3   OH228995   2.116   4.821  14.179 -0.0127 -0.0753  0.3825
 2527TIP3    H128996   2.116   4.799  14.086  2.1022  1.4898 -0.0842
 2527TIP3    H228997   2.100   4.738  14.224  1.7936 -1.4624 -1.3428
 2528TIP3   OH228998   1.520   0.456   2.904 -1.3248  0.8342 -0.5374
 2528TIP3    H128999   1.549   0.547   2.906 -0.9038  0.7118 -1.0587
 2528TIP3    H229000   1.481   0.444   2.817 -0.9150  0.3750 -0.6619
 2529TIP3   OH229001   2.694   6.425   3.466  0.4218  0.0291  0.2010
 2529TIP3    H129002   2.679   6.361   3.396  2.0317  0.0490 -0.2214
 2529TIP3    H229003   2.765   6.480   3.432  2.4316 -0.9810  2.4805
 2530TIP3   OH229004   5.989   1.390  16.697 -0.1123  0.0035  0.4595
 2530TIP3    H129005   5.935   1.312  16.711 -0.6924  0.3766  0.3462
 2530TIP3    H229006   5.960   1.452  16.764 -0.3282  0.4635 -0.0512
 2531TIP3   OH229007   5.720   1.123  14.842  0.1745  0.3935  0.6434
 2531TIP3    H129008   5.649   1.131  14.906  0.8663  2.1523  1.2425
 2531TIP3    H229009   5.800   1.136  14.893  0.9017 -0.6857 -0.1711
 2532TIP3   OH229010   5.028   2.649   1.634  0.1362 -0.4393  0.3855
 2532TIP3    H129011   5.094   2.580   1.620  0.3408 -0.1160 -0.2647
 2532TIP3    H229012   5.079   2.729   1.645 -0.1184 -0.3309  0.7910
 2533TIP3   OH229013   5.425   1.065   3.051  0.3974  0.0270  0.2852
 2533TIP3    H129014   5.414   1.147   3.100 -1.8144  0.0517 -0.1456
 2533TIP3    H229015   5.354   1.065   2.987  2.7617 -0.3667 -2.5049
 2534TIP3   OH229016   3.077   5.404  13.096 -0.1654 -0.2031 -0.1244
 2534TIP3    H129017   2.990   5.374  13.122 -0.5588  0.0934 -1.0417
 2534TIP3    H229018   3.065   5.438  13.007  0.7686  0.4033 -0.0327
 2535TIP3   OH229019   3.139   1.148  16.601 -0.3640 -0.3731  0.1966
 2535TIP3    H129020   3.149   1.123  16.509  2.4443  1.0290  0.0078
 2535TIP3    H229021   3.187   1.082  16.650  0.7181  0.4908  0.3453
 2536TIP3   OH229022   6.548   2.312  11.477 -0.4145 -0.0302 -0.5326
 2536TIP3    H129023   6.487   2.246  11.509 -0.0343 -1.0601 -1.8570
 2536TIP3    H229024   6.509   2.343  11.395 -0.1749  0.8104 -0.3424
 2537TIP3   OH229025   1.696   2.978  10.412  0.6520 -0.2898 -0.2579
 2537TIP3    H129026   1.644   2.911  10.369  2.3661 -1.7013 -0.2545
 2537TIP3    H229027   1.775   2.985  10.358  1.4561  0.1568  0.9315
 2538TIP3   OH229028   5.215   1.860   2.056 -0.2927  0.1688 -0.5601
 2538TIP3    H129029   5.155   1.798   2.097  0.2760 -0.0063  0.0198
 2538TIP3    H229030   5.248   1.814   1.979 -0.3905  0.0165 -0.5115
 2539TIP3   OH229031   5.069   5.467  12.626 -0.1010  0.7808 -0.1590
 2539TIP3    H129032   5.005   5.528  12.590 -0.0399  1.4401  0.8342
 2539TIP3    H229033   5.045   5.382  12.588 -3.0779  0.4939  1.9907
 2540TIP3   OH229034   5.950   1.810  14.783 -0.5092 -0.1491  0.2791
 2540TIP3    H129035   6.011   1.875  14.818  0.4523 -0.9588  0.1487
 2540TIP3    H229036   6.006   1.746  14.738 -1.4382 -0.9907  0.2882
 2541TIP3   OH229037   1.139   0.110   5.537  0.5986  0.5263 -0.0105
 2541TIP3    H129038   1.128   0.020   5.506 -0.2584  1.1399 -1.5841
 2541TIP3    H229039   1.051   0.148   5.535  1.0957  1.7187 -0.3985
 2542TIP3   OH229040   0.533   2.481  15.171 -0.3590 -0.1011  0.4139
 2542TIP3    H129041   0.441   2.465  15.191 -0.2713 -0.2492  0.6945
 2542TIP3    H229042   0.536   2.482  15.075 -0.1633 -3.0961  0.2984
 2543TIP3   OH229043   6.041   2.019  10.948  0.0981 -0.7819 -0.0391
 2543TIP3    H129044   6.025   2.111  10.926  1.4200  0.0711  2.1706
 2543TIP3    H229045   5.983   1.969  10.891 -0.6101  1.4186 -1.3414
 2544TIP3   OH229046   2.642   6.001   0.455  0.3680 -0.4851  0.1121
 2544TIP3    H129047   2.600   6.031   0.375  1.6608  1.0647 -0.0310
 2544TIP3    H229048   2.606   6.057   0.524 -0.7078 -1.7835  0.6417
 2545TIP3   OH229049   4.264   3.371  13.449  0.7185 -0.0813 -0.1983
 2545TIP3    H129050   4.354   3.400  13.461  0.4166  0.7941  0.0637
 2545TIP3    H229051   4.220   3.446  13.409 -0.4433  0.4073  1.8467
 2546TIP3   OH229052   5.890   0.568  17.259 -0.7378 -0.1338  0.1644
 2546TIP3    H129053   5.847   0.546  17.176 -2.1919 -0.9862  1.0989
 2546TIP3    H229054   5.898   0.484  17.304  0.8008  0.2026  0.5715
 2547TIP3   OH229055   6.559   4.946  16.047 -0.3356 -0.5121 -0.0025
 2547TIP3    H129056   6.482   4.897  16.019  0.1443 -0.8587 -0.7412
 2547TIP3    H229057   6.607   4.964  15.966 -0.3886  0.9851  0.2793
 2548TIP3   OH229058   5.666   6.606   3.054  0.2042 -0.0899 -0.1774
 2548TIP3    H129059   5.659   6.631   2.962 -1.4326 -1.0463 -0.3503
 2548TIP3    H229060   5.579   6.573   3.077  1.0397 -1.4409  1.2370
 2549TIP3   OH229061   3.388   1.303  12.849  0.3160 -0.1633 -0.1494
 2549TIP3    H129062   3.413   1.285  12.939 -0.1966  1.2606  0.3114
 2549TIP3    H229063   3.462   1.273  12.797  0.9224 -0.3649  0.7971
 2550TIP3   OH229064   5.710   0.281   3.384  0.3799 -0.1554  0.0809
 2550TIP3    H129065   5.647   0.296   3.314  0.6706 -0.1252 -0.1768
 2550TIP3    H229066   5.751   0.197   3.362  0.7288  0.0295  0.0170
 2551TIP3   OH229067   5.558   6.739  12.386 -0.1493  0.2145 -0.2580
 2551TIP3    H129068   5.518   6.652  12.381 -1.7413  0.8093  1.1916
 2551TIP3    H229069   5.491   6.794  12.425  0.7031  2.2059 -1.4349
 2552TIP3   OH229070   0.804   3.801  11.566 -0.2549 -0.0094 -0.3037
 2552TIP3    H129071   0.874   3.857  11.599 -0.8756  1.3612 -1.2090
 2552TIP3    H229072   0.729   3.819  11.623  0.0962 -1.4980  0.6849
 2553TIP3   OH229073   2.360   4.766   2.891 -0.4463 -0.2016  0.1455
 2553TIP3    H129074   2.375   4.684   2.939  4.0540  0.3332  0.1249
 2553TIP3    H229075   2.373   4.835   2.956  0.2087  0.4950 -0.6946
 2554TIP3   OH229076   4.867   6.183  16.899 -0.1333  1.0019 -0.3687
 2554TIP3    H129077   4.947   6.197  16.849 -0.6073  0.4807 -1.3172
 2554TIP3    H229078   4.874   6.094  16.933 -0.5295  0.7587 -0.9035
 2555TIP3   OH229079   2.171   0.916  13.942  0.0308  0.1631 -0.0795
 2555TIP3    H129080   2.261   0.892  13.923 -0.1833 -0.0391 -0.8605
 2555TIP3    H229081   2.119   0.873  13.874 -0.3827  2.7587 -1.5637
 2556TIP3   OH229082   5.513   0.008   3.453  0.4564  0.1792 -0.3531
 2556TIP3    H129083   5.556   0.038   3.532  0.3031 -0.1390 -0.1438
 2556TIP3    H229084   5.567   0.041   3.381 -0.2332  1.7715 -0.1746
 2557TIP3   OH229085   4.122   6.027  14.146  0.5565  0.0875 -0.4669
 2557TIP3    H129086   4.134   6.004  14.238  0.2510  0.9788 -0.1970
 2557TIP3    H229087   4.211   6.043  14.113  0.5947  0.7159 -0.0703
 2558TIP3   OH229088   0.492   6.489  11.194  0.0335 -0.9304  0.2790
 2558TIP3    H129089   0.527   6.401  11.179  1.0602 -0.7648  1.5413
 2558TIP3    H229090   0.538   6.521  11.272  0.2596  1.0435 -0.6023
 2559TIP3   OH229091   3.198   5.823  16.722 -0.1802 -0.3282 -0.4655
 2559TIP3    H129092   3.160   5.735  16.722  1.1783 -0.9670 -1.5689
 2559TIP3    H229093   3.131   5.879  16.685 -0.3691 -1.2703 -1.5931
 2560TIP3   OH229094   2.993   1.426   1.592  0.1493 -0.3188 -0.1468
 2560TIP3    H129095   2.940   1.346   1.596  1.3901 -1.1361  1.0137
 2560TIP3    H229096   3.083   1.395   1.604  0.7001  1.2173 -0.1497
 2561TIP3   OH229097   3.812   0.327  13.639  0.0202 -0.1292  0.3316
 2561TIP3    H129098   3.790   0.368  13.555  1.2911  1.7848  0.8754
 2561TIP3    H229099   3.781   0.388  13.705  3.9113  1.2324  1.1463
 2562TIP3   OH229100   1.501   5.403  15.509 -0.0148  0.2357 -0.1166
 2562TIP3    H129101   1.557   5.400  15.587 -0.3584  1.7166  0.2170
 2562TIP3    H229102   1.528   5.482  15.463  0.2126 -0.6475 -1.5626
 2563TIP3   OH229103   3.992   4.762   4.731 -0.0917 -0.1372  0.0672
 2563TIP3    H129104   4.003   4.683   4.784 -1.8466 -0.9331 -0.6694
 2563TIP3    H229105   4.049   4.750   4.656  0.9679  0.1222  0.8146
 2564TIP3   OH229106   2.098   0.314   6.247 -0.0223  0.2041  0.4798
 2564TIP3    H129107   2.015   0.314   6.295  0.0677 -0.7784  0.6445
 2564TIP3    H229108   2.136   0.399   6.267 -0.7352  0.4509  0.8481
 2565TIP3   OH229109   6.253   0.850   3.321 -0.2503  0.0479 -0.7871
 2565TIP3    H129110   6.172   0.800   3.329  0.4868 -1.1308 -0.3785
 2565TIP3    H229111   6.322   0.786   3.336  0.7368  1.3426  0.4570
 2566TIP3   OH229112   4.807   2.765  15.687  0.3717 -0.3103  0.8371
 2566TIP3    H129113   4.836   2.731  15.772  0.4348  1.2825  1.4937
 2566TIP3    H229114   4.869   2.836  15.668 -1.5041  1.4679  1.0215
 2567TIP3   OH229115   2.310   0.569   0.935  0.0633  0.3611 -0.2916
 2567TIP3    H129116   2.242   0.569   1.003  0.3204 -2.2673  0.0814
 2567TIP3    H229117   2.261   0.564   0.853 -0.2250 -0.3939 -0.0823
 2568TIP3   OH229118   1.478   3.894  13.598 -0.2262 -0.1958  0.2726
 2568TIP3    H129119   1.487   3.961  13.666 -2.6489  1.4651 -0.9134
 2568TIP3    H229120   1.546   3.916  13.535 -1.8718  2.2110 -0.8234
 2569TIP3   OH229121   0.879   1.042   2.161 -0.8285 -0.2236 -0.9781
 2569TIP3    H129122   0.960   1.045   2.213 -0.1007 -1.1946 -1.9993
 2569TIP3    H229123   0.809   1.058   2.224 -0.0433 -2.0747  0.4861
 2570TIP3   OH229124   3.589   3.959   2.220 -0.3664 -0.2826 -0.5158
 2570TIP3    H129125   3.643   3.981   2.296 -0.5791 -0.2805 -0.3658
 2570TIP3    H229126   3.588   3.864   2.218 -1.1830 -0.2950  0.0718
 2571TIP3   OH229127   0.848   5.095  17.177  0.3662  0.0665  0.0493
 2571TIP3    H129128   0.941   5.073  17.170 -0.0705 -1.5608 -1.4955
 2571TIP3    H229129   0.838   5.129  17.266  2.5451  0.9885  0.0197
 2572TIP3   OH229130   2.968   4.012   4.968  0.1399  0.2514 -0.1474
 2572TIP3    H129131   2.919   3.937   5.003  0.7540  0.7062  1.8360
 2572TIP3    H229132   3.054   4.006   5.010  0.8074  1.0956 -1.3247
 2573TIP3   OH229133   0.641   6.268  16.904 -0.0365  0.2329  0.2399
 2573TIP3    H129134   0.705   6.271  16.976 -0.5777  0.9901  0.7103
 2573TIP3    H229135   0.619   6.176  16.894  0.7330  0.0251  0.4339
 2574TIP3   OH229136   1.528   0.026   4.583 -0.0776 -0.0780 -0.1620
 2574TIP3    H129137   1.623   0.027   4.597 -0.4240 -0.5714  2.7993
 2574TIP3    H229138   1.518  -0.010   4.495  2.4823  0.8680 -0.9438
 2575TIP3   OH229139   5.031   3.616  16.910  0.4627 -0.2510 -0.2171
 2575TIP3    H129140   5.090   3.546  16.883 -0.7255 -1.3417 -0.1313
 2575TIP3    H229141   5.024   3.606  17.005  0.5850  0.2381 -0.1544
 2576TIP3   OH229142   5.447   0.179  13.768 -0.1793  0.4038  0.3503
 2576TIP3    H129143   5.448   0.095  13.723  1.3173  0.7961 -0.4195
 2576TIP3    H229144   5.358   0.187  13.803  0.1799 -2.4096  2.2157
 2577TIP3   OH229145   2.557   1.848   1.635 -0.5239 -0.2378 -0.4826
 2577TIP3    H129146   2.550   1.909   1.709 -1.7544  0.3301 -1.0326
 2577TIP3    H229147   2.647   1.819   1.637 -0.7165 -0.9075  1.7805
 2578TIP3   OH229148   0.379   4.918  16.236 -0.3713 -0.0356 -0.6880
 2578TIP3    H129149   0.284   4.911  16.246 -0.2215 -1.6054 -0.0305
 2578TIP3    H229150   0.409   4.827  16.234  1.3238  0.3911  1.4074
 2579TIP3   OH229151   2.881   2.065  11.597 -0.6867 -0.2437  0.0313
 2579TIP3    H129152   2.918   2.130  11.656  3.7922 -2.1998 -0.2683
 2579TIP3    H229153   2.930   2.076  11.515 -3.0737 -1.0731 -1.6488
 2580TIP3   OH229154   6.610   1.466   2.772 -0.1159 -0.8367 -0.3590
 2580TIP3    H129155   6.598   1.551   2.730 -0.2196 -0.8438 -0.3443
 2580TIP3    H229156   6.601   1.484   2.865  0.8067 -0.6972 -0.2818
 2581TIP3   OH229157   0.886   1.442  13.628 -0.1250  0.2263 -0.0770
 2581TIP3    H129158   0.853   1.523  13.667  3.9477  1.0858  2.1448
 2581TIP3    H229159   0.941   1.471  13.556 -0.9262 -0.8336 -1.1540
 2582TIP3   OH229160   6.527   0.987  11.550  0.2410 -0.1446 -1.0339
 2582TIP3    H129161   6.590   0.918  11.570  0.4184 -0.3220 -2.1117
 2582TIP3    H229162   6.443   0.954  11.584  0.3478 -0.8414 -1.4310
 2583TIP3   OH229163   4.120   4.441   0.468 -0.4807  0.3089  0.1757
 2583TIP3    H129164   4.160   4.485   0.393 -1.4139 -0.7232 -0.9714
 2583TIP3    H229165   4.052   4.385   0.430 -0.5886 -0.6982  1.7426
 2584TIP3   OH229166   5.700   3.520   1.328 -0.1768  0.1115 -0.0951
 2584TIP3    H129167   5.763   3.538   1.398  0.4711 -0.4313 -0.5174
 2584TIP3    H229168   5.734   3.569   1.253 -0.9772  0.8508  0.0227
 2585TIP3   OH229169   3.239   0.163  13.645  0.2881  0.1325  0.4687
 2585TIP3    H129170   3.224   0.068  13.654 -3.0686  0.4875 -0.2186
 2585TIP3    H229171   3.275   0.189  13.731  1.5707 -1.7347  0.5721
 2586TIP3   OH229172   5.714   2.848   3.180 -0.6811 -0.0638  0.4719
 2586TIP3    H129173   5.753   2.775   3.227 -0.7239 -1.1999 -1.1563
 2586TIP3    H229174   5.690   2.811   3.094 -2.8853  1.2356  0.4349
 2587TIP3   OH229175   5.193   2.279   3.083 -0.7811  0.3544 -0.4610
 2587TIP3    H129176   5.286   2.263   3.100 -1.2418 -0.8052  1.1235
 2587TIP3    H229177   5.185   2.375   3.082  0.1337  0.4745  1.1796
 2588TIP3   OH229178   0.333   2.470  13.236 -0.3055 -0.0842 -0.1061
 2588TIP3    H129179   0.417   2.514  13.228 -0.9494  1.0518 -1.0484
 2588TIP3    H229180   0.353   2.386  13.277  1.3401 -0.0295 -0.7244
 2589TIP3   OH229181   4.113   3.200   1.947  0.3809  0.4132  0.0173
 2589TIP3    H129182   4.157   3.117   1.931  0.0448  0.4017 -0.9416
 2589TIP3    H229183   4.095   3.201   2.041 -0.6300 -1.1266 -0.1331
 2590TIP3   OH229184   1.687   5.230  13.656 -0.4518 -0.2370  0.3040
 2590TIP3    H129185   1.642   5.242  13.572 -1.2358  0.6553  0.8390
 2590TIP3    H229186   1.620   5.194  13.714  0.0644 -0.7543  0.5908
 2591TIP3   OH229187   4.750   2.167   6.368 -0.6473  0.3196  0.0555
 2591TIP3    H129188   4.672   2.221   6.356 -1.0467 -0.0193  1.0594
 2591TIP3    H229189   4.780   2.188   6.456 -0.2109 -0.3411  0.0714
 2592TIP3   OH229190   2.685   3.260  10.355  0.5145  0.4178 -0.1675
 2592TIP3    H129191   2.708   3.167  10.361  0.1103  0.2490 -0.9838
 2592TIP3    H229192   2.598   3.266  10.396  0.8051  0.5474  0.4294
 2593TIP3   OH229193   6.509   1.021  13.384 -0.3836  0.4260 -0.0692
 2593TIP3    H129194   6.559   0.939  13.385 -2.3022 -0.8415  1.7492
 2593TIP3    H229195   6.428   0.999  13.337 -2.1315  0.3712  2.7521
 2594TIP3   OH229196   4.268   4.363   1.699  0.2223  0.2969 -0.2341
 2594TIP3    H129197   4.221   4.279   1.701 -0.6040  0.7116  2.8422
 2594TIP3    H229198   4.214   4.420   1.644 -2.3372  0.3747  2.1765
 2595TIP3   OH229199   2.516   1.629   3.234  0.0895 -0.7130 -0.4200
 2595TIP3    H129200   2.435   1.672   3.262 -0.5993 -0.6934 -2.3103
 2595TIP3    H229201   2.521   1.645   3.139  2.0511 -1.1419 -0.4440
 2596TIP3   OH229202   5.925   4.718  11.384  0.1081 -0.2077  0.2926
 2596TIP3    H129203   5.885   4.804  11.394 -0.3444 -0.2851 -0.7835
 2596TIP3    H229204   5.865   4.658  11.428 -1.5136 -0.4516 -2.0913
 2597TIP3   OH229205   5.039   5.961   4.789  0.2371 -0.2186  0.2059
 2597TIP3    H129206   5.067   5.880   4.745  3.5415  1.1291 -0.4795
 2597TIP3    H229207   4.972   5.932   4.850 -0.0995 -3.1724 -1.3410
 2598TIP3   OH229208   3.208   0.165   0.918 -0.4263 -0.1128 -0.3956
 2598TIP3    H129209   3.235   0.182   1.009  2.9576 -0.9690 -1.0871
 2598TIP3    H229210   3.227   0.072   0.906 -0.7309  0.0149 -2.0067
 2599TIP3   OH229211   6.028   3.427  15.267  0.2187  0.6397  0.2546
 2599TIP3    H129212   6.010   3.397  15.356  1.8754  0.1430  0.4531
 2599TIP3    H229213   5.986   3.363  15.211  0.2866  0.2131  0.6822
 2600TIP3   OH229214   1.328   4.914  13.448  0.4037  0.5089 -0.4136
 2600TIP3    H129215   1.386   4.889  13.520  0.7933  0.8980 -0.5867
 2600TIP3    H229216   1.240   4.895  13.480  0.4904  1.6435  0.5794
 2601TIP3   OH229217   6.253   0.576  10.878 -0.1109 -0.3850  0.0009
 2601TIP3    H129218   6.280   0.665  10.854 -0.5173  0.3256  1.9884
 2601TIP3    H229219   6.157   0.578  10.876 -0.1453 -0.4291  1.1651
 2602TIP3   OH229220   2.615   5.955   6.877  0.1941 -0.7697  0.1553
 2602TIP3    H129221   2.574   6.031   6.917  2.3709  1.0444 -0.8183
 2602TIP3    H229222   2.549   5.921   6.816  0.0086  1.9764 -1.3088
 2603TIP3   OH229223   3.380   4.577   1.680 -0.0646 -0.3852 -1.1045
 2603TIP3    H129224   3.398   4.651   1.623 -1.1220 -0.4405 -1.5273
 2603TIP3    H229225   3.374   4.615   1.768 -0.0608 -0.0612 -1.2427
 2604TIP3   OH229226   0.876   4.234  12.118  0.2596 -0.4125 -0.2995
 2604TIP3    H129227   0.832   4.258  12.199  0.3343  1.1892 -0.6969
 2604TIP3    H229228   0.936   4.306  12.101 -0.7947  0.0360 -2.5141
 2605TIP3   OH229229   2.968   1.150  11.100  0.0743  0.1368  0.2970
 2605TIP3    H129230   3.024   1.098  11.042  1.3633  1.0448  0.6770
 2605TIP3    H229231   2.953   1.232  11.052 -1.0327 -0.1347  0.1600
 2606TIP3   OH229232   4.394   5.090  16.014 -0.4761 -0.2756 -0.4430
 2606TIP3    H129233   4.414   4.997  15.999 -0.5422 -0.4217  0.3693
 2606TIP3    H229234   4.444   5.136  15.947 -1.0820 -0.9476 -1.3932
 2607TIP3   OH229235   2.040   5.549  16.219  0.4413  0.1077  0.3601
 2607TIP3    H129236   2.011   5.623  16.167  2.3311 -0.7194 -2.0514
 2607TIP3    H229237   1.985   5.476  16.191  1.1233 -0.2227 -0.1686
 2608TIP3   OH229238   2.436   5.685  11.612  0.3462 -0.2453 -1.3601
 2608TIP3    H129239   2.437   5.748  11.540 -1.0388  0.3263 -0.9028
 2608TIP3    H229240   2.354   5.702  11.658  0.4033 -1.7426 -0.6524
 2609TIP3   OH229241   2.763   2.457  11.270  1.0603  0.1114 -0.3037
 2609TIP3    H129242   2.826   2.397  11.229  3.8347  1.0049  2.2729
 2609TIP3    H229243   2.812   2.539  11.280 -0.7093  1.0311  1.3687
 2610TIP3   OH229244   1.926   5.155  15.490 -0.6707  0.1250  0.8731
 2610TIP3    H129245   1.851   5.129  15.437 -1.1675 -0.2207  1.7232
 2610TIP3    H229246   1.923   5.096  15.566  0.5646 -0.0104  0.8275
 2611TIP3   OH229247   3.653   4.047  12.917  0.2805  0.0470  0.4015
 2611TIP3    H129248   3.741   4.055  12.879 -0.1635  1.1640 -0.4371
 2611TIP3    H229249   3.649   4.117  12.982 -0.3905  0.7978 -0.4156
 2612TIP3   OH229250   0.610   3.617  14.687  0.1180  0.5118  0.0230
 2612TIP3    H129251   0.516   3.624  14.704  0.6597  1.5361  3.1941
 2612TIP3    H229252   0.636   3.704  14.658  0.2259  0.4843  0.0375
 2613TIP3   OH229253   5.475   5.801   1.116  0.2080  0.4645  0.5452
 2613TIP3    H129254   5.409   5.772   1.054  1.0637  2.2101 -1.3000
 2613TIP3    H229255   5.429   5.804   1.200 -1.7310  0.4835 -0.4543
 2614TIP3   OH229256   6.740   5.649   4.989 -0.1886  0.3720  0.4326
 2614TIP3    H129257   6.754   5.726   5.045 -1.1005  0.6569  0.2788
 2614TIP3    H229258   6.697   5.586   5.046  0.1742  0.1241  0.4379
 2615TIP3   OH229259   5.795   2.752  13.053 -0.2136 -0.3218 -0.1719
 2615TIP3    H129260   5.786   2.677  13.112 -2.2891 -0.8076 -0.9957
 2615TIP3    H229261   5.728   2.813  13.083  0.1739  0.3743 -0.7050
 2616TIP3   OH229262   6.626   5.097  13.777 -0.4804  0.8174  0.4590
 2616TIP3    H129263   6.531   5.083  13.775 -0.4235  0.3416  0.7538
 2616TIP3    H229264   6.644   5.153  13.702 -0.9331  0.5005  0.1063
 2617TIP3   OH229265   2.273   6.654  11.506 -0.3888  0.4720  0.1387
 2617TIP3    H129266   2.190   6.695  11.482 -0.4773  0.3545  0.2386
 2617TIP3    H229267   2.328   6.726  11.536  0.4808  0.9731 -2.4066
 2618TIP3   OH229268   3.894   3.538   1.591  0.1221 -0.1969 -0.8366
 2618TIP3    H129269   3.947   3.610   1.625  0.5756 -0.1586 -1.6028
 2618TIP3    H229270   3.850   3.502   1.668 -0.8624  1.4923 -0.5591
 2619TIP3   OH229271   5.767   4.967  15.771 -0.0477  0.9190 -0.2920
 2619TIP3    H129272   5.841   4.917  15.805  0.3639  0.4337 -1.8391
 2619TIP3    H229273   5.797   5.002  15.687 -0.8650  2.4736  0.0189
 2620TIP3   OH229274   5.286   6.215  14.467 -0.1983  0.7363  0.0055
 2620TIP3    H129275   5.363   6.271  14.475  0.2594  0.0157  0.8278
 2620TIP3    H229276   5.287   6.185  14.376  0.0138  1.3979 -0.2171
 2621TIP3   OH229277   4.355   1.258  12.516 -0.3028 -0.1607  0.0018
 2621TIP3    H129278   4.394   1.179  12.480  1.1789  0.6628 -0.2996
 2621TIP3    H229279   4.408   1.277  12.594 -1.7984 -0.4525  1.1353
 2622TIP3   OH229280   2.208   2.546  14.343 -0.5698  0.6500  0.4777
 2622TIP3    H129281   2.203   2.617  14.406 -3.4054 -0.8890  2.1840
 2622TIP3    H229282   2.226   2.468  14.396  1.2842 -0.1587 -1.1960
 2623TIP3   OH229283   1.155   5.254   2.290  0.1604  0.4885  0.1211
 2623TIP3    H129284   1.234   5.281   2.337 -0.2824  0.3674  0.9566
 2623TIP3    H229285   1.130   5.331   2.240  0.1775  0.9011  0.7306
 2624TIP3   OH229286   1.378   3.197   4.527  0.1010 -0.5892  0.5679
 2624TIP3    H129287   1.471   3.181   4.544  0.8213  0.9639 -1.5308
 2624TIP3    H229288   1.376   3.280   4.480 -2.2035 -1.3703 -0.8912
 2625TIP3   OH229289   6.432   5.934   5.824  0.2316  0.5502 -0.3216
 2625TIP3    H129290   6.371   5.996   5.784  1.0142  1.4913 -0.0986
 2625TIP3    H229291   6.472   5.982   5.896  0.8638 -0.2082 -0.1470
 2626TIP3   OH229292   2.818   3.153   1.668  0.3013  0.1419  0.7971
 2626TIP3    H129293   2.774   3.226   1.712  0.8967  0.1679  1.3781
 2626TIP3    H229294   2.783   3.075   1.711 -1.3649 -0.0185 -0.7616
 2627TIP3   OH229295   5.926   0.829  17.256  0.3164  0.5116 -0.3846
 2627TIP3    H129296   5.953   0.737  17.264  1.0860  0.7831  0.2030
 2627TIP3    H229297   5.997   0.871  17.207 -0.0846  0.7829 -0.7475
 2628TIP3   OH229298   6.453   1.115  16.886 -0.6164 -0.2912 -0.1928
 2628TIP3    H129299   6.414   1.034  16.919 -0.0521 -0.7737 -0.6917
 2628TIP3    H229300   6.392   1.145  16.818 -0.2963 -0.8643 -0.7385
 2629TIP3   OH229301   3.192   2.038   6.113  0.2321  0.4415 -0.2438
 2629TIP3    H129302   3.137   2.111   6.086 -1.6415 -1.7480 -2.9726
 2629TIP3    H229303   3.177   2.030   6.207 -3.1155  0.8704 -0.6151
 2630TIP3   OH229304   3.642   1.762  13.176 -0.6705 -0.1963 -0.4952
 2630TIP3    H129305   3.664   1.671  13.160 -0.7708 -0.5276  1.0560
 2630TIP3    H229306   3.547   1.767  13.164 -0.5229 -0.0380 -1.6541
 2631TIP3   OH229307   4.993   4.597   4.440  0.3508  0.0256 -0.1461
 2631TIP3    H129308   4.968   4.537   4.370 -0.5481  1.5160 -1.1805
 2631TIP3    H229309   4.918   4.656   4.448  2.1002  2.4692 -0.8310
 2632TIP3   OH229310   6.085   2.168   2.609 -0.4672  0.3346  0.1350
 2632TIP3    H129311   6.108   2.100   2.546  0.9059  0.2296  0.7102
 2632TIP3    H229312   6.097   2.250   2.562  0.4137  0.2499  0.1913
 2633TIP3   OH229313   2.202   4.198  17.220  0.0338 -0.1428  0.5449
 2633TIP3    H129314   2.106   4.199  17.226 -0.0917 -0.2468 -1.1415
 2633TIP3    H229315   2.231   4.231  17.305 -1.5160  1.0130  0.6707
 2634TIP3   OH229316   4.200   2.939  11.060  0.1979 -0.3161  0.2721
 2634TIP3    H129317   4.167   2.913  10.974 -0.2540 -0.0470  0.3551
 2634TIP3    H229318   4.139   3.008  11.088  0.9867  0.3714  0.3258
 2635TIP3   OH229319   6.179   1.031   6.281 -0.3717 -0.4285  0.1981
 2635TIP3    H129320   6.256   0.979   6.304  0.0477 -0.3283 -0.9099
 2635TIP3    H229321   6.214   1.105   6.230 -0.7930  1.7147  2.7917
 2636TIP3   OH229322   4.532   1.758  15.087  0.0408  0.0938  0.0677
 2636TIP3    H129323   4.507   1.837  15.040  0.7071  0.2914  0.0330
 2636TIP3    H229324   4.612   1.782  15.133 -0.5299 -0.1296  1.2140
 2637TIP3   OH229325   6.113   2.038  13.356 -0.0977 -0.5350  0.7255
 2637TIP3    H129326   6.061   2.033  13.436  0.1663 -2.0977  0.8253
 2637TIP3    H229327   6.050   2.061  13.287 -1.2865 -3.6107  0.6029
 2638TIP3   OH229328   1.197   2.048   6.111  0.0341  0.5265 -0.1435
 2638TIP3    H129329   1.215   2.113   6.042 -1.4151  1.7994  0.6099
 2638TIP3    H229330   1.179   2.101   6.189  0.6616 -0.8691  0.9844
 2639TIP3   OH229331   0.339   0.719  14.625  0.2882  0.4484  0.0346
 2639TIP3    H129332   0.269   0.772  14.663 -0.3122 -0.1519 -0.2080
 2639TIP3    H229333   0.293   0.654  14.572  0.9996 -0.3021  0.3147
 2640TIP3   OH229334   2.549   4.649   6.482  0.5971  0.5071  0.8741
 2640TIP3    H129335   2.477   4.604   6.527  0.3682  0.1447  0.1509
 2640TIP3    H229336   2.545   4.739   6.515 -1.6211  1.0996 -0.8153
 2641TIP3   OH229337   6.381   4.756   1.512  0.0263  0.2500 -0.1423
 2641TIP3    H129338   6.431   4.777   1.591  1.5572  0.4570 -1.0992
 2641TIP3    H229339   6.373   4.661   1.513 -2.6726  0.3972  1.7611
 2642TIP3   OH229340   2.350   4.730   5.570 -0.0279 -0.2054 -0.1898
 2642TIP3    H129341   2.272   4.681   5.547 -0.2431 -0.0233  0.1446
 2642TIP3    H229342   2.380   4.693   5.652 -1.2023  1.3524  0.9997
 2643TIP3   OH229343   1.706   0.245   2.985 -0.4472 -0.1555 -0.2690
 2643TIP3    H129344   1.693   0.176   3.050 -0.4728 -1.4766 -1.6075
 2643TIP3    H229345   1.621   0.288   2.979 -0.5754 -0.3275  0.2325
 2644TIP3   OH229346   4.763   5.282   2.563 -0.3981  0.1274 -0.0199
 2644TIP3    H129347   4.744   5.244   2.477 -0.1790 -1.2424  0.5186
 2644TIP3    H229348   4.681   5.323   2.590 -0.8292 -0.5194 -0.3390
 2645TIP3   OH229349   2.540   2.664   1.371 -0.4884 -0.0291  0.1998
 2645TIP3    H129350   2.553   2.745   1.323  2.2211 -0.1899  0.4943
 2645TIP3    H229351   2.625   2.621   1.369 -0.9427 -1.2970  2.8558
 2646TIP3   OH229352   6.161   5.626   0.655  0.0670 -0.2363 -0.3376
 2646TIP3    H129353   6.067   5.622   0.637  0.2492 -0.5063 -1.3020
 2646TIP3    H229354   6.196   5.677   0.582  0.7357 -0.5742 -0.2559
 2647TIP3   OH229355   0.978   6.220   0.818 -0.7679 -0.0538  0.0669
 2647TIP3    H129356   0.957   6.134   0.855 -0.5654  0.3787  1.2256
 2647TIP3    H229357   0.930   6.281   0.873  0.3873  0.6867  0.2731
 2648TIP3   OH229358   1.271   3.336   5.042  0.0129  0.4197  0.1792
 2648TIP3    H129359   1.336   3.403   5.065  0.0008  1.0715 -1.5758
 2648TIP3    H229360   1.187   3.377   5.060  0.0022  0.9372 -1.0144
 2649TIP3   OH229361   1.680   4.029  13.492 -0.3162 -0.0535  0.1061
 2649TIP3    H129362   1.662   4.074  13.409 -0.6125 -0.5129 -0.0825
 2649TIP3    H229363   1.716   4.097  13.549  1.9868 -0.1509 -1.0918
 2650TIP3   OH229364   2.642   6.706   6.044  0.1406  0.4878 -0.5416
 2650TIP3    H129365   2.735   6.689   6.055  0.4250  1.5358 -1.1093
 2650TIP3    H229366   2.605   6.704   6.132  0.6651 -0.1204 -0.3365
 2651TIP3   OH229367   0.426   6.488   4.060  0.1798  0.3223 -0.0940
 2651TIP3    H129368   0.445   6.440   3.979 -1.1500 -0.4160  0.0197
 2651TIP3    H229369   0.368   6.559   4.033  0.4456  0.6104  0.0806
 2652TIP3   OH229370   2.588   5.746   2.343  0.1135 -0.1337 -0.1507
 2652TIP3    H129371   2.654   5.680   2.322 -0.1322 -0.2360 -0.6144
 2652TIP3    H229372   2.504   5.700   2.334 -0.0038 -0.4074  1.8431
 2653TIP3   OH229373   0.025   4.024  15.691 -0.5133 -0.0442  0.2299
 2653TIP3    H129374   0.099   3.978  15.652 -0.8634 -1.1998  0.8738
 2653TIP3    H229375   0.013   4.102  15.637  0.1465 -0.6754 -0.8521
 2654TIP3   OH229376   6.017   3.732   3.956 -0.2100  0.2547 -0.3860
 2654TIP3    H129377   6.027   3.643   3.922  0.3176 -0.6947  2.0641
 2654TIP3    H229378   5.994   3.720   4.048  1.3737  2.6371  0.4056
 2655TIP3   OH229379   0.772   4.055  11.883 -0.0377 -0.3546  0.1990
 2655TIP3    H129380   0.793   4.108  11.960  1.2449  2.7060 -2.0767
 2655TIP3    H229381   0.691   4.092  11.849  0.3186 -0.4937 -0.8587
 2656TIP3   OH229382   2.232   1.732  12.257 -0.2415  0.1306  0.2615
 2656TIP3    H129383   2.162   1.720  12.321 -1.3857 -1.4825 -1.1955
 2656TIP3    H229384   2.270   1.645  12.246 -0.8788  0.0848 -2.0896
 2657TIP3   OH229385   1.874   4.208   2.945 -0.4744  0.2438 -0.1801
 2657TIP3    H129386   1.867   4.286   3.000  0.3655 -0.2955  0.7169
 2657TIP3    H229387   1.838   4.138   2.999 -1.7085  0.0696 -1.1722
 2658TIP3   OH229388   6.500   1.552  11.769  0.3332 -0.2068  0.5915
 2658TIP3    H129389   6.453   1.468  11.770 -0.6860  0.3097 -0.5591
 2658TIP3    H229390   6.465   1.597  11.692  2.4362  0.3901 -0.0704
 2659TIP3   OH229391   3.168   5.466   1.653  0.4490  0.1212  0.2478
 2659TIP3    H129392   3.103   5.469   1.582  0.3512  0.9624  0.3607
 2659TIP3    H229393   3.205   5.378   1.648  0.0227 -0.0270 -0.4713
 2660TIP3   OH229394   0.693   0.182   5.253 -0.0406  0.0082 -0.2555
 2660TIP3    H129395   0.599   0.179   5.234 -0.3485  0.8303  1.0493
 2660TIP3    H229396   0.729   0.241   5.187 -0.4686 -0.1380 -0.6243
 2661TIP3   OH229397   5.992   1.341  14.150  0.0486  0.4155 -0.5181
 2661TIP3    H129398   5.971   1.390  14.070 -1.3252  0.8067  0.0465
 2661TIP3    H229399   6.036   1.404  14.206  0.3283  0.3584 -0.6734
 2662TIP3   OH229400   5.162   4.100   3.879  0.1628 -0.0153  0.8718
 2662TIP3    H129401   5.258   4.098   3.878  0.1860  0.6316  0.0965
 2662TIP3    H229402   5.137   4.045   3.804 -0.1071 -1.0655  1.7208
 2663TIP3   OH229403   4.792   3.381   4.474 -0.7887  0.1925  0.0457
 2663TIP3    H129404   4.837   3.377   4.558  2.3053  1.8643 -1.3544
 2663TIP3    H229405   4.792   3.291   4.442 -0.4549 -0.1909  1.1095
 2664TIP3   OH229406   1.148   5.460   2.786  0.4549 -0.6885 -0.1013
 2664TIP3    H129407   1.157   5.404   2.862 -2.0435 -1.0715 -0.0242
 2664TIP3    H229408   1.056   5.485   2.784  1.2596  2.7841 -0.5943
 2665TIP3   OH229409   4.619   5.968   6.021  0.2328  0.0850  0.1726
 2665TIP3    H129410   4.655   6.013   6.097 -1.6099 -0.4017  1.3800
 2665TIP3    H229411   4.575   6.036   5.971 -0.5790  0.0400  0.8016
 2666TIP3   OH229412   6.554   6.631   4.375  0.4930  0.0453 -0.0191
 2666TIP3    H129413   6.507   6.664   4.451 -0.1266  1.0313 -0.7951
 2666TIP3    H229414   6.486   6.593   4.319  0.9105 -0.4988 -0.1709
 2667TIP3   OH229415   3.437   3.921  11.466  0.4214 -0.2643  0.0609
 2667TIP3    H129416   3.448   4.015  11.449 -1.3113  0.4216  2.2448
 2667TIP3    H229417   3.447   3.880  11.381 -0.9136  2.1515 -1.3805
 2668TIP3   OH229418   1.627   3.414   6.261 -0.2431  0.3813  0.2849
 2668TIP3    H129419   1.673   3.486   6.305  1.3038  0.3333 -1.1313
 2668TIP3    H229420   1.535   3.436   6.269  0.1149  1.6704  1.3206
 2669TIP3   OH229421   3.350   2.115   4.339  0.3355 -0.4995  0.0610
 2669TIP3    H129422   3.315   2.170   4.409 -0.9702 -2.5134  1.0844
 2669TIP3    H229423   3.275   2.062   4.311  0.6244  0.6492 -3.3705
 2670TIP3   OH229424   4.612   2.139   5.273  0.5096 -0.0406  0.2626
 2670TIP3    H129425   4.690   2.170   5.318  1.1472 -0.7374 -0.3464
 2670TIP3    H229426   4.563   2.091   5.340  1.8485 -1.7803  0.0475
 2671TIP3   OH229427   0.078   2.089   3.092  1.2136 -0.1358 -0.2130
 2671TIP3    H129428   0.051   2.000   3.116 -2.3558  0.9013  0.2316
 2671TIP3    H229429   0.115   2.080   3.005  1.2007 -2.0803 -0.0762
 2672TIP3   OH229430   1.336   0.041  12.503  0.8008  0.9049  0.4772
 2672TIP3    H129431   1.263   0.096  12.475  0.0212  0.0326  0.7351
 2672TIP3    H229432   1.300  -0.011  12.575  0.9013 -1.3461 -1.0147
 2673TIP3   OH229433   5.832   6.410  12.290 -0.2477  0.1216  0.1181
 2673TIP3    H129434   5.912   6.448  12.254 -1.2599  0.4748 -1.9056
 2673TIP3    H229435   5.770   6.413  12.217 -0.7821 -4.3639  0.1475
 2674TIP3   OH229436   1.502   3.182  11.063  0.2685 -0.3041 -0.1645
 2674TIP3    H129437   1.541   3.136  10.989  0.9657  0.4090 -0.2572
 2674TIP3    H229438   1.438   3.121  11.099  0.7482 -1.0977 -0.6481
 2675TIP3   OH229439   5.493   0.550   2.118  0.0801 -0.2579 -0.0929
 2675TIP3    H129440   5.471   0.635   2.080 -0.3910 -0.9012 -1.3095
 2675TIP3    H229441   5.569   0.568   2.174  1.3148  0.6256 -1.9430
 2676TIP3   OH229442   2.631   3.616  11.557  0.4042  0.4675 -0.0172
 2676TIP3    H129443   2.569   3.544  11.548  1.2475 -0.4662  1.1851
 2676TIP3    H229444   2.692   3.586  11.625  1.6979  1.6729 -0.5976
 2677TIP3   OH229445   2.234   2.479  15.710 -0.1976  0.0960 -0.3631
 2677TIP3    H129446   2.305   2.495  15.771 -0.1243  1.5310 -0.7896
 2677TIP3    H229447   2.270   2.501  15.624 -0.9224  0.0904 -0.6798
 2678TIP3   OH229448   1.215   5.703  14.425 -0.2845 -0.6307 -1.0272
 2678TIP3    H129449   1.297   5.668  14.389 -0.2834 -0.1388 -1.5227
 2678TIP3    H229450   1.184   5.764  14.358 -0.0371  0.6840  0.0200
 2679TIP3   OH229451   4.942   3.461   0.913  0.1098  0.0484 -0.0714
 2679TIP3    H129452   4.907   3.392   0.856  0.7609  0.7492 -1.3828
 2679TIP3    H229453   4.902   3.542   0.880  0.5190  0.4717  0.4463
 2680TIP3   OH229454   4.420   0.511   0.648 -0.2996 -0.1177  0.7172
 2680TIP3    H129455   4.336   0.469   0.629  0.5757 -1.0347 -1.4879
 2680TIP3    H229456   4.427   0.581   0.583  1.7402 -1.7739 -1.0321
 2681TIP3   OH229457   3.223   2.510  13.040 -0.1111  0.1212 -0.3435
 2681TIP3    H129458   3.172   2.457  12.979 -1.0239  0.9758 -0.3579
 2681TIP3    H229459   3.273   2.446  13.091 -1.6829 -0.8385  0.0971
 2682TIP3   OH229460   2.323   2.369  15.345  0.1178  0.2496  0.3341
 2682TIP3    H129461   2.275   2.392  15.265  0.4618  0.9408  0.3195
 2682TIP3    H229462   2.414   2.358  15.316  0.2743  0.6713  0.6567
 2683TIP3   OH229463   0.488   1.824  11.111  0.1527  0.3390 -0.1383
 2683TIP3    H129464   0.487   1.729  11.119 -1.4232  0.4176  0.9888
 2683TIP3    H229465   0.578   1.849  11.132  1.2237 -1.0058 -2.6567
 2684TIP3   OH229466   1.586   3.372   0.517  0.0094  0.1652 -0.4464
 2684TIP3    H129467   1.571   3.290   0.566  1.3168  0.1908  0.0319
 2684TIP3    H229468   1.522   3.369   0.447  0.5548 -1.6916 -0.9407
 2685TIP3   OH229469   6.272   3.127   2.021  0.6122  0.6051  0.0435
 2685TIP3    H129470   6.274   3.035   1.995 -0.2600  0.6850 -0.3473
 2685TIP3    H229471   6.193   3.136   2.074 -0.6510  1.6066 -1.8859
 2686TIP3   OH229472   1.785   1.332   1.724 -0.2537  0.0896 -0.1579
 2686TIP3    H129473   1.855   1.273   1.698 -0.4976  0.6528 -2.2912
 2686TIP3    H229474   1.731   1.281   1.784  0.8340 -1.0254 -0.0961
 2687TIP3   OH229475   5.010   4.838   0.542  0.0097 -0.0007  0.7190
 2687TIP3    H129476   5.101   4.820   0.519  0.9110  1.8966  2.4209
 2687TIP3    H229477   4.981   4.759   0.587  1.0487 -0.4083  0.7200
 2688TIP3   OH229478   2.311   6.706  11.114 -0.4645  0.2755 -0.5030
 2688TIP3    H129479   2.301   6.793  11.077 -0.5605  1.1783  1.4918
 2688TIP3    H229480   2.406   6.692  11.117 -0.3406  1.1699  0.9129
 2689TIP3   OH229481   0.838   5.126   3.966  0.4062  0.0394  0.6798
 2689TIP3    H129482   0.908   5.102   4.027 -0.0014  0.1170  1.1910
 2689TIP3    H229483   0.862   5.084   3.883  1.4296  0.6589  0.6439
 2690TIP3   OH229484   2.600   2.208   0.232 -0.1076  0.1368 -0.5722
 2690TIP3    H129485   2.653   2.272   0.280  2.0734 -1.1388 -1.1404
 2690TIP3    H229486   2.573   2.145   0.298 -1.5813  1.1619 -0.1545
 2691TIP3   OH229487   1.510   1.121   2.113 -0.0391 -0.1722 -0.1362
 2691TIP3    H129488   1.417   1.116   2.090 -0.7565  1.1682  2.1467
 2691TIP3    H229489   1.537   1.029   2.121 -2.3177 -0.7462  3.0818
 2692TIP3   OH229490   5.967   6.570   2.027 -0.0367 -0.3910  0.9611
 2692TIP3    H129491   5.998   6.527   2.106 -0.9077 -1.1588  0.8909
 2692TIP3    H229492   5.981   6.506   1.957 -1.9910 -0.8778  0.9645
 2693TIP3   OH229493   4.002   3.633   0.638 -0.3730  0.5165  0.0560
 2693TIP3    H129494   4.011   3.694   0.711  1.6443 -1.9241  2.0378
 2693TIP3    H229495   3.930   3.576   0.663 -1.4876  1.2761 -1.2433
 2694TIP3   OH229496   6.617   0.192  11.593  0.6754 -0.6596  0.4573
 2694TIP3    H129497   6.540   0.245  11.610  0.7479 -0.6332  0.6996
 2694TIP3    H229498   6.584   0.121  11.537  0.6380 -0.2091 -0.1022
 2695TIP3   OH229499   4.339   6.329  12.682  0.3005 -0.7749  0.0668
 2695TIP3    H129500   4.292   6.264  12.734 -1.1578  0.1288 -0.0654
 2695TIP3    H229501   4.432   6.311  12.698 -0.1061 -1.6563  1.5314
 2696TIP3   OH229502   4.772   2.612  12.614 -0.7721  0.7505  0.1686
 2696TIP3    H129503   4.731   2.538  12.569  0.0409 -1.2391  2.4526
 2696TIP3    H229504   4.727   2.616  12.698  1.8783  0.1126  1.7309
 2697TIP3   OH229505   1.602   5.448  15.748  0.2613  0.3634  0.5531
 2697TIP3    H129506   1.541   5.520  15.730 -0.3487 -0.1382  0.6013
 2697TIP3    H229507   1.589   5.428  15.841  1.3274  1.0112  0.8638
 2698TIP3   OH229508   6.733   3.042   0.724 -0.1915  0.3738  0.7306
 2698TIP3    H129509   6.724   3.090   0.641 -2.1537  2.0848  1.8280
 2698TIP3    H229510   6.779   2.962   0.701 -0.4705  0.9020 -1.9697
 2699TIP3   OH229511   0.394   4.981  17.078  0.6906  0.3283  0.1444
 2699TIP3    H129512   0.329   4.920  17.114  0.1787  1.0937  0.5560
 2699TIP3    H229513   0.372   5.065  17.118  0.3169  1.1626 -1.6805
 2700TIP3   OH229514   0.605   1.137   1.807 -0.1870 -0.1633  0.7969
 2700TIP3    H129515   0.676   1.173   1.753 -0.6924 -0.3446 -0.0006
 2700TIP3    H229516   0.563   1.215   1.845 -1.6552  0.2100 -1.4004
 2701TIP3   OH229517   0.878   1.865  15.448 -0.3984 -0.4821 -0.2197
 2701TIP3    H129518   0.889   1.777  15.485  0.3593  0.6571  2.4457
 2701TIP3    H229519   0.791   1.892  15.476 -0.0994  0.1325  0.1195
 2702TIP3   OH229520   4.760   5.766   3.245 -0.3851  0.1991  0.0462
 2702TIP3    H129521   4.749   5.829   3.316  1.0929 -0.8067  1.2500
 2702TIP3    H229522   4.823   5.806   3.186  0.3319 -0.0080  0.6594
 2703TIP3   OH229523   2.781   6.572   2.903 -0.3886  0.3736  0.1297
 2703TIP3    H129524   2.766   6.488   2.945  0.7246 -0.2582 -0.7082
 2703TIP3    H229525   2.704   6.584   2.846  0.1162 -0.7832 -0.8436
 2704TIP3   OH229526   5.120   2.059   3.537 -0.3734 -0.1119 -0.3458
 2704TIP3    H129527   5.210   2.087   3.553 -1.0729  1.5039  1.0646
 2704TIP3    H229528   5.127   1.965   3.519  1.4950 -0.2260  0.7002
 2705TIP3   OH229529   1.494   5.484  13.761 -0.4572  0.2018  0.2852
 2705TIP3    H129530   1.446   5.506  13.681 -2.8887 -2.8963  0.7016
 2705TIP3    H229531   1.563   5.423  13.732 -2.1242 -1.9212  0.5734
 2706TIP3   OH229532   3.363   3.493   0.534  0.3790 -0.0027  0.2657
 2706TIP3    H129533   3.269   3.507   0.517  0.6770  1.3632 -0.3847
 2706TIP3    H229534   3.405   3.573   0.504  1.8869 -1.0215 -0.4549
 2707TIP3   OH229535   3.890   3.266  15.347 -0.3841  0.6802 -0.4050
 2707TIP3    H129536   3.820   3.227  15.295 -0.6042  0.5652 -0.0262
 2707TIP3    H229537   3.904   3.205  15.419  0.2382  0.6051 -0.5754
 2708TIP3   OH229538   0.974   0.665  12.271  0.3843  0.1456 -0.5290
 2708TIP3    H129539   1.038   0.677  12.340  0.9606 -1.0349 -0.8234
 2708TIP3    H229540   1.026   0.644  12.193 -0.1739  2.3814 -1.6008
 2709TIP3   OH229541   5.401   5.708   5.298  0.1303  0.5073  0.2845
 2709TIP3    H129542   5.316   5.680   5.264 -0.0914  0.6886  0.6854
 2709TIP3    H229543   5.394   5.804   5.302  1.3384  0.8081 -2.3363
 2710TIP3   OH229544   2.927   1.109  17.160 -0.0700  0.3000  0.4738
 2710TIP3    H129545   2.937   1.032  17.104  2.7162 -0.1786  1.4526
 2710TIP3    H229546   2.920   1.182  17.100 -2.1831 -0.6067 -0.4774
 2711TIP3   OH229547   1.303   5.187   0.411  0.6135 -0.0820  1.1197
 2711TIP3    H129548   1.237   5.126   0.443  0.7110 -0.2742  0.9565
 2711TIP3    H229549   1.271   5.273   0.437 -0.2163 -0.0769  0.1746
 2712TIP3   OH229550   6.576   0.223  11.282  0.2655  0.3407  0.2680
 2712TIP3    H129551   6.619   0.204  11.365  0.1020 -0.2075  0.2351
 2712TIP3    H229552   6.619   0.301  11.249  0.8427  0.1268  0.5081
 2713TIP3   OH229553   1.213   6.746  14.155  0.4605 -0.1241  0.4544
 2713TIP3    H129554   1.259   6.664  14.135  0.9556  0.1360  0.5050
 2713TIP3    H229555   1.121   6.721  14.164  0.3427 -0.4205 -1.1801
 2714TIP3   OH229556   2.776   2.564  11.974  0.2804  0.1532  0.4085
 2714TIP3    H129557   2.682   2.572  11.989  0.0664  1.3151 -1.1959
 2714TIP3    H229558   2.806   2.654  11.959  0.9691 -0.4352 -2.4504
 2715TIP3   OH229559   4.728   5.437  13.201 -0.3314 -0.0411  0.2995
 2715TIP3    H129560   4.751   5.502  13.267 -0.7481 -0.4243  0.8379
 2715TIP3    H229561   4.805   5.379  13.196 -1.3688 -1.7929  2.6761
 2716TIP3   OH229562   6.483   4.363   4.175  0.2539 -0.1301  0.0862
 2716TIP3    H129563   6.479   4.356   4.079 -0.5775 -0.8673  0.1517
 2716TIP3    H229564   6.473   4.456   4.193  2.0219  0.2346 -0.5856
 2717TIP3   OH229565   1.490   3.684   3.314  0.0827  0.4082  0.0065
 2717TIP3    H129566   1.462   3.649   3.398 -0.8030 -1.2317 -0.9146
 2717TIP3    H229567   1.411   3.681   3.260  1.5014 -2.7844 -2.1946
 2718TIP3   OH229568   4.590   6.539   0.860  0.0810  0.2029 -0.3013
 2718TIP3    H129569   4.542   6.607   0.812 -1.7836 -1.6095 -1.1609
 2718TIP3    H229570   4.676   6.537   0.819 -0.9203 -0.1630 -2.5409
 2719TIP3   OH229571   0.042   2.004   0.403  0.1144 -0.0718  0.1579
 2719TIP3    H129572   0.075   1.918   0.377  1.4975  0.0865  1.2801
 2719TIP3    H229573   0.010   2.043   0.321 -0.7042 -1.6901 -0.3431
 2720TIP3   OH229574   5.544   5.504   0.100 -0.3410 -0.5770  0.1266
 2720TIP3    H129575   5.624   5.552   0.081  0.4055 -2.1527 -0.9399
 2720TIP3    H229576   5.498   5.498   0.017 -1.8270  0.6802  0.8110
 2721TIP3   OH229577   6.573   3.903  14.213 -0.1111 -0.7587  0.0756
 2721TIP3    H129578   6.528   3.819  14.219 -1.1876 -0.2641 -0.6275
 2721TIP3    H229579   6.510   3.967  14.247 -0.1100  0.0006 -1.2799
 2722TIP3   OH229580   5.694   2.874   4.758  0.2300  0.0759  0.0183
 2722TIP3    H129581   5.743   2.931   4.817  0.2660 -0.3719  0.4199
 2722TIP3    H229582   5.716   2.785   4.785  2.1758 -0.2305 -2.1905
 2723TIP3   OH229583   1.412   5.719  13.301 -0.4390 -0.6711  0.6384
 2723TIP3    H129584   1.389   5.663  13.374 -1.5017 -0.2394  0.6484
 2723TIP3    H229585   1.464   5.663  13.243 -0.3022 -1.2516  1.3161
 2724TIP3   OH229586   2.957   4.600   1.348  0.5529 -0.1852  0.8249
 2724TIP3    H129587   2.897   4.673   1.362  2.9595  2.4529 -1.4122
 2724TIP3    H229588   2.937   4.569   1.259  0.3690 -1.5006  1.2963
 2725TIP3   OH229589   2.079   4.101  14.082 -0.6221 -0.6244  0.6140
 2725TIP3    H129590   2.100   4.185  14.123  1.7533 -0.5878 -0.5243
 2725TIP3    H229591   2.131   4.037  14.130  0.6408 -0.8473 -0.9704
 2726TIP3   OH229592   5.817   4.107   0.008  0.2420 -0.9285  0.2032
 2726TIP3    H129593   5.840   4.185   0.059  0.0650 -0.4897 -0.3774
 2726TIP3    H229594   5.878   4.107  -0.066 -1.2510 -0.0170 -1.0941
 2727TIP3   OH229595   3.251   3.079  16.014  0.3493 -0.1919  0.3641
 2727TIP3    H129596   3.256   3.003  16.072 -0.4175 -0.1168  0.5466
 2727TIP3    H229597   3.246   3.042  15.926 -0.6666 -0.3861  0.4921
 2728TIP3   OH229598   5.350   1.172  10.768 -0.8049  0.1451  0.1645
 2728TIP3    H129599   5.314   1.139  10.686 -2.5432  1.7151  0.2547
 2728TIP3    H229600   5.357   1.266  10.756 -2.9203  0.6849  2.4393
 2729TIP3   OH229601   5.431   0.089   0.701  0.0855 -0.2192 -0.1733
 2729TIP3    H129602   5.346   0.116   0.667  0.7715  1.4995 -0.6253
 2729TIP3    H229603   5.484   0.071   0.623  0.8269  1.0406  0.0061
 2730TIP3   OH229604   5.354   3.163  15.776 -0.5032 -0.4900  0.0370
 2730TIP3    H129605   5.351   3.148  15.871  1.2020  2.7424  0.7506
 2730TIP3    H229606   5.439   3.128  15.749 -1.1134 -1.6785 -0.4057
 2731TIP3   OH229607   2.877   2.538   5.010  0.2149  0.1191  0.4019
 2731TIP3    H129608   2.803   2.556   5.068  0.8107  0.7713  0.9723
 2731TIP3    H229609   2.846   2.564   4.923 -0.9615 -1.6087  0.2627
 2732TIP3   OH229610   0.311   3.140  16.679 -0.1230 -0.2104  0.1055
 2732TIP3    H129611   0.343   3.051  16.688  0.4130 -0.0750 -0.3702
 2732TIP3    H229612   0.354   3.173  16.599 -0.0333  0.5902  0.4748
 2733TIP3   OH229613   6.605   4.824  13.833  0.4369 -0.1599 -0.0573
 2733TIP3    H129614   6.638   4.887  13.769  0.3863 -1.0925 -1.0300
 2733TIP3    H229615   6.597   4.874  13.914 -2.1575  1.8132 -1.3854
 2734TIP3   OH229616   5.375   1.837  12.624 -0.8100  0.5043  0.1914
 2734TIP3    H129617   5.305   1.883  12.578 -1.9823 -1.3694 -0.0261
 2734TIP3    H229618   5.330   1.787  12.692  0.3553 -0.4706  0.2856
 2735TIP3   OH229619   2.421   1.913  16.535 -0.4619  0.0798  0.0249
 2735TIP3    H129620   2.454   1.837  16.582 -0.3590 -1.4179 -2.2900
 2735TIP3    H229621   2.420   1.984  16.600  3.5189 -0.7507  1.2426
 2736TIP3   OH229622   2.189   6.607   2.779  0.9295 -0.1690 -0.0887
 2736TIP3    H129623   2.119   6.550   2.811  0.3474  0.6000  0.0136
 2736TIP3    H229624   2.171   6.692   2.818  1.5161  0.2187 -0.6465
 2737TIP3   OH229625   2.311   2.866   6.241 -0.1231 -0.4326 -0.3247
 2737TIP3    H129626   2.229   2.851   6.194 -0.2513  1.3188 -0.7419
 2737TIP3    H229627   2.284   2.894   6.329 -0.1166  2.2989 -1.1043
 2738TIP3   OH229628   3.332   3.865   1.008 -0.1573 -0.0532  0.5120
 2738TIP3    H129629   3.238   3.858   0.990 -0.2607 -2.3407  1.5616
 2738TIP3    H229630   3.371   3.794   0.957  0.6922 -0.6082  1.8840
 2739TIP3   OH229631   1.836   2.613  14.082  0.5844 -0.0391 -0.6987
 2739TIP3    H129632   1.838   2.709  14.091  1.1105 -0.0130 -1.0786
 2739TIP3    H229633   1.928   2.588  14.078  0.4657 -0.6335  0.0903
 2740TIP3   OH229634   1.731   4.202  16.339 -0.0890  0.5488  0.5239
 2740TIP3    H129635   1.660   4.243  16.289  0.4605 -1.1655 -1.8337
 2740TIP3    H229636   1.807   4.258  16.320  0.0942 -0.0312 -0.5681
 2741TIP3   OH229637   3.910   6.012  16.616 -0.3959  0.3171 -0.1939
 2741TIP3    H129638   3.861   6.083  16.574  1.2596  1.8353  0.3262
 2741TIP3    H229639   3.892   6.023  16.709 -1.8457 -1.3349 -0.2273
 2742TIP3   OH229640   6.453   5.558  15.750  0.0053  0.1199 -0.6546
 2742TIP3    H129641   6.466   5.651  15.729 -0.4347  0.0938 -1.0721
 2742TIP3    H229642   6.358   5.549  15.760  0.0689 -0.2303 -0.3414
 2743TIP3   OH229643   0.261   2.278   2.685  0.1737 -0.6528  0.5766
 2743TIP3    H129644   0.332   2.237   2.637 -2.2037 -1.0136 -3.1015
 2743TIP3    H229645   0.261   2.369   2.654 -0.7522 -0.5782  0.7647
 2744TIP3   OH229646   2.725   5.338   4.626  0.1415  0.1452 -0.6057
 2744TIP3    H129647   2.762   5.256   4.658  0.4035  0.5586  0.1803
 2744TIP3    H229648   2.734   5.333   4.531 -1.4618 -1.5017 -0.7433
 2745TIP3   OH229649   4.478   3.045   5.708 -0.1353 -0.1373 -0.4175
 2745TIP3    H129650   4.544   3.112   5.691  0.5827 -0.9250 -0.8271
 2745TIP3    H229651   4.463   3.049   5.803 -2.1428  2.4282 -0.7271
 2746TIP3   OH229652   4.010   0.156   2.135 -0.8801 -0.0939 -0.0501
 2746TIP3    H129653   3.975   0.229   2.084 -1.6152 -1.1426 -1.1223
 2746TIP3    H229654   3.932   0.106   2.161 -0.3956 -0.4738  0.6806
 2747TIP3   OH229655   5.124   0.829  11.770 -0.1451  0.1117  0.0166
 2747TIP3    H129656   5.127   0.735  11.754  0.3639 -0.3257  2.2619
 2747TIP3    H229657   5.156   0.868  11.689  1.7440 -1.7654 -0.2451
 2748TIP3   OH229658   2.852   1.004  12.057 -0.0831 -0.2987 -0.2667
 2748TIP3    H129659   2.821   0.929  12.107 -0.6412  1.1013  1.5859
 2748TIP3    H229660   2.926   1.038  12.108 -0.1402  0.6877 -0.8214
 2749TIP3   OH229661   6.415   0.970   6.128 -0.2696 -0.0577  0.1191
 2749TIP3    H129662   6.477   0.969   6.201  1.6047 -0.4108 -1.3758
 2749TIP3    H229663   6.465   1.008   6.055 -1.7520 -0.5497 -1.2082
 2750TIP3   OH229664   2.176   4.330  10.436  0.3389  0.2953 -0.0444
 2750TIP3    H129665   2.129   4.255  10.473 -0.7646  1.0886  0.2171
 2750TIP3    H229666   2.259   4.294  10.405 -0.3004 -1.0798 -0.2035
 2751TIP3   OH229667   5.358   6.055  13.852  0.1738  0.0941  0.3805
 2751TIP3    H129668   5.433   6.036  13.909 -0.4009 -2.2930  0.4429
 2751TIP3    H229669   5.281   6.036  13.906 -0.3801 -2.3253 -1.1121
 2752TIP3   OH229670   6.127   3.347   2.511  0.3533 -0.0734 -0.0807
 2752TIP3    H129671   6.175   3.297   2.445  1.1506  1.3641 -0.6154
 2752TIP3    H229672   6.185   3.349   2.587 -0.1535 -0.8898  0.3429
 2753TIP3   OH229673   1.553   1.037   3.331 -0.1314 -0.5813 -0.0584
 2753TIP3    H129674   1.597   0.969   3.382  0.8755  1.1387  1.4947
 2753TIP3    H229675   1.569   1.013   3.240  0.0512 -2.4814  0.4327
 2754TIP3   OH229676   3.231   6.286  11.347 -1.5978 -0.3550 -0.0352
 2754TIP3    H129677   3.262   6.242  11.268  0.9506 -0.4823  0.9533
 2754TIP3    H229678   3.256   6.378  11.335 -1.8207 -0.2441  0.3281
 2755TIP3   OH229679   1.184   4.637  16.383 -0.1796  0.4543  0.3143
 2755TIP3    H129680   1.188   4.638  16.479  0.4499  0.7302  0.2913
 2755TIP3    H229681   1.276   4.630  16.355 -0.3980 -0.2441 -0.2647
 2756TIP3   OH229682   4.987   1.697  17.295  0.4227  0.3362 -0.1067
 2756TIP3    H129683   4.928   1.771  17.279 -0.1666 -0.5181 -2.1009
 2756TIP3    H229684   4.932   1.620  17.284  2.0505 -0.5382 -3.1137
 2757TIP3   OH229685   6.211   2.834   5.623 -0.2304 -0.5821 -0.1391
 2757TIP3    H129686   6.141   2.770   5.638 -0.5231 -0.3530 -0.5153
 2757TIP3    H229687   6.214   2.844   5.528  0.0022 -0.2451 -0.0948
 2758TIP3   OH229688   6.401   3.059  17.322 -0.1042 -0.1043  0.0866
 2758TIP3    H129689   6.364   2.995  17.260 -0.8659 -0.6218  1.0488
 2758TIP3    H229690   6.482   3.018  17.353 -1.2703 -1.2739  1.7310
 2759TIP3   OH229691   4.942   1.317  13.808  0.3262  0.1079  1.2878
 2759TIP3    H129692   4.966   1.234  13.766 -2.7416 -0.2221 -0.0889
 2759TIP3    H229693   4.996   1.383  13.766  0.7540 -0.8576  0.2914
 2760TIP3   OH229694   4.763   1.710  14.841  0.3846 -0.5378 -0.4105
 2760TIP3    H129695   4.683   1.718  14.893  0.4900 -2.1899  0.0572
 2760TIP3    H229696   4.824   1.771  14.882  0.3724 -1.6000  1.2871
 2761TIP3   OH229697   0.898   5.808  15.990  0.7060 -0.1735 -0.0283
 2761TIP3    H129698   0.919   5.900  16.003 -1.7846  0.3814  0.6480
 2761TIP3    H229699   0.832   5.808  15.920  0.7684 -1.4630 -0.1159
 2762TIP3   OH229700   3.835   4.831  12.247 -0.9335 -0.1731  0.4957
 2762TIP3    H129701   3.926   4.852  12.227 -1.8373  0.8600 -3.3567
 2762TIP3    H229702   3.800   4.910  12.288 -0.9593  1.0398 -1.6773
 2763TIP3   OH229703   2.026   2.805   2.383 -0.5540 -0.5402  0.3993
 2763TIP3    H129704   2.045   2.882   2.330  1.2533 -1.1684  0.0644
 2763TIP3    H229705   2.023   2.732   2.320 -1.3852 -0.8868  0.8146
 2764TIP3   OH229706   5.759   0.851   4.396  0.2243  0.0952 -0.6306
 2764TIP3    H129707   5.821   0.780   4.379 -0.7548 -0.9646  0.0681
 2764TIP3    H229708   5.808   0.931   4.374  1.8027 -0.6962 -0.1739
 2765TIP3   OH229709   2.363   5.330  14.955  0.5757 -0.5757  0.5813
 2765TIP3    H129710   2.417   5.323  15.034  1.5944 -4.1001 -0.2116
 2765TIP3    H229711   2.275   5.304  14.984  0.3836  0.4278  0.9475
 2766TIP3   OH229712   2.864   1.780  10.478  0.2295 -0.1198  0.2326
 2766TIP3    H129713   2.882   1.829  10.558  0.0887  0.2474  0.0423
 2766TIP3    H229714   2.951   1.752  10.447  0.4147  0.9365 -0.2384
 2767TIP3   OH229715   2.146   3.184  16.619  0.2832  0.3042  0.6781
 2767TIP3    H129716   2.080   3.122  16.649  2.0238 -1.3532  1.2769
 2767TIP3    H229717   2.139   3.182  16.523 -1.1020  0.8480  0.7491
 2768TIP3   OH229718   5.284   3.039   6.151 -0.0630 -0.5754 -0.5769
 2768TIP3    H129719   5.365   3.017   6.199 -0.9840 -1.6851  0.5532
 2768TIP3    H229720   5.268   3.131   6.173  0.7965 -0.3894 -0.6796
 2769TIP3   OH229721   1.593   1.398  12.210 -0.2102 -0.2966  0.2675
 2769TIP3    H129722   1.579   1.466  12.144 -0.9013 -0.1830  0.5218
 2769TIP3    H229723   1.606   1.446  12.291  1.9704 -0.3845  0.0301
 2770TIP3   OH229724   5.663   5.358   6.276 -0.3528 -0.0887 -0.1137
 2770TIP3    H129725   5.734   5.409   6.239  0.1117  0.3781  1.3750
 2770TIP3    H229726   5.583   5.405   6.250  0.1160  2.5394  2.7464
 2771TIP3   OH229727   5.155   3.207  16.350  0.4524  0.2898  0.2771
 2771TIP3    H129728   5.177   3.207  16.443  1.0195  1.8285  0.1784
 2771TIP3    H229729   5.074   3.157  16.344 -0.0574  0.8929  1.7320
 2772TIP3   OH229730   4.831   1.778  16.861  0.2285  0.1324  0.3530
 2772TIP3    H129731   4.804   1.821  16.780 -1.9888  2.1758  2.0150
 2772TIP3    H229732   4.760   1.716  16.879  1.0119 -0.7581  0.4707
 2773TIP3   OH229733   4.777   4.057   1.106  0.1737 -0.0569  0.2155
 2773TIP3    H129734   4.782   4.140   1.155 -0.0300 -0.2602  0.5827
 2773TIP3    H229735   4.808   4.080   1.019 -0.2502  0.5011  0.2011
 2774TIP3   OH229736   0.431   3.867  16.922  0.1973  0.2263 -0.2039
 2774TIP3    H129737   0.481   3.932  16.872 -0.3269 -0.1421 -1.2318
 2774TIP3    H229738   0.483   3.852  17.001 -0.0130  2.4343  0.4308
 2775TIP3   OH229739   3.991   2.811  17.008 -0.2544 -1.0153 -0.5579
 2775TIP3    H129740   4.055   2.747  16.978  2.1657  0.5270  0.9022
 2775TIP3    H229741   4.030   2.896  16.986 -0.4653  0.0513  2.6367
 2776TIP3   OH229742   3.727   3.246  12.658  0.1140  0.2596 -0.2836
 2776TIP3    H129743   3.662   3.179  12.637  2.5368 -1.9922 -1.1656
 2776TIP3    H229744   3.752   3.226  12.748 -0.3240  1.0558  0.0184
 2777TIP3   OH229745   6.447   1.554   4.218 -0.3541  0.3758 -0.8192
 2777TIP3    H129746   6.535   1.545   4.181 -0.9422 -3.5119 -1.7194
 2777TIP3    H229747   6.444   1.489   4.289 -2.3332  0.7974 -0.4609
 2778TIP3   OH229748   2.024   1.690  10.944  0.2192 -0.0118 -0.3912
 2778TIP3    H129749   2.074   1.771  10.935  2.7104 -1.5984 -2.0389
 2778TIP3    H229750   1.933   1.718  10.943  0.9812  2.7919 -0.2818
 2779TIP3   OH229751   3.123   0.966  15.772  0.3293 -0.0592  0.4222
 2779TIP3    H129752   3.186   0.963  15.844  0.8266 -0.4277 -0.0174
 2779TIP3    H229753   3.176   0.978  15.694 -0.2770  1.2588  0.1958
 2780TIP3   OH229754   1.635   2.111   5.269  0.1915  0.3168  0.0783
 2780TIP3    H129755   1.686   2.165   5.329  0.7961 -1.7210  1.5323
 2780TIP3    H229756   1.546   2.144   5.277  0.7090  1.7656  0.0814
 2781TIP3   OH229757   3.322   0.451  15.454 -0.7608  0.9067  0.1537
 2781TIP3    H129758   3.321   0.535  15.498 -0.4685  1.1832 -0.3561
 2781TIP3    H229759   3.406   0.412  15.478 -0.6090  1.0500 -0.1410
 2782TIP3   OH229760   2.592   0.984  12.988 -0.0126 -0.2672 -0.3620
 2782TIP3    H129761   2.617   0.958  12.899 -1.7106 -0.7362 -0.7320
 2782TIP3    H229762   2.672   0.971  13.040  0.2608 -2.7372 -1.2625
 2783TIP3   OH229763   0.381   5.558  15.038  0.4703 -0.3020  0.5356
 2783TIP3    H129764   0.424   5.476  15.013 -0.7360 -1.1180  1.0186
 2783TIP3    H229765   0.307   5.565  14.977  0.5703  0.4405  0.4962
 2784TIP3   OH229766   3.379   3.780   2.480  0.5753 -1.0124  0.2124
 2784TIP3    H129767   3.371   3.716   2.409 -0.1672  2.5941 -3.3283
 2784TIP3    H229768   3.292   3.784   2.519  0.1141 -0.8184 -0.8241
 2785TIP3   OH229769   0.759   0.712   6.498 -0.6201  0.2154 -0.4707
 2785TIP3    H129770   0.787   0.800   6.526 -2.2568  0.1400  1.6222
 2785TIP3    H229771   0.669   0.724   6.470 -0.9188 -0.8142  0.0104
 2786TIP3   OH229772   5.064   4.311  13.777 -0.7433  0.3237 -0.3616
 2786TIP3    H129773   5.158   4.328  13.763 -0.4188 -0.8971  0.2255
 2786TIP3    H229774   5.028   4.304  13.688  0.0279 -0.7385 -0.6067
 2787TIP3   OH229775   0.123   0.708  11.833  0.5687 -0.2129  0.2505
 2787TIP3    H129776   0.125   0.787  11.779  0.0343 -0.9319 -0.8610
 2787TIP3    H229777   0.192   0.721  11.898 -0.9700  2.1559  1.5595
 2788TIP3   OH229778   6.744   3.190   1.504 -0.5604 -0.7349  0.2989
 2788TIP3    H129779   6.660   3.221   1.468 -0.4045 -0.7152 -0.0557
 2788TIP3    H229780   6.719   3.133   1.576 -0.9075 -1.2718 -0.2324
 2789TIP3   OH229781   0.987   2.075   5.308  0.0540 -0.6926  0.4805
 2789TIP3    H129782   1.042   2.103   5.380  1.9623 -2.9656  0.0003
 2789TIP3    H229783   0.966   1.984   5.327  0.9921 -1.4962 -2.0066
 2790TIP3   OH229784   5.025   5.914   3.543  0.1013  0.1415  0.2269
 2790TIP3    H129785   4.943   5.940   3.501  0.2802  0.0346 -0.1967
 2790TIP3    H229786   5.093   5.946   3.483  0.3570 -0.0532  0.4155
 2791TIP3   OH229787   4.265   6.158   1.535 -0.2127 -0.8330  0.4997
 2791TIP3    H129788   4.268   6.231   1.596 -1.8807  0.9490 -1.3887
 2791TIP3    H229789   4.176   6.124   1.541  0.2726 -2.1582  0.6747
 2792TIP3   OH229790   5.825   2.137  14.576  0.1928  0.5534  0.1127
 2792TIP3    H129791   5.777   2.087  14.642  0.0011  0.7494  0.1249
 2792TIP3    H229792   5.900   2.173  14.623  1.0377 -0.7628 -0.1863
 2793TIP3   OH229793   2.215   1.654   4.583  0.5413 -0.2604 -0.3888
 2793TIP3    H129794   2.267   1.729   4.557 -0.4941  0.9404  0.8470
 2793TIP3    H229795   2.201   1.605   4.502  0.9861  1.0393 -1.2838
 2794TIP3   OH229796   4.292   1.617  15.090  0.0244 -0.2409 -0.1508
 2794TIP3    H129797   4.355   1.680  15.055 -0.8439 -0.2428 -1.8147
 2794TIP3    H229798   4.340   1.570  15.158  1.8599 -0.3270 -1.4510
 2795TIP3   OH229799   2.559   2.286  12.669  0.0178 -0.2177  0.5418
 2795TIP3    H129800   2.473   2.311  12.635  0.7157  0.0406 -1.1769
 2795TIP3    H229801   2.596   2.367  12.703  0.4984  0.2246 -0.9355
 2796TIP3   OH229802   4.065   0.610   5.459 -0.3003 -0.0293  0.1833
 2796TIP3    H129803   4.131   0.547   5.431  1.1493  0.9285  1.2773
 2796TIP3    H229804   3.981   0.568   5.438  0.6270 -1.0942 -1.6537
 2797TIP3   OH229805   5.895   0.965  15.075 -0.3160 -0.6662 -0.0203
 2797TIP3    H129806   5.948   1.006  15.006 -0.8035 -0.3383 -0.2014
 2797TIP3    H229807   5.862   1.039  15.127 -1.3291 -0.8133 -0.4415
 2798TIP3   OH229808   0.068   5.316  14.609  0.0046  0.7271 -0.1972
 2798TIP3    H129809   0.104   5.369  14.681 -0.1502  0.2441  0.2488
 2798TIP3    H229810   0.066   5.227  14.645 -0.9193  0.6285 -0.4821
 2799TIP3   OH229811   6.719   3.746  16.729  0.5263 -0.3591 -0.1506
 2799TIP3    H129812   6.810   3.762  16.755  0.6880 -1.1016 -0.2217
 2799TIP3    H229813   6.676   3.830  16.740  1.0667 -0.1614  0.5620
 2800TIP3   OH229814   5.301   1.827  10.510  0.6343  0.2903  0.5966
 2800TIP3    H129815   5.247   1.822  10.431 -0.0162  0.8140  0.9877
 2800TIP3    H229816   5.238   1.813  10.582  1.0278  0.8659  1.0619
 2801TIP3   OH229817   3.621   0.837   3.023  0.2306 -0.2371 -0.1254
 2801TIP3    H129818   3.671   0.782   3.084  1.8622  0.6561 -0.6029
 2801TIP3    H229819   3.670   0.831   2.940 -0.0722  1.2046 -0.4271
 2802TIP3   OH229820   6.085   3.644  12.364 -0.6541 -0.5765  0.0817
 2802TIP3    H129821   6.065   3.593  12.443 -1.2977 -0.2685  0.1256
 2802TIP3    H229822   6.136   3.718  12.397 -0.9330 -0.4409  0.2082
 2803TIP3   OH229823   3.388   6.702   5.233 -0.3711 -0.1376  0.6127
 2803TIP3    H129824   3.426   6.788   5.252 -0.5503 -0.3275  1.9355
 2803TIP3    H229825   3.451   6.639   5.266  0.0898 -0.5740 -0.9818
 2804TIP3   OH229826   5.045   6.639  13.946 -0.0538 -0.4230  0.8261
 2804TIP3    H129827   5.054   6.680  13.860  1.0934 -0.2432  1.0228
 2804TIP3    H229828   4.950   6.640  13.963 -0.0756  2.5304  1.0002
 2805TIP3   OH229829   1.447   3.936   3.069  0.0279 -0.3381 -0.1970
 2805TIP3    H129830   1.407   3.880   3.002 -1.2833  0.4733 -0.1291
 2805TIP3    H229831   1.435   4.025   3.035 -0.6888  0.0942  1.1112
 2806TIP3   OH229832   6.353   0.950   4.048 -0.0083 -0.0590  0.0242
 2806TIP3    H129833   6.352   1.045   4.039  0.4911  0.0617  1.1174
 2806TIP3    H229834   6.364   0.934   4.141 -0.0932 -1.1983 -0.1383
 2807TIP3   OH229835   5.729   0.096   1.406 -0.0339  0.1907 -0.3286
 2807TIP3    H129836   5.773   0.053   1.332 -1.0372 -1.0476 -0.2477
 2807TIP3    H229837   5.799   0.142   1.452  0.9796 -0.7723 -0.8507
 2808TIP3   OH229838   0.497   0.895  11.858 -0.2609 -0.1850  0.2209
 2808TIP3    H129839   0.438   0.864  11.926  0.1777 -1.5643  0.0009
 2808TIP3    H229840   0.542   0.970  11.897 -2.1321  0.9134  0.3917
 2809TIP3   OH229841   6.723   1.534   0.310 -0.5955  0.2924 -0.4186
 2809TIP3    H129842   6.789   1.550   0.377 -2.4591  0.0858  1.5838
 2809TIP3    H229843   6.705   1.620   0.272 -2.4943  1.2979  2.3947
 2810TIP3   OH229844   3.661   5.802  11.104 -0.0898 -0.0287  0.1719
 2810TIP3    H129845   3.593   5.793  11.037  1.2002  1.5831 -1.4696
 2810TIP3    H229846   3.646   5.730  11.165 -2.7523 -0.1773 -0.5631
 2811TIP3   OH229847   2.880   4.722  11.716  0.1731  0.0629  0.4709
 2811TIP3    H129848   2.843   4.806  11.691  2.2993  0.4483 -1.7620
 2811TIP3    H229849   2.957   4.744  11.768  2.0081 -0.3182 -1.9353
 2812TIP3   OH229850   0.443   4.398   1.985  0.2567  0.3540  0.9334
 2812TIP3    H129851   0.481   4.476   2.026 -0.8795  1.2484  0.3339
 2812TIP3    H229852   0.364   4.430   1.942 -0.1943 -1.1295  0.6199
 2813TIP3   OH229853   0.644   3.530  13.957  0.0125  0.5629  0.3046
 2813TIP3    H129854   0.566   3.562  14.002  0.7095  1.3846  0.9718
 2813TIP3    H229855   0.623   3.439  13.934 -1.3156  0.9102  0.0318
 2814TIP3   OH229856   3.816   6.087  15.489 -0.0625 -0.5611  0.1325
 2814TIP3    H129857   3.767   6.155  15.442 -0.7987 -1.8256 -0.9748
 2814TIP3    H229858   3.754   6.049  15.551  0.1038 -0.8018  0.1543
 2815TIP3   OH229859   0.415   0.492   4.277 -0.3398 -0.4566  0.0284
 2815TIP3    H129860   0.442   0.456   4.193 -0.9196  0.1353 -0.4208
 2815TIP3    H229861   0.463   0.440   4.342 -0.5616 -1.5011 -0.6191
 2816TIP3   OH229862   1.849   5.622  13.716 -0.0389  0.6427 -0.1361
 2816TIP3    H129863   1.786   5.660  13.777 -1.0686 -1.0512 -0.0811
 2816TIP3    H229864   1.796   5.587  13.645  1.0709  1.6554 -1.5204
 2817TIP3   OH229865   0.217   0.278   2.170 -0.0772 -0.1898 -0.1452
 2817TIP3    H129866   0.189   0.369   2.160 -0.6060 -0.4158 -0.7837
 2817TIP3    H229867   0.149   0.237   2.224  0.1613 -0.2047  0.1449
 2818TIP3   OH229868   0.374   5.842  15.113 -0.2588  0.0565 -0.2818
 2818TIP3    H129869   0.463   5.843  15.150 -1.6192  0.3758  3.3306
 2818TIP3    H229870   0.358   5.750  15.095  0.4832 -0.1299 -0.0634
 2819TIP3   OH229871   1.647   3.487  14.822 -0.5543 -0.3759 -0.1354
 2819TIP3    H129872   1.692   3.543  14.886 -0.0081 -1.0291  0.0586
 2819TIP3    H229873   1.554   3.500  14.841 -0.4466  0.5579 -0.1742
 2820TIP3   OH229874   2.455   0.307   0.610 -0.5137 -0.2751  0.1416
 2820TIP3    H129875   2.505   0.388   0.595  0.6839 -1.1903 -1.1680
 2820TIP3    H229876   2.425   0.313   0.700  2.7369 -0.0081  1.3360
 2821TIP3   OH229877   4.797   3.561  15.005 -0.0377  0.7014  0.1694
 2821TIP3    H129878   4.755   3.645  15.024  1.3582  1.6309 -0.7102
 2821TIP3    H229879   4.857   3.580  14.933  0.4910 -1.0055  0.1210
 2822TIP3   OH229880   5.316   6.128   3.474 -0.0182 -0.1137 -0.2532
 2822TIP3    H129881   5.281   6.069   3.408  1.0705  0.9208 -1.8118
 2822TIP3    H229882   5.247   6.194   3.486  0.6557  0.9753 -2.0787
 2823TIP3   OH229883   4.376   1.629  11.654  0.5462  0.1415 -0.4799
 2823TIP3    H129884   4.365   1.548  11.704  0.7931 -0.0726 -0.7645
 2823TIP3    H229885   4.418   1.601  11.572 -0.3324  0.4065 -1.0366
 2824TIP3   OH229886   5.168   3.121  17.086  0.3347 -0.0984 -0.2529
 2824TIP3    H129887   5.148   3.203  17.130 -0.0813 -0.5665  0.4579
 2824TIP3    H229888   5.251   3.137  17.042  0.6286  0.4810  0.4798
 2825TIP3   OH229889   0.445   4.567  13.254 -1.0163 -0.2325 -0.0643
 2825TIP3    H129890   0.431   4.648  13.302 -2.7655  0.0672 -0.9978
 2825TIP3    H229891   0.364   4.517  13.268  0.0601 -1.8852  0.5821
 2826TIP3   OH229892   0.564   0.971   6.114 -0.2865 -0.6720  0.4818
 2826TIP3    H129893   0.648   0.977   6.160 -0.1834 -0.7263  0.3029
 2826TIP3    H229894   0.511   1.041   6.151 -0.9199 -1.9625  2.1292
 2827TIP3   OH229895   1.797   5.874  14.454 -0.3576  0.5783 -0.2274
 2827TIP3    H129896   1.737   5.939  14.489 -0.9303  1.1512 -2.1567
 2827TIP3    H229897   1.859   5.857  14.526 -1.0285  2.1924  0.7802
 2828TIP3   OH229898   0.325   1.724   2.788 -0.2593  0.8092  0.1003
 2828TIP3    H129899   0.309   1.725   2.882  1.1712  1.2306  0.3553
 2828TIP3    H229900   0.373   1.805   2.770  0.2094  0.3384 -0.8571
 2829TIP3   OH229901   4.823   4.927   0.162  0.2085 -0.1995 -0.0015
 2829TIP3    H129902   4.833   4.839   0.199  1.6642 -1.3218 -2.7762
 2829TIP3    H229903   4.842   4.986   0.236 -1.3758 -2.1328  2.0791
 2830TIP3   OH229904   4.147   3.653  11.955 -0.0955  0.4839  0.1524
 2830TIP3    H129905   4.215   3.698  11.905  0.4642  0.8404  1.2066
 2830TIP3    H229906   4.076   3.717  11.962  0.5817  1.1234  1.3998
 2831TIP3   OH229907   3.349   6.482   0.745 -0.4518  0.3480 -0.6820
 2831TIP3    H129908   3.398   6.424   0.803  0.1761  0.4241 -1.1235
 2831TIP3    H229909   3.359   6.444   0.658  0.0546  1.1628 -0.9945
 2832TIP3   OH229910   2.003   1.052   5.109 -0.5538 -0.2068 -0.3883
 2832TIP3    H129911   2.094   1.042   5.081 -0.5155 -0.7799 -0.0685
 2832TIP3    H229912   1.959   1.092   5.033  0.0202  0.3432 -0.4387
 2833TIP3   OH229913   3.430   1.722  12.760  0.3823 -0.1113 -0.4800
 2833TIP3    H129914   3.393   1.635  12.777  0.3247  0.0614  0.3366
 2833TIP3    H229915   3.374   1.759  12.692 -0.3940 -0.2188  0.0811
 2834TIP3   OH229916   0.930   3.585  12.804  0.3592 -0.4055  0.3128
 2834TIP3    H129917   0.960   3.505  12.847 -0.0470 -0.3865  0.6414
 2834TIP3    H229918   0.838   3.568  12.782  0.3516 -0.1388  0.1279
 2835TIP3   OH229919   5.266   6.610  12.921  0.8002  0.0571 -0.1512
 2835TIP3    H129920   5.306   6.598  12.835 -0.2351 -0.2947 -0.5869
 2835TIP3    H229921   5.326   6.670  12.966  1.5635 -0.0706 -0.9602
 2836TIP3   OH229922   0.715   6.459   2.621 -0.5322 -0.3707  0.6251
 2836TIP3    H129923   0.802   6.443   2.656 -0.9634 -3.2670  0.6192
 2836TIP3    H229924   0.728   6.460   2.526 -0.6753 -2.8933  0.5025
 2837TIP3   OH229925   4.995   5.099   2.996  0.4105 -0.2730 -0.3390
 2837TIP3    H129926   4.979   5.090   3.090  0.6236  1.3316 -0.1141
 2837TIP3    H229927   5.070   5.042   2.978 -0.4804 -1.6552  0.1693
 2838TIP3   OH229928   3.909   1.814   2.573 -0.0103  0.2208  0.1926
 2838TIP3    H129929   3.966   1.880   2.613 -0.3062  0.3394  0.4265
 2838TIP3    H229930   3.837   1.804   2.636 -0.7487  0.7881 -0.5407
 2839TIP3   OH229931   2.342   1.633  14.789 -0.2248 -0.1192 -0.4750
 2839TIP3    H129932   2.342   1.570  14.716  1.8924 -0.7547  0.0051
 2839TIP3    H229933   2.260   1.615  14.835 -1.3614 -0.0839 -2.3412
 2840TIP3   OH229934   6.005   4.894  17.147  0.5760  0.0695  0.2632
 2840TIP3    H129935   5.931   4.941  17.185  0.5948  0.5577 -0.2876
 2840TIP3    H229936   6.081   4.922  17.199  1.2077  3.4227 -2.1393
 2841TIP3   OH229937   0.682   0.263   0.766  0.9193 -0.8280  0.7157
 2841TIP3    H129938   0.659   0.267   0.674  0.0405 -1.4028  0.9038
 2841TIP3    H229939   0.774   0.292   0.769  1.4214 -2.1845 -0.5108
 2842TIP3   OH229940   1.659   4.765  15.479 -0.0967 -0.5742  0.3896
 2842TIP3    H129941   1.733   4.756  15.420  0.3909  0.5811  0.8005
 2842TIP3    H229942   1.687   4.725  15.561  0.3443  0.4245  0.7504
 2843TIP3   OH229943   1.464   4.560  16.259  0.2894 -0.1017  0.7453
 2843TIP3    H129944   1.501   4.477  16.231 -0.9242 -0.5258  0.3481
 2843TIP3    H229945   1.469   4.616  16.182  1.1579  0.2310  1.0296
 2844TIP3   OH229946   0.525   1.460  12.821 -0.4179  0.6688 -0.1645
 2844TIP3    H129947   0.543   1.529  12.758 -0.6672  0.5586 -0.3608
 2844TIP3    H229948   0.587   1.390  12.799 -0.8011  0.4505 -0.5813
 2845TIP3   OH229949   0.048   1.222  17.196 -0.6010  0.7510 -0.1645
 2845TIP3    H129950  -0.032   1.227  17.145  0.5095  2.5952 -1.8753
 2845TIP3    H229951   0.035   1.284  17.268 -0.8773  0.6750 -0.1488
 2846TIP3   OH229952   6.368   2.564  15.079 -0.1690  0.3036 -0.0643
 2846TIP3    H129953   6.317   2.561  15.160 -1.0213 -1.2778 -0.6183
 2846TIP3    H229954   6.407   2.477  15.071 -0.2597  0.3554 -1.4420
 2847TIP3   OH229955   4.757   4.351   0.486 -0.2493 -0.0664  0.2572
 2847TIP3    H129956   4.728   4.363   0.396 -0.0895  2.2831  0.4687
 2847TIP3    H229957   4.690   4.295   0.526  0.1874 -1.9705 -1.5099
 2848TIP3   OH229958   2.995   0.904   1.560 -0.0898  0.2292  0.2010
 2848TIP3    H129959   2.952   0.844   1.621 -1.1750 -1.9502 -2.5046
 2848TIP3    H229960   2.951   0.988   1.574 -0.3785 -0.2112  2.2628
 2849TIP3   OH229961   5.717   2.483  11.494  0.0560 -0.3419  0.2065
 2849TIP3    H129962   5.762   2.401  11.476  1.4386  0.4775 -0.2061
 2849TIP3    H229963   5.784   2.539  11.534 -0.8813  0.5600  0.5622
 2850TIP3   OH229964   5.049   2.759   3.136 -0.2472  0.2438 -0.2746
 2850TIP3    H129965   4.977   2.741   3.195  0.9594 -0.5698  1.0114
 2850TIP3    H229966   5.107   2.817   3.186 -0.1820  1.2396 -1.4366
 2851TIP3   OH229967   3.853   6.699   2.169 -0.5089  0.1688  0.1267
 2851TIP3    H129968   3.852   6.747   2.252 -1.8208 -0.3884  0.4579
 2851TIP3    H229969   3.896   6.616   2.190  0.5568  0.6463 -0.1301
 2852TIP3   OH229970   3.141   5.461  15.717  0.1582 -0.0476 -0.1634
 2852TIP3    H129971   3.186   5.384  15.682  0.1815  0.2091 -0.7194
 2852TIP3    H229972   3.209   5.529  15.719  0.4865 -0.3953  1.6160
 2853TIP3   OH229973   0.897   2.659   1.349  0.8087  0.2623  0.3763
 2853TIP3    H129974   0.983   2.691   1.321  0.2693 -0.1215 -1.8488
 2853TIP3    H229975   0.891   2.571   1.313 -0.5279  0.2898  0.4830
 2854TIP3   OH229976   3.943   6.738  14.786  0.3021 -0.1083  0.3633
 2854TIP3    H129977   3.927   6.698  14.871 -0.2034  0.9996  0.8157
 2854TIP3    H229978   3.901   6.824  14.792  0.3339  0.0182 -0.9797
 2855TIP3   OH229979   3.186   3.059   5.013 -0.0631  0.3037 -0.4215
 2855TIP3    H129980   3.257   3.103   4.965  0.7181  2.8179  2.6902
 2855TIP3    H229981   3.119   3.127   5.021  0.9022  1.0088  4.0062
 2856TIP3   OH229982   1.671   4.950   4.286  0.1827 -0.5279  0.0281
 2856TIP3    H129983   1.744   5.011   4.278  0.1929 -0.2508  1.9455
 2856TIP3    H229984   1.711   4.864   4.288  0.2687 -0.5392 -1.1064
 2857TIP3   OH229985   4.628   2.778   5.030 -0.8303  0.2134 -0.2987
 2857TIP3    H129986   4.669   2.846   4.977 -1.2202  0.7672  0.0919
 2857TIP3    H229987   4.582   2.826   5.099 -1.0036 -0.4542  0.0620
 2858TIP3   OH229988   2.528   0.948   1.270 -0.3571  0.9813 -0.4361
 2858TIP3    H129989   2.570   0.877   1.220 -1.6918  0.7926 -1.3569
 2858TIP3    H229990   2.559   0.936   1.359 -0.6011 -0.8481 -0.5427
 2859TIP3   OH229991   0.087   5.606   3.559 -0.0703  0.1498 -0.1365
 2859TIP3    H129992   0.087   5.642   3.470  1.5902  0.7164  0.0655
 2859TIP3    H229993   0.056   5.678   3.614  1.4472  0.7030  0.0380
 2860TIP3   OH229994   4.467   0.620  16.002  0.3083  0.6803 -0.2650
 2860TIP3    H129995   4.389   0.612  15.947  0.5984 -1.0036 -0.4851
 2860TIP3    H229996   4.442   0.683  16.069 -1.0348  0.6505 -0.6993
 2861TIP3   OH229997   6.455   1.129   5.117  0.4236 -0.5328  0.3017
 2861TIP3    H129998   6.441   1.154   5.208  0.3680 -1.2465  0.4945
 2861TIP3    H229999   6.368   1.125   5.079  0.4371 -0.3834  0.2535
 2862TIP3   OH230000   1.683   5.289  10.579  0.3452 -0.3400  0.9585
 2862TIP3    H130001   1.778   5.275  10.586  0.4972  0.4082  0.4674
 2862TIP3    H230002   1.671   5.381  10.602 -0.4208 -0.7411  2.3026
 2863TIP3   OH230003   3.347   6.086   5.879  0.0976 -0.3754  0.0939
 2863TIP3    H130004   3.390   6.010   5.840 -1.1480 -1.3913  0.6440
 2863TIP3    H230005   3.347   6.068   5.973 -0.7629  0.0080  0.1754
 2864TIP3   OH230006   6.738   6.516  16.732 -0.3536  0.0356 -0.1320
 2864TIP3    H130007   6.679   6.463  16.680 -1.0905  0.8669 -0.1601
 2864TIP3    H230008   6.823   6.509  16.687 -0.8800  0.3993 -1.2078
 2865TIP3   OH230009   4.123   3.328  14.543 -0.1054 -0.3284  0.5526
 2865TIP3    H130010   4.187   3.362  14.480  0.3151  1.4351  1.8396
 2865TIP3    H230011   4.123   3.233  14.529 -0.6134  0.0330 -2.5791
 2866TIP3   OH230012   4.420   5.375  12.314 -0.7624 -0.4331 -0.0209
 2866TIP3    H130013   4.351   5.374  12.380 -0.4230  1.5069  0.4051
 2866TIP3    H230014   4.500   5.354  12.363 -0.7279 -0.4863 -0.0996
 2867TIP3   OH230015   5.209   0.489   2.529  0.4747 -0.3410  0.0648
 2867TIP3    H130016   5.249   0.474   2.443 -1.1137 -0.0157 -0.7538
 2867TIP3    H230017   5.284   0.508   2.586  1.4287  2.3718 -1.8452
 2868TIP3   OH230018   1.229   2.574   2.228  0.2666 -0.2486  0.0750
 2868TIP3    H130019   1.239   2.657   2.182 -0.3205 -0.0932  0.2148
 2868TIP3    H230020   1.279   2.512   2.176  1.2600  0.3194  0.3296
 2869TIP3   OH230021   4.102   0.808   5.937 -0.2083 -0.0182  0.3573
 2869TIP3    H130022   4.116   0.802   5.843  1.1747  2.1567  0.3530
 2869TIP3    H230023   4.007   0.800   5.947 -0.2490 -1.7720 -1.0343
 2870TIP3   OH230024   5.967   1.297  17.328  0.4888  0.6553 -0.7803
 2870TIP3    H130025   5.931   1.386  17.331  1.4255  1.0268 -0.1794
 2870TIP3    H230026   6.034   1.297  17.396  0.7975 -0.3867 -1.0842
 2871TIP3   OH230027   4.902   4.971  12.612  0.3959 -0.0169  0.1342
 2871TIP3    H130028   4.837   4.995  12.678  1.0298 -0.4881  0.9439
 2871TIP3    H230029   4.850   4.945  12.536 -0.3430  0.8740  0.3126
 2872TIP3   OH230030   5.911   5.565  14.282  0.2716  0.1418  0.6435
 2872TIP3    H130031   5.829   5.567  14.234  0.9613  1.2595 -0.5285
 2872TIP3    H230032   5.978   5.557  14.215  1.1027 -2.3285  1.6452
 2873TIP3   OH230033   0.189   1.617  14.805 -0.2483 -0.4086  0.0024
 2873TIP3    H130034   0.144   1.534  14.819 -2.5702  0.5705 -1.1964
 2873TIP3    H230035   0.125   1.683  14.830  0.5235  1.0616 -1.7309
 2874TIP3   OH230036   6.223   3.490  10.613 -0.6690 -0.1239  0.3505
 2874TIP3    H130037   6.163   3.470  10.685 -0.3798  0.3630  0.7407
 2874TIP3    H230038   6.257   3.406  10.585 -1.1458 -0.3586  0.4666
 2875TIP3   OH230039   3.177   5.184  14.284  0.7610 -0.2566  0.2723
 2875TIP3    H130040   3.109   5.123  14.314 -0.5686  1.3261  0.6037
 2875TIP3    H230041   3.216   5.141  14.208  0.0768 -1.6508  0.6812
 2876TIP3   OH230042   4.536   4.364  12.502 -0.1058 -0.2064 -0.0313
 2876TIP3    H130043   4.611   4.336  12.556  2.4480  2.0581 -2.1089
 2876TIP3    H230044   4.476   4.405  12.564  1.2583 -0.3786  1.4957
 2877TIP3   OH230045   0.032   4.832   3.194  0.2131  0.2768 -0.5348
 2877TIP3    H130046   0.077   4.766   3.247  1.0198  1.2718  0.0593
 2877TIP3    H230047   0.069   4.820   3.106 -0.1489 -0.5029 -0.5890
 2878TIP3   OH230048   3.161   2.840  16.738  0.0631 -0.4806 -0.8133
 2878TIP3    H130049   3.227   2.835  16.807 -0.0325  2.0720 -0.4350
 2878TIP3    H230050   3.086   2.883  16.779  0.0811  1.3260 -2.5179
 2879TIP3   OH230051   1.647   0.153   2.309 -0.3600  0.0542 -0.0303
 2879TIP3    H130052   1.678   0.093   2.242 -1.0057 -1.1902  0.7463
 2879TIP3    H230053   1.726   0.172   2.361 -0.1815 -0.2631 -0.1785
 2880TIP3   OH230054   0.289   6.342   2.256 -0.0489 -0.0872 -0.1512
 2880TIP3    H130055   0.268   6.404   2.187 -0.3396  1.8055  1.5516
 2880TIP3    H230056   0.210   6.337   2.309 -0.0331 -1.9620 -0.2264
 2881TIP3   OH230057   4.831   5.836   1.025  0.4080 -0.1511 -0.1552
 2881TIP3    H130058   4.784   5.769   0.975 -2.6550  2.0281 -0.4795
 2881TIP3    H230059   4.847   5.796   1.110 -1.5910 -1.2337 -0.2295
 2882TIP3   OH230060   3.538   1.849  14.733 -0.2596 -0.2719  0.4094
 2882TIP3    H130061   3.585   1.909  14.791 -2.0698  0.4800  1.1810
 2882TIP3    H230062   3.455   1.894  14.714 -2.0396 -2.7843  1.6210
 2883TIP3   OH230063   4.255   5.531   1.172  0.0527  0.2026 -0.2046
 2883TIP3    H130064   4.322   5.465   1.152 -1.7036 -1.6151 -0.4721
 2883TIP3    H230065   4.193   5.485   1.230 -2.4421  0.8148 -2.2018
 2884TIP3   OH230066   2.816   1.571   0.481  0.2367  0.2783  0.9998
 2884TIP3    H130067   2.757   1.646   0.472 -1.1423 -0.4876  2.9040
 2884TIP3    H230068   2.780   1.504   0.423  1.7139  1.1672 -1.0264
 2885TIP3   OH230069   1.633   0.220  12.179  0.3116 -0.6997 -0.6773
 2885TIP3    H130070   1.617   0.241  12.272 -0.0560 -0.5110 -0.7816
 2885TIP3    H230071   1.678   0.298  12.145 -1.2419  0.0317 -1.1162
 2886TIP3   OH230072   6.548   5.652   3.379 -0.5420 -0.0713 -0.4050
 2886TIP3    H130073   6.561   5.746   3.368 -0.9741  0.1380  0.7422
 2886TIP3    H230074   6.608   5.628   3.449 -0.1056 -0.7482 -0.9967
 2887TIP3   OH230075   4.526   1.443  13.699 -0.1141 -0.0128 -0.2452
 2887TIP3    H130076   4.612   1.456  13.739 -0.9614 -0.0442  1.7026
 2887TIP3    H230077   4.535   1.478  13.611  2.1253 -0.7773 -0.3923
 2888TIP3   OH230078   5.895   4.130   3.384 -0.9306 -0.0905 -0.4039
 2888TIP3    H130079   5.942   4.089   3.456  0.3307  0.1503 -1.0569
 2888TIP3    H230080   5.856   4.056   3.336 -0.4960 -0.3699 -0.3352
 2889TIP3   OH230081   2.495   4.596   4.497 -0.2462  0.3010  0.4121
 2889TIP3    H130082   2.566   4.589   4.561  1.2001 -1.2659 -1.2677
 2889TIP3    H230083   2.435   4.525   4.521 -0.2287  0.3552  0.6216
 2890TIP3   OH230084   1.949   0.683   5.707  0.0267 -0.0137 -0.2212
 2890TIP3    H130085   2.021   0.706   5.648  1.2044  0.4588  1.3477
 2890TIP3    H230086   1.946   0.754   5.771 -0.0486 -1.3518  1.3329
 2891TIP3   OH230087   5.173   3.910   2.573  0.0119  0.2189  0.0062
 2891TIP3    H130088   5.160   3.853   2.498  0.1616  1.2537 -0.8400
 2891TIP3    H230089   5.262   3.944   2.561  1.0745 -1.5775  2.0599
 2892TIP3   OH230090   2.397   5.712   0.253  0.1317 -0.5855  0.3855
 2892TIP3    H130091   2.472   5.653   0.251  0.6069 -0.0835  1.7084
 2892TIP3    H230092   2.436   5.799   0.263 -0.5973 -0.4555  2.8680
 2893TIP3   OH230093   5.132   2.006  13.217  0.0644 -0.9839 -0.3410
 2893TIP3    H130094   5.094   1.933  13.168 -1.3562 -0.8165  0.4560
 2893TIP3    H230095   5.059   2.043  13.264  0.6464  1.3303 -1.1423
 2894TIP3   OH230096   2.287   3.881  15.636 -0.3262 -0.2329  0.0149
 2894TIP3    H130097   2.323   3.938  15.568 -0.3222  0.5815  0.6831
 2894TIP3    H230098   2.317   3.920  15.718 -0.1220 -1.3388  0.4915
 2895TIP3   OH230099   3.192   3.624   1.126  0.3178 -0.1925 -0.3493
 2895TIP3    H130100   3.150   3.697   1.081 -0.3127 -0.8609 -0.8487
 2895TIP3    H230101   3.193   3.553   1.063 -1.7876 -1.5862  1.0366
 2896TIP3   OH230102   3.627   2.637   3.979 -0.3291  0.1367  0.2520
 2896TIP3    H130103   3.633   2.552   3.937  2.0925  0.0082  0.6974
 2896TIP3    H230104   3.616   2.699   3.907  1.0743 -0.3071 -0.3705
 2897TIP3   OH230105   2.171   2.950   5.876  0.1641  0.1189  0.3857
 2897TIP3    H130106   2.263   2.965   5.898 -0.4253  1.3773  2.2623
 2897TIP3    H230107   2.127   2.940   5.961 -1.5395  0.2996 -0.4274
 2898TIP3   OH230108   0.750   4.614   2.567 -0.6354  0.0907  0.1023
 2898TIP3    H130109   0.842   4.617   2.592 -0.3950 -2.1053 -0.3405
 2898TIP3    H230110   0.719   4.528   2.594 -2.2936  0.3809 -0.6793
 2899TIP3   OH230111   4.185   1.587  12.608  0.3390  0.1616 -0.6534
 2899TIP3    H130112   4.157   1.668  12.650  1.3271  0.5420 -0.7006
 2899TIP3    H230113   4.200   1.527  12.680  0.3122  0.2516 -0.5723
 2900TIP3   OH230114   3.732   1.871   1.435 -0.6933 -0.6168 -0.2609
 2900TIP3    H130115   3.745   1.857   1.529  1.6934 -1.6261 -0.6712
 2900TIP3    H230116   3.755   1.787   1.395  1.3140  0.6399 -1.9369
 2901TIP3   OH230117   2.609   4.735   1.999  0.2252 -0.6844 -0.1789
 2901TIP3    H130118   2.688   4.686   1.975 -1.4221 -3.8386  0.2770
 2901TIP3    H230119   2.585   4.700   2.085 -1.3427  0.6230 -0.0423
 2902TIP3   OH230120   5.488   2.165  16.976 -0.1531  0.3040  0.4192
 2902TIP3    H130121   5.562   2.123  17.020 -1.4806 -1.3895  1.1296
 2902TIP3    H230122   5.454   2.098  16.917  0.0364  1.7202 -1.3878
 2903TIP3   OH230123   2.241   0.689   2.871  0.3311 -0.5899 -0.2296
 2903TIP3    H130124   2.252   0.735   2.788 -0.1651 -1.6291 -0.8777
 2903TIP3    H230125   2.321   0.711   2.920  0.5648  0.1430 -0.9074
 2904TIP3   OH230126   4.325   1.458   3.902  0.0591  0.2606 -0.0460
 2904TIP3    H130127   4.385   1.387   3.883 -1.1397 -0.8326  0.0826
 2904TIP3    H230128   4.247   1.438   3.851 -0.0197  1.9411 -0.6568
 2905TIP3   OH230129   1.149   3.341  16.925  0.5829  0.5846  0.2665
 2905TIP3    H130130   1.081   3.357  16.990  1.5125 -1.4374  1.8537
 2905TIP3    H230131   1.124   3.396  16.850 -2.7208  0.0105  0.7732
 2906TIP3   OH230132   5.794   5.520  11.631 -0.9791 -0.5804 -0.6393
 2906TIP3    H130133   5.768   5.578  11.560  0.8125 -0.0739 -0.9200
 2906TIP3    H230134   5.867   5.565  11.674 -0.7888 -1.7531  0.3264
 2907TIP3   OH230135   0.776   5.868   4.586 -0.3079  0.3171  0.0126
 2907TIP3    H130136   0.768   5.817   4.667  2.0807 -1.0650 -0.5088
 2907TIP3    H230137   0.749   5.808   4.517  0.6491  0.3891 -0.4420
 2908TIP3   OH230138   1.905   2.349   5.240 -0.2963  0.2416  0.1084
 2908TIP3    H130139   1.999   2.348   5.258 -0.1002  0.0667 -0.8945
 2908TIP3    H230140   1.865   2.320   5.322  0.5089  0.5589  0.6242
 2909TIP3   OH230141   4.154   3.214   2.984  0.3379 -0.1579 -0.3702
 2909TIP3    H130142   4.115   3.274   3.047 -0.7088  0.7719 -1.8268
 2909TIP3    H230143   4.248   3.229   2.992  0.4354 -1.5909  2.3931
 2910TIP3   OH230144   6.295   0.759   5.964 -0.3192  0.0515  0.5146
 2910TIP3    H130145   6.366   0.714   5.917  1.4489  1.4329  1.7085
 2910TIP3    H230146   6.340   0.823   6.019 -2.5608  1.4643  0.8405
 2911TIP3   OH230147   6.204   4.212  16.136 -0.5553  0.3609  0.7629
 2911TIP3    H130148   6.181   4.240  16.048  0.2296 -0.2835  0.3312
 2911TIP3    H230149   6.300   4.214  16.137 -0.5358 -0.3855  1.3380
 2912TIP3   OH230150   4.658   1.759   0.548 -0.2758 -0.4421  0.0225
 2912TIP3    H130151   4.703   1.839   0.576 -0.7674 -0.0430 -0.2943
 2912TIP3    H230152   4.569   1.770   0.581 -0.9405  0.1504 -1.8262
 2913TIP3   OH230153   5.015   1.244   0.334  0.2605 -0.8134 -0.3765
 2913TIP3    H130154   4.954   1.248   0.260  0.1109 -0.7090 -0.2482
 2913TIP3    H230155   5.079   1.176   0.309 -0.2825 -1.3847 -0.2226
 2914TIP3   OH230156   0.941   3.939   4.996  0.1666 -0.4672  0.3186
 2914TIP3    H130157   0.953   3.941   5.091 -2.6985 -0.0668  0.7640
 2914TIP3    H230158   0.900   4.023   4.975 -1.1797 -1.3778 -0.9218
 2915TIP3   OH230159   1.233   0.366   3.637 -0.0059  0.0850  0.2399
 2915TIP3    H130160   1.261   0.384   3.547  1.0054  3.1637  1.0522
 2915TIP3    H230161   1.287   0.424   3.691 -2.4261  0.3260  2.6048
 2916TIP3   OH230162   3.329   1.765  15.973  0.4485 -0.3835 -0.0497
 2916TIP3    H130163   3.259   1.753  16.038  1.3779 -0.6055  0.9450
 2916TIP3    H230164   3.283   1.785  15.892 -0.7254  0.8516  0.8762
 2917TIP3   OH230165   0.497   2.632   0.649  0.3609  0.3465  0.1353
 2917TIP3    H130166   0.520   2.578   0.573 -2.0893 -1.1883  0.3760
 2917TIP3    H230167   0.414   2.595   0.680 -0.7662  3.4360  1.1696
 2918TIP3   OH230168   3.810   5.252  15.158  0.5447  1.2812  0.2449
 2918TIP3    H130169   3.818   5.187  15.088  1.8524  0.8146  0.7919
 2918TIP3    H230170   3.716   5.258  15.175  0.3480  0.0054 -0.2673
 2919TIP3   OH230171   0.723   6.607   5.918 -0.2960 -0.4701 -0.0993
 2919TIP3    H130172   0.709   6.694   5.955  0.2072  0.0964 -1.2007
 2919TIP3    H230173   0.814   6.587   5.938  0.4591  0.4988 -2.2665
 2920TIP3   OH230174   4.825   2.442  15.388 -0.7677 -0.3724 -0.3078
 2920TIP3    H130175   4.850   2.535  15.388  0.7879 -0.7463 -1.1456
 2920TIP3    H230176   4.900   2.398  15.349 -1.4672 -2.0053  0.1258
 2921TIP3   OH230177   3.518   2.103   1.757 -0.1434  0.2377  0.0917
 2921TIP3    H130178   3.481   2.084   1.671 -1.7319 -0.0958  0.8106
 2921TIP3    H230179   3.611   2.120   1.741 -0.1703 -0.9852 -1.5258
 2922TIP3   OH230180   5.804   1.202  10.696  0.1988 -0.7387 -0.5171
 2922TIP3    H130181   5.794   1.269  10.629 -0.1678 -2.8188 -2.6647
 2922TIP3    H230182   5.725   1.210  10.750  0.8014  1.3754  0.1445
 2923TIP3   OH230183   5.857   5.341   5.313  0.5906 -0.4094 -0.1704
 2923TIP3    H130184   5.844   5.436   5.322 -0.2150 -0.5680  0.4551
 2923TIP3    H230185   5.857   5.309   5.403 -0.6555 -1.1871 -0.4230
 2924TIP3   OH230186   6.206   6.386   1.205  0.0536  0.0665 -0.0707
 2924TIP3    H130187   6.195   6.332   1.127 -0.9503 -0.1126  0.1732
 2924TIP3    H230188   6.167   6.335   1.275 -3.7824  2.2428 -0.3170
 2925TIP3   OH230189   6.154   1.307   5.289  0.1168 -0.1903  0.0918
 2925TIP3    H130190   6.122   1.370   5.224 -1.3123 -0.1145  0.8310
 2925TIP3    H230191   6.201   1.360   5.353  1.5950 -0.2734 -0.8924
 2926TIP3   OH230192   3.951   3.757  11.459  0.1198  0.4214  0.8505
 2926TIP3    H130193   3.943   3.694  11.387  0.6999 -0.5487  1.6228
 2926TIP3    H230194   3.922   3.709  11.537  3.4080  0.0710  1.9955
 2927TIP3   OH230195   2.114   6.249  17.271  0.3490  0.2926 -0.1544
 2927TIP3    H130196   2.124   6.180  17.206  0.2456 -1.0336  1.1917
 2927TIP3    H230197   2.201   6.289  17.277  0.5587 -0.1000 -0.5541
 2928TIP3   OH230198   2.337   1.763  12.606  0.3209 -0.4951  0.2871
 2928TIP3    H130199   2.347   1.832  12.672 -1.3169 -0.5658  0.6506
 2928TIP3    H230200   2.246   1.735  12.614 -0.1704 -0.0200 -2.4666
 2929TIP3   OH230201   1.052   4.679   0.854  0.4592  0.8165  0.0754
 2929TIP3    H130202   0.966   4.696   0.818  0.1858 -1.0421 -0.2643
 2929TIP3    H230203   1.110   4.742   0.811 -0.1342 -0.2447 -2.4339
 2930TIP3   OH230204   6.523   4.096  10.946  0.2554 -0.2003 -0.1413
 2930TIP3    H130205   6.465   4.168  10.922  0.9065  0.3128 -0.2044
 2930TIP3    H230206   6.516   4.034  10.873 -0.5991 -0.3944  0.0884
 2931TIP3   OH230207   2.782   1.131   3.403  0.0407 -0.3578  0.1715
 2931TIP3    H130208   2.848   1.198   3.386  1.0622 -1.4798 -0.4366
 2931TIP3    H230209   2.798   1.103   3.493 -0.9891  0.8291  0.7545
 2932TIP3   OH230210   5.278   5.237  17.247  0.5281  0.2167  0.4629
 2932TIP3    H130211   5.278   5.253  17.342  0.1957  0.4884  0.4209
 2932TIP3    H230212   5.194   5.193  17.231  1.3378 -1.4208  0.5446
 2933TIP3   OH230213   0.383   2.779   0.363  0.1413 -0.4595 -0.2495
 2933TIP3    H130214   0.430   2.723   0.424 -2.9191 -0.8073  2.0445
 2933TIP3    H230215   0.429   2.863   0.367  1.1091 -1.0130  1.1404
 2934TIP3   OH230216   5.995   0.819   1.836  0.3596  0.4102  0.2106
 2934TIP3    H130217   6.077   0.867   1.825  0.6214 -0.2655 -0.8795
 2934TIP3    H230218   5.975   0.784   1.750 -1.6333  1.4105  0.1988
 2935TIP3   OH230219   0.065   2.110   0.664 -0.5348 -0.2554 -0.3881
 2935TIP3    H130220   0.064   2.059   0.583 -1.0598  1.4190 -1.4735
 2935TIP3    H230221  -0.021   2.151   0.668 -0.2527  0.2683  0.6408
 2936TIP3   OH230222   6.417   1.234   4.003 -0.0518 -0.0288 -0.3788
 2936TIP3    H130223   6.386   1.319   3.971 -0.3454 -0.2593 -0.7242
 2936TIP3    H230224   6.505   1.251   4.034 -1.3432  1.2017  3.0261
 2937TIP3   OH230225   2.266   2.089   3.712 -0.3644  0.0653  0.0732
 2937TIP3    H130226   2.264   2.181   3.739  0.1465 -0.0138  0.3987
 2937TIP3    H230227   2.174   2.064   3.703 -0.6226 -0.1282  2.5571
 2938TIP3   OH230228   1.612   5.829  15.975  0.0184 -0.2989 -0.5965
 2938TIP3    H130229   1.587   5.742  15.943 -1.9069  0.5310 -1.5089
 2938TIP3    H230230   1.638   5.877  15.897 -3.8299  1.4557 -1.0255
 2939TIP3   OH230231   4.300   2.777   4.105  0.1466  0.6687  0.7392
 2939TIP3    H130232   4.274   2.699   4.154 -0.6326  0.1904 -0.3945
 2939TIP3    H230233   4.333   2.837   4.172 -1.6272  0.3594  1.9784
 2940TIP3   OH230234   4.737   6.332  16.116 -0.5016 -0.3713 -0.1002
 2940TIP3    H130235   4.744   6.262  16.181  1.1454 -1.3495 -1.2771
 2940TIP3    H230236   4.777   6.408  16.159 -0.4517 -0.6905  0.4315
 2941TIP3   OH230237   1.054   5.413  14.405  0.1876 -0.0609  0.2329
 2941TIP3    H130238   1.076   5.320  14.402 -0.5863 -0.2378 -0.8320
 2941TIP3    H230239   0.967   5.418  14.365 -0.1434  1.0243  1.0434
 2942TIP3   OH230240   0.522   0.049  12.060  0.1442  0.0913 -0.0412
 2942TIP3    H130241   0.470   0.044  12.140  0.5110  0.7730  0.2412
 2942TIP3    H230242   0.546  -0.042  12.043  0.9479  0.0431  1.2112
 2943TIP3   OH230243   3.261   2.322   1.075  0.1613  0.4728  0.7401
 2943TIP3    H130244   3.221   2.408   1.084 -0.0127  0.2154  3.7203
 2943TIP3    H230245   3.188   2.261   1.076  0.2569  0.2455 -1.8110
 2944TIP3   OH230246   6.651   3.392   3.495 -0.2844  0.2696 -0.4328
 2944TIP3    H130247   6.579   3.412   3.554 -1.1608 -0.2686 -1.2903
 2944TIP3    H230248   6.632   3.442   3.416  0.5551  0.5166 -0.4919
 2945TIP3   OH230249   0.338   0.849   5.335 -0.1875 -0.2924 -0.2498
 2945TIP3    H130250   0.345   0.922   5.396 -3.0165 -0.3655  0.3056
 2945TIP3    H230251   0.400   0.870   5.265  1.0739  1.2045  1.2263
 2946TIP3   OH230252   1.748   5.824  16.539  0.1961  0.5223  0.5277
 2946TIP3    H130253   1.825   5.874  16.565  0.5196  0.7231 -0.7442
 2946TIP3    H230254   1.778   5.770  16.465 -0.5917 -0.2484  0.7518
 2947TIP3   OH230255   0.828   0.358   2.474  0.2008 -0.2096 -0.4052
 2947TIP3    H130256   0.734   0.348   2.454  0.5433 -0.1052 -2.2450
 2947TIP3    H230257   0.872   0.325   2.396  1.7334 -0.8500  0.7003
 2948TIP3   OH230258   0.565   1.188   4.964  0.1916 -0.3434  0.1848
 2948TIP3    H130259   0.636   1.128   4.940  0.4787 -0.0850  0.3840
 2948TIP3    H230260   0.606   1.274   4.966  0.1160 -0.3223  1.3330
 2949TIP3   OH230261   2.375   3.904   2.729 -0.4803 -0.1221  0.0897
 2949TIP3    H130262   2.280   3.911   2.722 -0.5752 -1.3127 -0.0704
 2949TIP3    H230263   2.397   3.828   2.676  0.6842  0.7205 -0.6851
 2950TIP3   OH230264   3.628   5.368  12.564 -0.3398 -0.4293 -0.4735
 2950TIP3    H130265   3.616   5.288  12.615  0.4854 -0.0191  0.4077
 2950TIP3    H230266   3.543   5.413  12.570 -0.0898 -0.0960  1.1199
 2951TIP3   OH230267   5.216   5.422   3.939  0.2066  0.5802  0.4192
 2951TIP3    H130268   5.242   5.349   3.882  1.4606  2.3132 -1.3551
 2951TIP3    H230269   5.133   5.452   3.903  0.4383  0.9564  0.1878
 2952TIP3   OH230270   2.042   1.957   5.383 -0.0995 -0.1158 -0.2427
 2952TIP3    H130271   1.997   1.969   5.467  1.0190 -0.1405  0.3772
 2952TIP3    H230272   1.975   1.920   5.325 -0.4816 -1.6124  1.0903
 2953TIP3   OH230273   6.037   2.477   1.971  0.0864 -0.0548 -0.5096
 2953TIP3    H130274   5.984   2.477   2.051  0.0918 -0.4879 -0.4992
 2953TIP3    H230275   6.081   2.562   1.971 -1.1274  0.5870 -0.8690
 2954TIP3   OH230276   5.249   2.600  10.607 -0.1810 -0.0850  0.2344
 2954TIP3    H130277   5.210   2.513  10.612  0.5968 -0.4917 -0.4969
 2954TIP3    H230278   5.343   2.585  10.599 -0.1525  0.7345 -1.6217
 2955TIP3   OH230279   0.269   0.239  11.877 -0.6366  0.1658 -0.3806
 2955TIP3    H130280   0.332   0.169  11.861 -0.2754  0.8730 -2.4234
 2955TIP3    H230281   0.306   0.290  11.949  0.7845  0.1503 -1.0703
 2956TIP3   OH230282   4.328   4.590   4.871  0.3261 -0.0302 -0.5542
 2956TIP3    H130283   4.262   4.609   4.938  0.6133 -0.3352 -0.1820
 2956TIP3    H230284   4.393   4.659   4.881 -0.5155  0.9656 -1.7075
 2957TIP3   OH230285   4.494   0.942   4.045 -0.4396  0.1937  0.0235
 2957TIP3    H130286   4.529   1.016   4.095 -1.1652  0.1772  0.5727
 2957TIP3    H230287   4.540   0.866   4.079 -0.7232  0.2201  0.4792
 2958TIP3   OH230288   5.225   4.644   5.893  0.2678 -0.1463 -0.1759
 2958TIP3    H130289   5.311   4.678   5.918  0.0789  0.4948 -0.3678
 2958TIP3    H230290   5.187   4.611   5.975  0.6322 -0.2896 -0.0637
 2959TIP3   OH230291   6.128   3.580  16.893  0.0693 -0.0951 -0.1123
 2959TIP3    H130292   6.142   3.520  16.820 -1.5773 -0.0404 -0.4911
 2959TIP3    H230293   6.057   3.542  16.944  0.2931  0.5523  0.7201
 2960TIP3   OH230294   6.371   3.055   3.513 -0.0283  0.2315  0.0393
 2960TIP3    H130295   6.343   2.966   3.533  2.0370 -0.5583 -0.4413
 2960TIP3    H230296   6.333   3.074   3.427 -0.2650 -0.2651  0.0326
 2961TIP3   OH230297   1.281   1.448   3.071 -0.1261  0.3160 -0.7395
 2961TIP3    H130298   1.343   1.375   3.073 -0.7251 -0.2039 -0.8489
 2961TIP3    H230299   1.286   1.481   2.982  0.5826  0.7927 -0.5268
 2962TIP3   OH230300   5.060   4.524  12.866 -0.3615  0.3454 -0.2979
 2962TIP3    H130301   5.023   4.533  12.778 -0.7276  0.5384 -0.1281
 2962TIP3    H230302   4.991   4.481  12.917 -0.3244  0.6355  0.0030
 2963TIP3   OH230303   0.610   6.122  12.176 -0.2388  0.6321  0.3092
 2963TIP3    H130304   0.582   6.051  12.118  1.8259  1.0007 -1.2629
 2963TIP3    H230305   0.528   6.163  12.205 -1.4059 -1.1731 -0.2642
 2964TIP3   OH230306   1.163   3.906  16.382 -0.0832  0.1563  0.1212
 2964TIP3    H130307   1.188   3.983  16.332 -0.9283 -0.1667 -0.8319
 2964TIP3    H230308   1.082   3.931  16.426 -0.3001 -0.1502 -0.1005
 2965TIP3   OH230309   4.597   1.964   6.180 -0.3490  0.0960 -0.1570
 2965TIP3    H130310   4.516   2.013   6.192 -0.2069  0.9936 -2.3458
 2965TIP3    H230311   4.571   1.887   6.130 -0.4597 -1.8617  2.6932
 2966TIP3   OH230312   0.549   4.246   2.587  0.2109 -0.1156 -0.6164
 2966TIP3    H130313   0.515   4.277   2.503 -0.5267  1.0698  0.0881
 2966TIP3    H230314   0.616   4.182   2.564 -0.3618 -0.2218 -2.0953
 2967TIP3   OH230315   4.413   2.271  12.684  0.1220 -0.4481 -0.1493
 2967TIP3    H130316   4.475   2.317  12.629  1.0439  0.0740  1.2717
 2967TIP3    H230317   4.399   2.329  12.760 -2.1260 -0.5272 -0.4149
 2968TIP3   OH230318   3.062   3.414   2.422 -0.2671  0.4176  0.3911
 2968TIP3    H130319   2.975   3.398   2.387 -0.1216 -2.4477  1.1261
 2968TIP3    H230320   3.121   3.371   2.361  0.3486 -0.5650  1.6412
 2969TIP3   OH230321   0.156   1.074   4.193  0.1930 -0.1668  0.5948
 2969TIP3    H130322   0.210   0.995   4.201  0.2061  0.0142  3.0236
 2969TIP3    H230323   0.205   1.141   4.240 -0.3297  1.0388 -0.5185
 2970TIP3   OH230324   1.209   5.237   5.724 -0.7686  0.0221 -0.0218
 2970TIP3    H130325   1.184   5.145   5.721  1.3300 -0.5861 -0.5407
 2970TIP3    H230326   1.173   5.275   5.644 -0.3981 -0.7200 -0.5501
 2971TIP3   OH230327   4.987   2.522  14.498  0.5090  0.0670 -0.1307
 2971TIP3    H130328   4.993   2.595  14.559 -1.7847 -0.7855  1.2436
 2971TIP3    H230329   4.962   2.562  14.415  0.3272  0.9482  0.3359
 2972TIP3   OH230330   5.629   2.666  12.831 -0.4942 -0.4295  0.0129
 2972TIP3    H130331   5.707   2.708  12.867 -1.8523  1.5290  0.8538
 2972TIP3    H230332   5.622   2.584  12.880  1.6131 -1.2029 -0.8786
 2973TIP3   OH230333   2.398   2.181  14.542 -0.6770  0.3193 -0.0465
 2973TIP3    H130334   2.362   2.154  14.458  0.1621 -0.6711 -0.1011
 2973TIP3    H230335   2.376   2.109  14.602  0.1025  0.2810  0.2043
 2974TIP3   OH230336   0.159   3.273  13.689  0.5108 -0.8550  0.8554
 2974TIP3    H130337   0.242   3.299  13.728 -0.3524  1.1195  1.4936
 2974TIP3    H230338   0.171   3.180  13.667  2.4436 -0.9341  2.0217
 2975TIP3   OH230339   0.171   0.188  13.802 -0.1987 -0.2163 -0.2251
 2975TIP3    H130340   0.088   0.179  13.756 -1.6798  0.1628  2.1562
 2975TIP3    H230341   0.167   0.275  13.843  1.3833 -0.1818 -0.0723
 2976TIP3   OH230342   6.463   2.611  11.559  0.4912 -0.1774  0.8729
 2976TIP3    H130343   6.555   2.620  11.585  0.8456 -1.2878  0.0730
 2976TIP3    H230344   6.459   2.528  11.511 -0.7317  0.3081  0.0637
 2977TIP3   OH230345   2.718   2.036   3.397  0.0731  0.3756  0.2623
 2977TIP3    H130346   2.676   2.031   3.483  1.2151 -2.2581  0.7923
 2977TIP3    H230347   2.656   1.993   3.338  1.2615 -2.2683  0.7889
 2978TIP3   OH230348   3.530   3.918   5.687  0.1250  0.2803 -0.5237
 2978TIP3    H130349   3.544   4.012   5.680  1.1885  0.1209 -0.6825
 2978TIP3    H230350   3.595   3.889   5.752 -0.5176 -0.2723 -0.1120
 2979TIP3   OH230351   5.006   3.287  12.397  0.2881  0.0056 -0.2277
 2979TIP3    H130352   4.955   3.267  12.475  0.9568 -1.1889 -0.0755
 2979TIP3    H230353   4.948   3.265  12.324  0.6370 -1.6187 -0.0578
 2980TIP3   OH230354   1.848   6.435  12.918  0.0717 -0.3784  0.1095
 2980TIP3    H130355   1.881   6.354  12.957  0.7226 -1.2502 -2.0921
 2980TIP3    H230356   1.867   6.426  12.825 -0.5887  1.9763 -0.3148
 2981TIP3   OH230357   0.985   3.716   0.857  0.0678  0.0108  0.0328
 2981TIP3    H130358   0.990   3.624   0.830  0.8541  0.3604 -1.0728
 2981TIP3    H230359   0.938   3.759   0.786 -1.8125  0.2134  1.3145
 2982TIP3   OH230360   2.899   3.267  14.469  0.7406 -0.2459  0.0487
 2982TIP3    H130361   2.826   3.221  14.428 -1.4635  2.4252  0.6875
 2982TIP3    H230362   2.898   3.236  14.560  1.1671 -1.0324 -0.2027
 2983TIP3   OH230363   5.253   2.307  11.518 -0.0717  0.4434  0.0065
 2983TIP3    H130364   5.328   2.358  11.548  0.5619  0.3316 -1.3012
 2983TIP3    H230365   5.263   2.222  11.560 -0.7953  1.1695  1.7145
 2984TIP3   OH230366   5.249   5.774  17.082 -0.3407 -0.0818  0.0476
 2984TIP3    H130367   5.256   5.860  17.041  0.3397 -0.6212 -1.0207
 2984TIP3    H230368   5.196   5.723  17.022 -0.2803 -0.5687  0.4011
 2985TIP3   OH230369   6.620   1.298   3.294  0.4428 -0.2646  0.2312
 2985TIP3    H130370   6.695   1.244   3.267 -0.3776 -0.9828 -0.6616
 2985TIP3    H230371   6.544   1.241   3.285 -0.3495  0.7768  0.0977
 2986TIP3   OH230372   4.752   3.611   5.780  0.0262 -0.4214  0.1669
 2986TIP3    H130373   4.767   3.563   5.862 -0.2646 -0.4350  0.2145
 2986TIP3    H230374   4.800   3.562   5.714  1.5062  0.4215  0.5750
 2987TIP3   OH230375   5.002   0.582   3.338 -0.6233 -0.2731  0.4289
 2987TIP3    H130376   5.061   0.520   3.381  0.0430  1.4094  2.0987
 2987TIP3    H230377   5.061   0.639   3.287 -1.0987 -0.2884 -0.1460
 2988TIP3   OH230378   3.601   5.668  15.899 -0.7190 -0.0628 -0.6178
 2988TIP3    H130379   3.658   5.622  15.961 -0.7586  0.6535 -0.0267
 2988TIP3    H230380   3.525   5.693  15.952 -0.6880  0.6818 -0.9225
 2989TIP3   OH230381   4.621   0.108  11.234 -0.1393  0.0934  0.4994
 2989TIP3    H130382   4.621   0.177  11.167 -2.1633 -0.2583  0.0944
 2989TIP3    H230383   4.531   0.103  11.264  0.0767 -1.9923  0.9425
 2990TIP3   OH230384   6.183   5.604   3.134 -0.0609 -0.2875  0.1580
 2990TIP3    H130385   6.136   5.520   3.136 -0.6247  0.0354  1.2387
 2990TIP3    H230386   6.170   5.641   3.222  1.2128  0.3718  0.0913
 2991TIP3   OH230387   5.061   4.251  10.975  0.0828  0.1643  0.1942
 2991TIP3    H130388   5.057   4.345  10.959 -2.0319  0.2977  1.1685
 2991TIP3    H230389   5.041   4.212  10.890 -2.4993  0.7238  0.4429
 2992TIP3   OH230390   0.284   0.743   4.841  0.5558  0.2520 -0.1063
 2992TIP3    H130391   0.263   0.763   4.933 -1.6442 -0.5816 -0.3620
 2992TIP3    H230392   0.375   0.715   4.843  0.2925 -0.6405  1.9970
 2993TIP3   OH230393   6.299   0.363  11.398  0.1770  0.2276 -0.1942
 2993TIP3    H130394   6.365   0.431  11.403  0.8338 -0.4154  0.0122
 2993TIP3    H230395   6.322   0.313  11.320  1.0894 -1.1601  0.9151
 2994TIP3   OH230396   5.307   2.760  14.004 -0.2387 -0.0752  0.0642
 2994TIP3    H130397   5.219   2.778  14.036 -1.0293  0.6393 -2.3337
 2994TIP3    H230398   5.346   2.846  13.990  1.4297 -0.3579  2.4050
 2995TIP3   OH230399   2.176   5.356  16.669 -0.0590 -0.1626 -0.0332
 2995TIP3    H130400   2.217   5.296  16.606  0.4142  0.7478 -0.6092
 2995TIP3    H230401   2.205   5.443  16.642 -2.3449  0.5385 -0.4815
 2996TIP3   OH230402   0.116   0.226   4.303  0.0971  0.1752 -0.3896
 2996TIP3    H130403   0.113   0.305   4.356  0.7029  0.2158 -0.4039
 2996TIP3    H230404   0.082   0.157   4.361 -0.2882  0.4204 -0.3285
 2997TIP3   OH230405   2.686   3.093   0.954 -0.0747  0.1839 -0.5506
 2997TIP3    H130406   2.680   3.038   1.033 -2.0710 -1.3191 -1.6557
 2997TIP3    H230407   2.642   3.174   0.979  0.4812  0.2524  0.2695
 2998TIP3   OH230408   5.660   4.461  14.958  0.1578 -0.1274  0.3818
 2998TIP3    H130409   5.640   4.373  14.989 -0.8827 -0.4497 -1.1046
 2998TIP3    H230410   5.578   4.509  14.965  0.7933  0.8610  1.4927
 2999TIP3   OH230411   5.074   4.380  11.218 -0.3049 -0.1169  0.3535
 2999TIP3    H130412   5.048   4.293  11.185  1.9730 -0.2688 -1.2760
 2999TIP3    H230413   5.099   4.428  11.139 -1.3228  2.0055  1.2646
 3000TIP3   OH230414   1.520   1.293   3.021  0.2272 -0.0749 -0.5771
 3000TIP3    H130415   1.532   1.198   3.025  0.1587 -0.0474  0.4623
 3000TIP3    H230416   1.575   1.321   2.948  0.2492 -0.9131 -0.8873
 3001TIP3   OH230417   0.050   4.268   6.360 -0.2268  0.1226 -0.1929
 3001TIP3    H130418   0.098   4.280   6.441 -0.0749 -1.1820 -0.0699
 3001TIP3    H230419  -0.042   4.268   6.386 -0.2486  1.1389 -0.2300
 3002TIP3   OH230420   2.477   5.958   2.504 -0.0582  0.0338  0.1410
 3002TIP3    H130421   2.509   6.048   2.496 -2.3373  0.7998 -1.4415
 3002TIP3    H230422   2.519   5.911   2.432 -0.4867  0.3907 -0.3503
 3003TIP3   OH230423   3.026   2.517  15.423  0.1867  0.1023  0.1592
 3003TIP3    H130424   3.120   2.533  15.432 -0.1083  1.5375  1.0606
 3003TIP3    H230425   2.999   2.482  15.508 -0.0506 -0.6076 -0.2008
 3004TIP3   OH230426   3.161   0.335   1.833  0.1728 -0.2716  0.2719
 3004TIP3    H130427   3.253   0.350   1.812 -0.0101  1.3470  0.5341
 3004TIP3    H230428   3.137   0.407   1.891 -1.2673 -0.6688  0.2145
 3005TIP3   OH230429   4.303   2.925   1.369 -0.2871  0.4303  0.0727
 3005TIP3    H130430   4.350   2.886   1.296 -0.1909  1.5061 -0.4524
 3005TIP3    H230431   4.245   2.990   1.329  2.4105  3.7869  1.1143
 3006TIP3   OH230432   0.596   0.059   1.060 -0.0006 -0.4179  0.4477
 3006TIP3    H130433   0.615  -0.000   1.133 -0.0574 -0.1095  0.7157
 3006TIP3    H230434   0.681   0.094   1.034 -0.0593  0.0283  0.8454
 3007TIP3   OH230435   3.254   6.730  12.669  0.0459  0.3169 -0.1196
 3007TIP3    H130436   3.262   6.810  12.617  1.1911  1.0318  1.1003
 3007TIP3    H230437   3.165   6.733  12.703 -0.9528 -0.4721 -2.4454
 3008TIP3   OH230438   5.531   0.815  16.704 -0.4054 -0.0406 -0.8211
 3008TIP3    H130439   5.515   0.826  16.610  0.0280  1.5404 -0.7413
 3008TIP3    H230440   5.496   0.895  16.743  1.8891  0.6244  0.0480
 3009TIP3   OH230441   2.538   4.417  15.256 -0.1117  0.5365 -0.1303
 3009TIP3    H130442   2.504   4.451  15.338 -0.2226 -1.0547  0.5238
 3009TIP3    H230443   2.558   4.325  15.274  1.7181  0.6261 -1.3276
 3010TIP3   OH230444   1.545   5.499   4.549  0.3705  0.1685 -0.4002
 3010TIP3    H130445   1.518   5.525   4.460  0.3332 -0.3392 -0.5365
 3010TIP3    H230446   1.462   5.483   4.595  0.4081 -1.2736 -0.7843
 3011TIP3   OH230447   6.168   1.729   3.283  0.2342  0.6803 -0.2123
 3011TIP3    H130448   6.082   1.735   3.324 -0.1327  1.5414 -1.0791
 3011TIP3    H230449   6.228   1.768   3.346  0.0739 -0.3402  0.5968
 3012TIP3   OH230450   2.994   2.517   3.493 -0.3274  0.4451  0.5441
 3012TIP3    H130451   2.916   2.510   3.549 -0.3369 -0.3985  0.4516
 3012TIP3    H230452   2.977   2.455   3.422 -0.0145  1.0136 -0.0278
 3013TIP3   OH230453   4.187   4.362  17.303  0.3984  0.1023  0.1165
 3013TIP3    H130454   4.132   4.439  17.316 -0.0308 -0.0780 -0.5417
 3013TIP3    H230455   4.144   4.314  17.231  0.6503 -0.7491  0.5171
 3014TIP3   OH230456   6.361   1.955  12.966 -0.4632  0.2618 -0.2682
 3014TIP3    H130457   6.371   2.041  12.925  2.8165  0.1630  0.0621
 3014TIP3    H230458   6.449   1.917  12.965 -1.7769 -3.1497 -0.4124
 3015TIP3   OH230459   4.061   2.603   5.461 -0.3971  0.2088  0.3658
 3015TIP3    H130460   3.978   2.645   5.484 -1.2283 -0.0581 -1.9158
 3015TIP3    H230461   4.037   2.512   5.444  0.5980 -0.1464  0.8040
 3016TIP3   OH230462   4.523   0.787  14.290  0.3944  0.6814  0.1645
 3016TIP3    H130463   4.537   0.774  14.196 -0.8319 -0.7387  0.1550
 3016TIP3    H230464   4.513   0.699  14.325  0.4503  1.2201  1.5750
 3017TIP3   OH230465   1.122   4.688  16.740  0.5918 -0.2652  0.5891
 3017TIP3    H130466   1.210   4.655  16.721  1.3444  1.3477  1.1249
 3017TIP3    H230467   1.132   4.783  16.744 -1.4448  0.0512 -0.6225
 3018TIP3   OH230468   3.485   0.132   0.305 -0.2461 -0.2506 -0.2293
 3018TIP3    H130469   3.450   0.212   0.267  1.0735  0.5076  0.0866
 3018TIP3    H230470   3.580   0.137   0.289  0.0674 -0.9540  1.2111
 3019TIP3   OH230471   5.141   3.534   5.841  0.6266 -0.1180 -0.0299
 3019TIP3    H130472   5.091   3.598   5.891 -0.6494 -0.7219 -0.4599
 3019TIP3    H230473   5.080   3.506   5.772  1.7592 -0.5153 -0.8964
 3020TIP3   OH230474   2.044   0.400   0.798  0.2325  0.4134 -0.1225
 3020TIP3    H130475   2.087   0.402   0.713 -0.0177  0.9538 -0.2420
 3020TIP3    H230476   1.976   0.468   0.792 -1.1775 -0.9487 -0.2273
 3021TIP3   OH230477   0.619   0.605   0.711 -0.4111 -0.4977  0.2420
 3021TIP3    H130478   0.544   0.545   0.711 -0.4116 -0.6012  2.8224
 3021TIP3    H230479   0.585   0.687   0.747  0.2087  0.2334 -0.7695
 3022TIP3   OH230480   1.533   0.939  12.868 -0.3500  0.2726  0.3392
 3022TIP3    H130481   1.529   1.006  12.799 -1.0436 -1.1551 -1.0870
 3022TIP3    H230482   1.622   0.945  12.902  0.0586  0.9391 -0.7774
 3023TIP3   OH230483   6.571   0.752   3.023  0.7222 -0.0956 -0.1322
 3023TIP3    H130484   6.536   0.829   2.978  1.4364 -0.1572 -0.8213
 3023TIP3    H230485   6.655   0.782   3.059  0.3844 -0.1865  0.7548
 3024TIP3   OH230486   0.278   0.974   1.919 -0.5985  0.0729  0.3202
 3024TIP3    H130487   0.286   0.921   1.998  3.0397  0.3485  0.3055
 3024TIP3    H230488   0.275   1.064   1.951 -2.4206  0.1031  0.1783
 3025TIP3   OH230489   4.081   5.228  16.945 -0.2958 -0.0881 -0.0922
 3025TIP3    H130490   4.117   5.184  17.022 -2.6466 -0.4132  0.8832
 3025TIP3    H230491   4.110   5.174  16.871 -0.0503 -1.1582  0.7644
 3026TIP3   OH230492   4.024   3.840   0.450 -0.6024  0.9859  0.0277
 3026TIP3    H130493   4.045   3.774   0.517 -0.5632 -0.1075 -1.0351
 3026TIP3    H230494   3.937   3.871   0.474  0.3365  2.3580  1.9376
 3027TIP3   OH230495   2.745   1.070  14.094  0.1126 -0.1153 -0.0386
 3027TIP3    H130496   2.823   1.118  14.120  0.7581 -0.7303 -0.7581
 3027TIP3    H230497   2.687   1.136  14.058  0.8937  0.1814 -0.8110
 3028TIP3   OH230498   5.436   2.941   4.703  0.2420 -0.1498  0.5146
 3028TIP3    H130499   5.379   2.873   4.738 -0.3645 -1.4056 -2.6019
 3028TIP3    H230500   5.525   2.911   4.726 -0.0636 -1.5677 -0.0456
 3029TIP3   OH230501   2.140   0.406   4.451  1.0436 -0.4585 -0.3941
 3029TIP3    H130502   2.057   0.449   4.471  0.3196 -2.0366  0.1119
 3029TIP3    H230503   2.193   0.420   4.529  0.8755 -0.3379 -0.3001
 3030TIP3   OH230504   0.337   1.202  11.743 -0.4552  0.1437  0.1075
 3030TIP3    H130505   0.274   1.243  11.684 -0.9635  0.1675  0.6579
 3030TIP3    H230506   0.421   1.209  11.697 -1.0323 -0.9757 -1.1903
 3031TIP3   OH230507   1.857   6.166  16.162  0.1833 -0.2309 -0.0550
 3031TIP3    H130508   1.838   6.163  16.256 -1.2160 -0.3179 -0.3115
 3031TIP3    H230509   1.885   6.077  16.140  1.8768  0.1276  0.5157
 3032TIP3   OH230510   4.939   3.254   1.967  0.0802  0.1899 -0.1026
 3032TIP3    H130511   4.946   3.284   1.876 -0.1909  0.8801  0.0932
 3032TIP3    H230512   4.979   3.167   1.967  1.3408  0.7413 -0.6100
 3033TIP3   OH230513   6.362   2.364   4.777  0.1891  0.6356  0.0531
 3033TIP3    H130514   6.400   2.283   4.811  0.6382  0.3890 -0.9906
 3033TIP3    H230515   6.403   2.433   4.829  0.1646  0.2184  0.6320
 3034TIP3   OH230516   1.514   4.872  13.069 -0.0777 -0.0907  0.0851
 3034TIP3    H130517   1.525   4.884  12.975  0.2558  2.6421  0.3794
 3034TIP3    H230518   1.425   4.837  13.078 -0.2753  0.0092 -1.2209
 3035TIP3   OH230519   5.053   2.988   0.595 -0.3096  0.0779  0.2712
 3035TIP3    H130520   4.990   3.012   0.527  0.2254  0.3701 -0.1329
 3035TIP3    H230521   5.105   3.068   0.609  0.2674 -0.2899  0.2655
 3036TIP3   OH230522   3.416   1.752  15.079 -0.0835  0.0757 -0.0461
 3036TIP3    H130523   3.391   1.755  15.171 -2.3253 -1.1114 -0.5431
 3036TIP3    H230524   3.499   1.800  15.075  0.4252 -0.4193  2.6664
 3037TIP3   OH230525   2.846   3.020   4.783  0.2332 -0.3102  0.1547
 3037TIP3    H130526   2.933   3.033   4.746  1.5206  1.2477  3.3834
 3037TIP3    H230527   2.802   3.104   4.770 -1.1564 -1.2604 -1.9926
 3038TIP3   OH230528   3.498   2.220   1.075  0.2430 -0.1911  0.5649
 3038TIP3    H130529   3.410   2.257   1.084  0.7286  1.3230 -0.3123
 3038TIP3    H230530   3.504   2.198   0.982  0.7193 -0.4760  0.6637
 3039TIP3   OH230531   2.074   4.640  11.230 -0.5008 -0.0263 -0.3099
 3039TIP3    H130532   2.006   4.603  11.174 -0.6576  0.9084 -0.7584
 3039TIP3    H230533   2.089   4.574  11.298 -1.1283 -0.6723 -0.7938
 3040TIP3   OH230534   2.586   2.298   1.644  0.2203 -1.5361  0.1829
 3040TIP3    H130535   2.519   2.318   1.710 -0.1368 -2.5077  0.1308
 3040TIP3    H230536   2.546   2.324   1.561  0.1036 -1.6474  0.2039
 3041TIP3   OH230537   6.253   2.664   0.952 -0.1138 -0.0483  0.1682
 3041TIP3    H130538   6.179   2.710   0.993 -0.3029 -1.7419  1.8580
 3041TIP3    H230539   6.223   2.574   0.943  1.2968 -0.4840 -0.3456
 3042TIP3   OH230540   2.391   5.012  15.212  0.0835  0.3411 -0.6838
 3042TIP3    H130541   2.323   5.059  15.259  1.7898  0.8677  1.4101
 3042TIP3    H230542   2.400   4.929  15.259  0.2676 -0.1294 -1.5233
 3043TIP3   OH230543   4.523   0.725  12.787 -0.5863  0.1670 -0.8133
 3043TIP3    H130544   4.616   0.743  12.801 -0.3385 -1.8883  0.5813
 3043TIP3    H230545   4.496   0.674  12.864 -2.9004  0.7546 -1.1440
 3044TIP3   OH230546   0.618   0.375  14.086  0.1740  0.0280  0.1127
 3044TIP3    H130547   0.562   0.297  14.089 -2.1888  1.6579  1.4745
 3044TIP3    H230548   0.641   0.385  13.994 -0.9510 -1.2682 -0.3393
 3045TIP3   OH230549   1.900   1.031   2.853  0.3957  0.0103  0.0126
 3045TIP3    H130550   1.917   1.118   2.890 -1.9304  0.4609  0.1153
 3045TIP3    H230551   1.880   0.977   2.929 -1.4613  0.2285 -0.2755
 3046TIP3   OH230552   3.290   5.824  12.520 -0.2880 -0.0094 -0.4273
 3046TIP3    H130553   3.321   5.819  12.611 -2.2502  1.5422  0.4271
 3046TIP3    H230554   3.218   5.761  12.516  0.2944 -0.6399 -1.1597
 3047TIP3   OH230555   0.172   6.126  12.556  0.3837 -0.0772  0.0779
 3047TIP3    H130556   0.239   6.193  12.567 -0.6817  0.9462  0.5598
 3047TIP3    H230557   0.197   6.079  12.477  1.6753  0.2517  0.2668
 3048TIP3   OH230558   1.506   4.310   5.833 -0.4059  0.2389 -0.2324
 3048TIP3    H130559   1.438   4.243   5.826  0.3925 -0.6990  0.7094
 3048TIP3    H230560   1.508   4.333   5.926 -1.2854  2.2573 -0.6665
 3049TIP3   OH230561   6.104   5.175  15.033  0.7028 -0.5166 -0.1964
 3049TIP3    H130562   6.107   5.087  14.994  3.0507 -0.3291 -0.5948
 3049TIP3    H230563   6.160   5.228  14.977  0.4599  0.9012  0.8524
 3050TIP3   OH230564   4.845   1.579   2.818 -0.1945  0.3638 -0.4915
 3050TIP3    H130565   4.806   1.662   2.846 -0.8525 -0.4184  1.0043
 3050TIP3    H230566   4.793   1.553   2.742 -0.7343  0.7314 -0.2524
 3051TIP3   OH230567   0.444   0.301  16.197  0.0540  0.0200  0.6545
 3051TIP3    H130568   0.502   0.375  16.176  0.1845 -0.5065 -0.9714
 3051TIP3    H230569   0.420   0.265  16.112  0.4929 -2.1960  1.4010
 3052TIP3   OH230570   3.912   1.880   1.016  0.4210 -0.4262 -0.7186
 3052TIP3    H130571   3.987   1.939   1.009  1.3742 -1.6624 -1.0320
 3052TIP3    H230572   3.838   1.939   1.034  1.6623  0.6919  1.0003
 3053TIP3   OH230573   1.209   1.838   0.032  0.0752  0.7105  0.0350
 3053TIP3    H130574   1.209   1.749   0.068  0.0769 -0.1924 -2.0389
 3053TIP3    H230575   1.171   1.828  -0.056  0.8312  2.6285 -0.5606
 3054TIP3   OH230576   5.533   3.306   1.461 -0.7890  0.0765  0.2254
 3054TIP3    H130577   5.535   3.323   1.555  2.2327 -2.0149  0.6846
 3054TIP3    H230578   5.590   3.373   1.424 -0.8827  0.0772  0.0844
 3055TIP3   OH230579   1.206   6.355  11.843 -0.0800  0.2274 -0.5786
 3055TIP3    H130580   1.209   6.290  11.913  0.1637 -0.4011 -1.1577
 3055TIP3    H230581   1.143   6.420  11.873 -0.6645 -0.5099 -0.1815
 3056TIP3   OH230582   2.731   5.017   2.584  0.3589  0.4632 -0.1731
 3056TIP3    H130583   2.749   4.930   2.622  0.6389 -0.1210 -1.5902
 3056TIP3    H230584   2.757   5.078   2.653  2.9342 -0.4939 -0.1921
 3057TIP3   OH230585   4.599   1.422  12.685  0.6393  0.3624 -0.3160
 3057TIP3    H130586   4.682   1.412  12.731  1.0658  0.2160 -1.1172
 3057TIP3    H230587   4.603   1.360  12.613 -0.5264 -0.2867  0.1434
 3058TIP3   OH230588   4.322   2.430   1.662  0.3512  0.0007 -0.3812
 3058TIP3    H130589   4.380   2.471   1.726 -1.0266 -0.4576  1.2331
 3058TIP3    H230590   4.325   2.336   1.683 -2.6814  0.1590  1.3499
 3059TIP3   OH230591   6.042   5.714   1.263  0.0928  0.5443 -0.1159
 3059TIP3    H130592   6.041   5.797   1.312  0.5976  0.4424  0.0748
 3059TIP3    H230593   6.131   5.681   1.274 -0.7527 -1.3010  1.9483
 3060TIP3   OH230594   0.386   5.339  13.022  0.1199  0.3292 -0.1614
 3060TIP3    H130595   0.331   5.287  13.080  0.4760 -0.6531 -0.6946
 3060TIP3    H230596   0.332   5.416  13.002 -2.5887 -2.1025 -3.3693
 3061TIP3   OH230597   3.544   0.154  12.297  0.5124  0.0015 -0.0876
 3061TIP3    H130598   3.549   0.061  12.275  0.0344  0.0569 -0.4452
 3061TIP3    H230599   3.624   0.172  12.347  0.3890 -0.7030  0.3776
 3062TIP3   OH230600   1.873   2.443  13.303  0.2222 -0.0780  0.1289
 3062TIP3    H130601   1.831   2.463  13.220  0.4019  0.2232  0.1107
 3062TIP3    H230602   1.904   2.528  13.336 -1.2548  0.0729  1.2733
 3063TIP3   OH230603   2.142   5.530  12.416  0.3043 -0.2349 -0.6951
 3063TIP3    H130604   2.144   5.445  12.371 -1.7446  0.2028 -1.7378
 3063TIP3    H230605   2.211   5.581  12.375 -0.3506 -0.4584 -2.1173
 3064TIP3   OH230606   6.001   5.194   2.572 -0.0537 -0.3722 -0.0616
 3064TIP3    H130607   5.906   5.183   2.573 -0.2167  0.9246 -0.1281
 3064TIP3    H230608   6.017   5.279   2.613  1.1329 -0.8655  0.5690
 3065TIP3   OH230609   3.415   6.157  13.705  0.6542 -0.3220 -0.2697
 3065TIP3    H130610   3.394   6.071  13.667  1.9717 -1.1483  0.7689
 3065TIP3    H230611   3.484   6.138  13.769  1.9371  1.7032 -0.9672
 3066TIP3   OH230612   1.664   0.778   6.374  0.4441  0.6979 -0.3413
 3066TIP3    H130613   1.655   0.683   6.368 -4.1615  1.0092 -2.0163
 3066TIP3    H230614   1.597   0.805   6.436  1.8396  2.9468  0.3404
 3067TIP3   OH230615   2.243   2.650  14.613  0.1770  0.5104  0.2291
 3067TIP3    H130616   2.324   2.601  14.622 -0.4469 -0.4502  0.8642
 3067TIP3    H230617   2.248   2.718  14.680  0.7747  0.9398 -0.2375
 3068TIP3   OH230618   5.197   2.547   4.352 -0.7448 -0.0003  0.0416
 3068TIP3    H130619   5.227   2.471   4.401 -2.0603 -1.2468 -0.9747
 3068TIP3    H230620   5.276   2.586   4.315  0.0313 -0.3204  1.3271
 3069TIP3   OH230621   3.892   1.912  11.360 -0.4477  0.0931 -0.1582
 3069TIP3    H130622   3.832   1.986  11.354 -1.2679 -0.6140 -0.9512
 3069TIP3    H230623   3.977   1.951  11.383 -0.5403  1.4302 -1.9254
 3070TIP3   OH230624   5.903   4.404  14.561  0.1736 -0.4284 -0.2849
 3070TIP3    H130625   5.950   4.410  14.644 -0.0249  0.1854 -0.2111
 3070TIP3    H230626   5.934   4.480  14.511  0.5062 -0.9510 -0.8854
 3071TIP3   OH230627   6.687   6.533  12.037 -0.2275  0.2248  0.4360
 3071TIP3    H130628   6.643   6.566  12.115 -0.3084 -1.7588  1.2814
 3071TIP3    H230629   6.779   6.554  12.051 -0.3568  0.7109  0.5973
 3072TIP3   OH230630   1.590   4.796  16.610  0.1933  0.1223 -0.3851
 3072TIP3    H130631   1.612   4.878  16.566  1.1774 -0.1871 -0.4979
 3072TIP3    H230632   1.596   4.816  16.703  1.0880  0.0081 -0.4172
 3073TIP3   OH230633   3.353   5.209   0.576  0.5048 -0.1092  0.1392
 3073TIP3    H130634   3.419   5.159   0.624  1.2293 -0.1102 -0.8277
 3073TIP3    H230635   3.324   5.276   0.638  3.7318  1.9658 -0.3309
 3074TIP3   OH230636   0.427   1.342  17.029 -0.3776 -0.5373  0.1274
 3074TIP3    H130637   0.475   1.311  17.105  0.2886  0.6551  0.2128
 3074TIP3    H230638   0.487   1.402  16.985 -1.7578  1.0195  0.2596
 3075TIP3   OH230639   1.497   4.588   4.535 -0.2420  0.3516  0.0335
 3075TIP3    H130640   1.457   4.504   4.558  0.9196 -0.0415  0.7089
 3075TIP3    H230641   1.487   4.594   4.439 -2.0747  0.3954  0.1818
 3076TIP3   OH230642   0.262   4.935  11.301 -0.5341 -0.1996  0.3038
 3076TIP3    H130643   0.218   5.020  11.298 -1.7137 -0.7980 -2.2772
 3076TIP3    H230644   0.348   4.951  11.263  0.4908  0.3926  2.7052
 3077TIP3   OH230645   0.721   2.975  11.703 -0.2641 -0.6579 -0.6883
 3077TIP3    H130646   0.775   2.977  11.782 -1.0340  1.4403 -0.1333
 3077TIP3    H230647   0.640   2.933  11.730  0.6288 -2.9024 -1.2662
 3078TIP3   OH230648   6.437   1.545   3.322  0.2601  0.4248  0.5111
 3078TIP3    H130649   6.384   1.541   3.242 -1.5299  0.7578  1.6435
 3078TIP3    H230650   6.498   1.472   3.313  0.2268  0.5535 -1.2366
 3079TIP3   OH230651   2.718   1.039  10.728  0.6394  0.4682 -0.5038
 3079TIP3    H130652   2.637   1.089  10.729 -0.3402 -1.0475  0.0374
 3079TIP3    H230653   2.698   0.961  10.676  1.5625 -0.2002  0.0900
 3080TIP3   OH230654   5.792   4.386   3.607 -0.4230 -0.0980  0.0557
 3080TIP3    H130655   5.743   4.433   3.674 -1.6167 -2.3281  0.8463
 3080TIP3    H230656   5.860   4.340   3.656 -2.1421 -2.8452  0.0560
 3081TIP3   OH230657   1.563   2.742  11.240 -0.1417  0.5300 -0.3005
 3081TIP3    H130658   1.550   2.756  11.147  2.2768  1.3251 -0.5587
 3081TIP3    H230659   1.482   2.774  11.280 -1.5555 -0.5611 -2.1309
 3082TIP3   OH230660   6.085   4.460  14.765 -0.0324  0.0690 -0.2893
 3082TIP3    H130661   6.175   4.483  14.741  0.0889  0.3249  0.3859
 3082TIP3    H230662   6.093   4.427  14.855 -0.5089 -0.6113 -0.4910
 3083TIP3   OH230663   3.758   1.862  16.169 -0.0072 -0.0252  0.0215
 3083TIP3    H130664   3.709   1.800  16.115 -0.8169  0.5251  0.0922
 3083TIP3    H230665   3.700   1.879  16.244  0.4726  0.3293  0.3183
 3084TIP3   OH230666   6.217   2.719  14.890 -0.2323 -0.5060  0.1154
 3084TIP3    H130667   6.278   2.679  14.828 -0.3454  0.1503 -0.4404
 3084TIP3    H230668   6.238   2.680  14.974  0.9531 -0.2935 -0.0716
 3085TIP3   OH230669   6.725   1.248   0.359  0.1660  0.5368  0.1023
 3085TIP3    H130670   6.722   1.343   0.374 -0.4246  0.5074  0.1983
 3085TIP3    H230671   6.674   1.211   0.431  1.4552  0.0505  0.7924
 3086TIP3   OH230672   1.949   1.669   4.006  0.5383 -0.0492  0.4492
 3086TIP3    H130673   2.011   1.739   3.987  0.7145 -0.5366 -0.9157
 3086TIP3    H230674   1.911   1.692   4.091  2.3772  0.3951  1.1900
 3087TIP3   OH230675   4.903   0.125  14.542 -0.0088 -0.2302  0.0757
 3087TIP3    H130676   4.993   0.157  14.547 -0.1543  0.3811 -0.9625
 3087TIP3    H230677   4.860   0.163  14.619  0.5916 -0.4915  0.5523
 3088TIP3   OH230678   0.434   6.683   3.625  0.1995 -0.3066 -0.2825
 3088TIP3    H130679   0.374   6.661   3.696  1.5642 -0.0101  1.0208
 3088TIP3    H230680   0.387   6.748   3.573 -0.5402  0.0701  0.8240
 3089TIP3   OH230681   1.003   2.947  13.996 -0.0185 -0.3364 -0.0093
 3089TIP3    H130682   1.099   2.955  14.001  0.0056 -0.9034  0.7150
 3089TIP3    H230683   0.982   2.878  14.060 -1.0012  0.4563  0.5467
 3090TIP3   OH230684   3.020   4.151   4.450 -0.0262 -0.8842  0.5060
 3090TIP3    H130685   2.927   4.165   4.433  0.3540  0.7172 -0.3589
 3090TIP3    H230686   3.035   4.191   4.536 -0.3135 -2.0868  1.1541
 3091TIP3   OH230687   0.823   1.554  14.245 -0.2163 -0.8256  0.0721
 3091TIP3    H130688   0.850   1.466  14.219  0.3944 -0.8835  0.8558
 3091TIP3    H230689   0.904   1.598  14.270 -0.6525 -0.4817  0.9673
 3092TIP3   OH230690   6.593   3.622   3.331  0.1670 -0.3166  0.0931
 3092TIP3    H130691   6.645   3.692   3.292 -0.3228 -0.6196 -1.1296
 3092TIP3    H230692   6.566   3.567   3.258 -1.1200 -0.6811  0.8023
 3093TIP3   OH230693   2.376   2.540   1.714 -0.1200  0.3839  0.1837
 3093TIP3    H130694   2.333   2.566   1.633 -0.8895 -0.5383  0.2774
 3093TIP3    H230695   2.308   2.551   1.781 -0.3771 -1.4636  0.2757
 3094TIP3   OH230696   2.697   3.447  12.601 -0.0501  0.1468 -0.2951
 3094TIP3    H130697   2.787   3.422  12.620 -0.5375 -0.6952  1.0276
 3094TIP3    H230698   2.680   3.520  12.661 -0.7241 -0.7144  0.5866
 3095TIP3   OH230699   4.867   4.034   2.637 -0.5582  0.1469  0.5283
 3095TIP3    H130700   4.850   3.998   2.550  0.2764 -0.0878  0.4572
 3095TIP3    H230701   4.832   4.123   2.633 -2.9450 -0.6995  0.8089
 3096TIP3   OH230702   3.924   4.806   0.217  0.2251 -0.7794 -0.2215
 3096TIP3    H130703   3.880   4.793   0.301 -0.1295 -0.7080 -0.3902
 3096TIP3    H230704   4.009   4.842   0.239  0.8573 -2.4691  0.2022
 3097TIP3   OH230705   4.727   1.366   2.404  0.0147  0.6958 -0.6071
 3097TIP3    H130706   4.673   1.385   2.327  0.6373 -1.0408 -1.5076
 3097TIP3    H230707   4.663   1.346   2.473 -0.5181  0.2727 -1.2134
 3098TIP3   OH230708   5.498   5.408  15.471  0.4830 -0.3625 -0.4107
 3098TIP3    H130709   5.410   5.382  15.496 -0.2263  2.2081  0.0748
 3098TIP3    H230710   5.531   5.335  15.418 -2.0427 -1.2595 -0.8662
 3099TIP3   OH230711   0.866   2.128   2.525 -0.3945 -0.1950 -0.1384
 3099TIP3    H130712   0.794   2.150   2.466  0.0529 -0.1773 -0.6814
 3099TIP3    H230713   0.886   2.037   2.505  0.3605  0.0848 -0.6452
 3100TIP3   OH230714   2.858   6.687   3.148 -0.1667  0.8975  0.0089
 3100TIP3    H130715   2.930   6.749   3.134 -0.4479  1.1621 -0.2865
 3100TIP3    H230716   2.834   6.659   3.060  0.1937  0.0892  0.1583
 3101TIP3   OH230717   1.043   5.206  15.451 -0.0965  0.0396  0.0766
 3101TIP3    H130718   1.073   5.289  15.489 -1.5377 -0.3166  2.1744
 3101TIP3    H230719   1.098   5.194  15.374  1.7170  1.8103  0.9842
 3102TIP3   OH230720   4.093   4.085  15.627 -0.1052 -0.5862 -0.0220
 3102TIP3    H130721   4.036   4.061  15.701  0.4637  1.5643  1.1907
 3102TIP3    H230722   4.051   4.045  15.551 -1.8273 -1.1916  1.1772
 3103TIP3   OH230723   1.979   4.465  11.951 -0.1502  0.4907 -0.0055
 3103TIP3    H130724   1.976   4.372  11.974 -0.0801  0.3667 -0.4724
 3103TIP3    H230725   1.922   4.508  12.014  0.9724  0.3302  1.1601
 3104TIP3   OH230726   4.498   0.325   1.338  0.0978  0.0175  0.0326
 3104TIP3    H130727   4.472   0.361   1.254  2.4008  1.8645  0.0144
 3104TIP3    H230728   4.439   0.365   1.401 -0.2359  0.3280 -0.4714
 3105TIP3   OH230729   1.600   3.762  17.213  0.2390 -0.5651  0.2256
 3105TIP3    H130730   1.592   3.714  17.130 -0.9889  1.4858 -0.9275
 3105TIP3    H230731   1.517   3.747  17.258  0.5235 -0.8940  0.6470
 3106TIP3   OH230732   3.408   3.421   4.366 -0.1431  0.1075  0.1550
 3106TIP3    H130733   3.461   3.344   4.383  2.4182  1.2700 -1.8657
 3106TIP3    H230734   3.467   3.495   4.383 -1.6435  1.5445 -0.5632
 3107TIP3   OH230735   3.829   6.671   5.336 -0.4133 -0.0724  0.0133
 3107TIP3    H130736   3.919   6.640   5.323  0.1838  2.0865 -1.7749
 3107TIP3    H230737   3.834   6.729   5.412 -0.9436 -2.0677  1.6370
 3108TIP3   OH230738   0.929   0.716   0.150  0.1817 -0.4272 -0.5263
 3108TIP3    H130739   0.898   0.626   0.145 -1.7193  0.0300  1.4023
 3108TIP3    H230740   0.880   0.763   0.083 -1.6199 -0.1841  0.8910
 3109TIP3   OH230741   5.247   4.117  11.120 -0.0453 -0.4525  0.0120
 3109TIP3    H130742   5.185   4.069  11.175 -0.0082 -0.6076 -0.0793
 3109TIP3    H230743   5.192   4.164  11.057 -0.0500 -2.6852 -1.8153
 3110TIP3   OH230744   4.970   0.697   2.626 -0.5953  0.0089  0.0118
 3110TIP3    H130745   4.896   0.747   2.592  1.0995  1.6452 -1.4821
 3110TIP3    H230746   5.005   0.652   2.549  1.2692  1.0619  0.1848
 3111TIP3   OH230747   5.861   1.101   1.644 -0.1657 -0.3504 -0.5844
 3111TIP3    H130748   5.933   1.039   1.656 -0.4250 -0.5058  0.1663
 3111TIP3    H230749   5.817   1.104   1.728 -1.6163 -0.9653 -1.2934
 3112TIP3   OH230750   1.635   3.728  15.587 -0.1819  0.3415  0.1718
 3112TIP3    H130751   1.545   3.742  15.558 -0.3162  0.1317  0.4728
 3112TIP3    H230752   1.627   3.714  15.682  0.1677  0.3337  0.1997
 3113TIP3   OH230753   6.315   4.309  17.318  0.4039  0.6260 -0.2318
 3113TIP3    H130754   6.288   4.397  17.344 -0.5626  0.4713 -0.6803
 3113TIP3    H230755   6.396   4.295  17.366  1.2344  2.2254 -1.0598
 3114TIP3   OH230756   5.311   5.658  16.503 -0.0431 -0.3890 -0.1653
 3114TIP3    H130757   5.290   5.717  16.430 -0.7296 -1.0477 -0.5123
 3114TIP3    H230758   5.227   5.621  16.529  0.0615  0.5076  1.5754
 3115TIP3   OH230759   4.549   0.812  10.947 -0.7776 -0.3033 -0.1202
 3115TIP3    H130760   4.575   0.795  10.856 -0.3665  0.9391 -0.2472
 3115TIP3    H230761   4.630   0.802  10.997 -1.2044 -2.0821  0.3034
 3116TIP3   OH230762   1.804   5.431   4.900  0.0775 -0.8101  0.0417
 3116TIP3    H130763   1.802   5.336   4.914 -0.0901 -1.0936 -1.6935
 3116TIP3    H230764   1.813   5.441   4.806 -0.1561  0.9216  0.1717
 3117TIP3   OH230765   5.806   1.174   0.685 -0.5597  0.0406  0.3225
 3117TIP3    H130766   5.735   1.216   0.736 -1.0317 -0.1395 -0.1788
 3117TIP3    H230767   5.763   1.103   0.638  0.4565 -1.9245  2.1939
 3118TIP3   OH230768   5.523   3.396  15.112  0.0386  0.5778  0.1097
 3118TIP3    H130769   5.586   3.361  15.049 -1.0167 -1.5563  0.1399
 3118TIP3    H230770   5.440   3.400  15.063 -0.1855  1.7394  0.5462
 3119TIP3   OH230771   0.170   3.944   1.396  0.4599  0.1618 -0.1338
 3119TIP3    H130772   0.127   4.004   1.335 -1.8509  0.5418  1.7429
 3119TIP3    H230773   0.242   3.995   1.433  0.8034  0.5021 -1.2260
 3120TIP3   OH230774   1.152   1.895   4.767 -0.7165 -0.4570  0.3872
 3120TIP3    H130775   1.139   1.888   4.862 -1.7519 -0.0897  0.2772
 3120TIP3    H230776   1.206   1.973   4.756 -1.5756  0.1736  0.6012
 3121TIP3   OH230777   4.240   0.443  10.838  0.0191 -0.2388  0.7714
 3121TIP3    H130778   4.176   0.448  10.766  2.4027  2.2084 -1.3897
 3121TIP3    H230779   4.217   0.516  10.895 -0.9963 -1.3220  1.8043
 3122TIP3   OH230780   1.663   0.637   1.965  0.4311  0.8373 -0.1910
 3122TIP3    H130781   1.613   0.686   2.031  0.2546  0.7304 -0.2418
 3122TIP3    H230782   1.706   0.704   1.913  0.3348  0.9330 -0.1492
 3123TIP3   OH230783   4.713   6.041  11.280 -0.2123  0.0749 -0.0813
 3123TIP3    H130784   4.688   5.961  11.234 -2.0932 -0.6020  1.9224
 3123TIP3    H230785   4.670   6.111  11.231 -2.6065 -0.6782  0.7885
 3124TIP3   OH230786   5.270   5.030   5.280  0.5156 -0.6738  0.7194
 3124TIP3    H130787   5.364   5.017   5.266  0.5342  0.1676 -0.0211
 3124TIP3    H230788   5.262   5.043   5.374  0.8710 -2.7682  1.0873
 3125TIP3   OH230789   6.685   2.496   3.874 -0.1851  0.2735  0.0486
 3125TIP3    H130790   6.712   2.460   3.959  0.9213 -2.5155 -1.3403
 3125TIP3    H230791   6.630   2.571   3.896  1.3768  0.6700  3.1833
 3126TIP3   OH230792   2.810   4.943   6.381 -0.5801 -0.0372 -0.7486
 3126TIP3    H130793   2.870   5.000   6.333  0.6707  0.7881  1.6494
 3126TIP3    H230794   2.788   4.992   6.461 -2.1007 -1.5695 -0.1596
 3127TIP3   OH230795   3.920   0.981  16.526  0.0478 -0.8593 -0.1205
 3127TIP3    H130796   3.979   1.034  16.579 -1.2824  1.8299 -1.1557
 3127TIP3    H230797   3.931   0.892  16.560  2.2833  0.0400  1.8144
 3128TIP3   OH230798   5.952   3.628  14.505 -0.2554 -0.1106 -0.0274
 3128TIP3    H130799   5.945   3.532  14.514  1.0275 -0.1924  0.3288
 3128TIP3    H230800   5.875   3.653  14.453 -2.3026 -0.9395  2.4053
 3129TIP3   OH230801   5.548   4.920  15.286 -0.3201  0.2043  0.6898
 3129TIP3    H130802   5.505   4.850  15.236 -1.2407 -0.0204  1.7573
 3129TIP3    H230803   5.630   4.936  15.239  0.2891 -2.1217  0.8251
 3130TIP3   OH230804   4.975   0.644  16.634  0.0034 -0.3971  0.4652
 3130TIP3    H130805   5.046   0.579  16.637 -1.5409 -2.1989  0.0828
 3130TIP3    H230806   4.948   0.654  16.725  0.5183  0.0155  0.5713
 3131TIP3   OH230807   6.018   6.678  17.048  0.1334  0.7259 -0.2532
 3131TIP3    H130808   6.110   6.656  17.058 -0.2918 -1.5250 -0.7009
 3131TIP3    H230809   6.002   6.674  16.954 -0.2734  1.8420 -0.2450
 3132TIP3   OH230810   6.069   5.102  15.598 -0.2070 -0.3821  0.0527
 3132TIP3    H130811   6.120   5.100  15.517  0.2122 -0.6946  0.3251
 3132TIP3    H230812   5.978   5.104  15.568 -0.1303 -2.2064 -0.4284
 3133TIP3   OH230813   5.717   4.503   3.082  0.5970 -0.1595  0.1305
 3133TIP3    H130814   5.792   4.486   3.139  0.6341  1.2507  0.5464
 3133TIP3    H230815   5.642   4.502   3.141  0.2792 -1.4995 -0.2737
 3134TIP3   OH230816   5.415   6.572  12.690 -0.9249 -0.3344  0.3805
 3134TIP3    H130817   5.401   6.571  12.595 -1.6515 -2.5377  0.4523
 3134TIP3    H230818   5.470   6.496  12.707 -1.2318 -0.2712  1.7931
 3135TIP3   OH230819   1.381   0.296   2.178 -0.2057  0.6170  0.3597
 3135TIP3    H130820   1.431   0.244   2.241 -0.1622 -1.2035 -1.0780
 3135TIP3    H230821   1.448   0.335   2.122 -0.2919  0.3274  0.0480
 3136TIP3   OH230822   5.781   1.119   3.190  0.5934  0.5373  0.2041
 3136TIP3    H130823   5.771   1.184   3.120 -1.3671  0.4950  0.3993
 3136TIP3    H230824   5.724   1.150   3.260  0.4724 -0.8365  0.7413
 3137TIP3   OH230825   2.941   2.337   2.289 -0.8606 -0.4156 -0.2473
 3137TIP3    H130826   2.888   2.305   2.362  0.6416 -2.9293 -0.1318
 3137TIP3    H230827   2.881   2.388   2.235 -3.3167 -2.7725  0.0737
 3138TIP3   OH230828   6.193   6.289  17.045 -0.2579  0.3908  0.0984
 3138TIP3    H130829   6.110   6.241  17.046  0.4481 -0.9124  1.6860
 3138TIP3    H230830   6.206   6.316  17.136 -0.5890  3.6955 -0.6880
 3139TIP3   OH230831   2.777   1.848  16.255  0.6062 -0.1901  0.5636
 3139TIP3    H130832   2.799   1.779  16.317 -0.0316 -1.1565 -0.2471
 3139TIP3    H230833   2.683   1.863  16.269  1.1308  2.0148  2.1694
 3140TIP3   OH230834   3.063   6.432   2.121  0.5505  0.4105 -0.3247
 3140TIP3    H130835   3.157   6.422   2.103  0.4018  0.1462 -1.0086
 3140TIP3    H230836   3.044   6.524   2.101  0.5391  0.3044 -0.8118
 3141TIP3   OH230837   1.679   6.523  15.141 -0.0101  0.1522  0.2377
 3141TIP3    H130838   1.714   6.611  15.150  1.1229 -0.2286 -0.2560
 3141TIP3    H230839   1.584   6.534  15.145  0.1450  1.2143  1.6453
 3142TIP3   OH230840   0.326   5.614  11.574  0.0222 -0.2562  0.4518
 3142TIP3    H130841   0.384   5.566  11.632 -0.2365 -0.6018  0.4252
 3142TIP3    H230842   0.373   5.696  11.555 -0.2956  0.3020  1.9201
 3143TIP3   OH230843   4.219   2.501  13.613 -0.4196  0.1769  0.3648
 3143TIP3    H130844   4.141   2.448  13.631 -0.9554  1.1762  1.1018
 3143TIP3    H230845   4.259   2.515  13.699  1.1159 -1.0842 -0.0980
 3144TIP3   OH230846   2.331   5.589  17.172  0.0914  0.1288  0.0275
 3144TIP3    H130847   2.249   5.631  17.199  0.3922  1.7438 -1.3656
 3144TIP3    H230848   2.309   5.497  17.161 -1.5793  0.5572 -0.4221
 3145TIP3   OH230849   2.033   4.924  16.126  0.5344  0.6614 -0.4189
 3145TIP3    H130850   1.962   4.912  16.063 -0.0932  0.4553  0.3225
 3145TIP3    H230851   2.107   4.876  16.088 -0.4368 -1.2344  0.0095
 3146TIP3   OH230852   6.042   4.579   5.721 -0.1386 -0.2049 -0.4092
 3146TIP3    H130853   6.100   4.550   5.792 -0.9055 -1.3679 -0.2362
 3146TIP3    H230854   5.967   4.618   5.767  0.9255  2.2970 -0.6310
 3147TIP3   OH230855   3.857   3.270   3.373 -0.0789  0.2426  0.5751
 3147TIP3    H130856   3.919   3.271   3.300  0.3246 -0.7188  0.8882
 3147TIP3    H230857   3.797   3.198   3.351  0.9908 -1.1249  1.9321
 3148TIP3   OH230858   2.345   5.489  11.454  0.9798  0.0999 -0.5236
 3148TIP3    H130859   2.404   5.554  11.493  1.0933  0.1940 -0.8553
 3148TIP3    H230860   2.341   5.511  11.362 -0.6350  0.9303 -0.2945
 3149TIP3   OH230861   1.084   6.014  12.298  0.1506  0.6741  0.4643
 3149TIP3    H130862   1.016   6.069  12.258  1.9960  2.1561 -0.7816
 3149TIP3    H230863   1.066   5.926  12.263 -2.0878  0.6262  1.5083
 3150TIP3   OH230864   2.393   5.048   3.909  0.2390  0.0222  0.0479
 3150TIP3    H130865   2.303   5.024   3.931 -0.0247  1.5672  0.8180
 3150TIP3    H230866   2.391   5.143   3.904  1.6365  0.0190 -0.8831
 3151TIP3   OH230867   3.007   0.279   6.260  0.3766  0.1049  0.0730
 3151TIP3    H130868   2.968   0.343   6.319 -1.1626 -0.6789 -0.0541
 3151TIP3    H230869   3.081   0.243   6.310  1.7028  2.3720 -0.0924
 3152TIP3   OH230870   0.268   5.698   2.889  0.5541  0.2897 -0.0545
 3152TIP3    H130871   0.217   5.743   2.956 -0.7859 -1.0700 -0.1021
 3152TIP3    H230872   0.336   5.761   2.864 -0.4937  1.8010  0.7249
 3153TIP3   OH230873   3.528   2.724   3.507  0.1689  0.1885 -0.2851
 3153TIP3    H130874   3.465   2.692   3.570 -0.2283  1.0678 -0.2171
 3153TIP3    H230875   3.483   2.721   3.423 -0.2177  1.4252 -0.1460
 3154TIP3   OH230876   5.050   6.287  15.053 -0.2875 -0.0333  0.5760
 3154TIP3    H130877   5.083   6.377  15.062 -1.4186  0.4089  0.4591
 3154TIP3    H230878   5.026   6.262  15.142 -1.3270  0.3317  0.4132
 3155TIP3   OH230879   2.969   4.945  13.526 -0.3729  0.3748 -0.5057
 3155TIP3    H130880   2.953   4.872  13.585  0.5440  2.4575  2.6088
 3155TIP3    H230881   2.995   5.017  13.584  0.5579  2.6715 -3.5022
 3156TIP3   OH230882   0.187   3.492   1.373  0.2393 -0.7868 -0.2411
 3156TIP3    H130883   0.196   3.429   1.445 -1.9531 -0.0715  0.7226
 3156TIP3    H230884   0.101   3.475   1.336 -0.0868  1.1520 -0.4475
 3157TIP3   OH230885   1.548   1.454   1.292 -0.0982  0.6466 -0.6258
 3157TIP3    H130886   1.609   1.384   1.269 -0.7638  0.0821 -0.7296
 3157TIP3    H230887   1.603   1.527   1.318  0.6153  0.1084 -0.6015
 3158TIP3   OH230888   2.133   2.045  11.534  0.0278 -0.3411 -0.2128
 3158TIP3    H130889   2.177   1.986  11.596 -0.4360  0.4328  0.8842
 3158TIP3    H230890   2.187   2.124  11.533 -1.0422  0.4393  0.7969
 3159TIP3   OH230891   2.366   1.925   0.337 -0.0636 -0.1398  0.4709
 3159TIP3    H130892   2.433   1.988   0.363  0.8487  0.5210 -3.0677
 3159TIP3    H230893   2.358   1.934   0.243 -2.6497 -2.7171  0.2766
 3160TIP3   OH230894   4.867   5.785   5.387 -0.2937  0.2380  0.6148
 3160TIP3    H130895   4.830   5.864   5.348  1.6508  0.3561 -1.2018
 3160TIP3    H230896   4.961   5.802   5.390  0.0952 -1.7386  0.8369
 3161TIP3   OH230897   6.104   2.375   2.427 -0.1452 -0.8505  0.0279
 3161TIP3    H130898   6.108   2.321   2.348 -2.3995 -0.6824 -0.2646
 3161TIP3    H230899   6.184   2.426   2.425  0.0397 -1.1457 -1.9527
 3162TIP3   OH230900   3.613   3.437  15.708  0.1148  0.0744  0.2345
 3162TIP3    H130901   3.704   3.425  15.684  0.0901 -0.0521  0.2043
 3162TIP3    H230902   3.588   3.355  15.752  0.3010  0.4884  1.1321
 3163TIP3   OH230903   5.353   2.317   5.735  0.3449 -0.0062 -0.7170
 3163TIP3    H130904   5.290   2.352   5.798  0.7577 -0.3699 -0.0943
 3163TIP3    H230905   5.357   2.383   5.666  0.6858  0.8959  0.1474
 3164TIP3   OH230906   4.417   6.408   2.770 -0.0901  0.7101  1.0116
 3164TIP3    H130907   4.496   6.361   2.745  1.6949  2.3558  3.1162
 3164TIP3    H230908   4.360   6.404   2.693  1.1757 -2.2128  0.1119
 3165TIP3   OH230909   5.714   2.407  13.430  0.7056  0.0251  0.3999
 3165TIP3    H130910   5.735   2.416  13.337 -1.6372 -2.3817 -0.5129
 3165TIP3    H230911   5.794   2.432  13.475  2.1417  0.6787 -2.2753
 3166TIP3   OH230912   3.672   3.228  14.686 -0.0746 -0.2104  0.1848
 3166TIP3    H130913   3.725   3.283  14.628 -1.1393  0.9740  0.2852
 3166TIP3    H230914   3.693   3.259  14.774  0.5745 -1.1331  0.3710
 3167TIP3   OH230915   1.504   3.283   5.983 -0.2972 -0.0666 -0.4275
 3167TIP3    H130916   1.591   3.299   6.020 -1.3055  1.8291  1.3355
 3167TIP3    H230917   1.514   3.202   5.934  2.5284  0.2304 -0.5437
 3168TIP3   OH230918   1.288   5.198   6.446 -0.1387 -0.1609  0.1600
 3168TIP3    H130919   1.287   5.224   6.354 -0.3298  1.5710  0.6146
 3168TIP3    H230920   1.373   5.156   6.458  0.3859  0.6535 -0.5578
 3169TIP3   OH230921   4.383   4.630   5.501 -0.1057  0.5829 -0.4929
 3169TIP3    H130922   4.353   4.720   5.505 -1.1475  0.2017  1.9307
 3169TIP3    H230923   4.317   4.580   5.548  0.2398 -1.5425 -2.0882
 3170TIP3   OH230924   3.906   3.555  13.091  0.1155 -0.1421  0.4494
 3170TIP3    H130925   3.882   3.610  13.165  1.7223 -0.3498  1.1739
 3170TIP3    H230926   3.867   3.598  13.015 -0.9368  0.4752  1.3173
 3171TIP3   OH230927   6.139   2.887   1.350  0.2941  0.4297 -0.2162
 3171TIP3    H130928   6.148   2.842   1.434 -1.6362  0.3549  0.0099
 3171TIP3    H230929   6.046   2.912   1.346  0.2107  0.0121 -2.5348
 3172TIP3   OH230930   1.148   1.121  10.680 -0.1191 -0.6139  0.0035
 3172TIP3    H130931   1.054   1.137  10.685 -0.4380 -2.1907 -0.4101
 3172TIP3    H230932   1.159   1.032  10.714  1.0174 -1.0629 -1.4398
 3173TIP3   OH230933   0.684   1.047   4.561 -0.1360 -0.7009 -0.4831
 3173TIP3    H130934   0.759   0.990   4.547  0.0834 -0.7020  0.6003
 3173TIP3    H230935   0.682   1.062   4.656 -0.9370  0.0672 -0.6014
 3174TIP3   OH230936   1.533   1.918  12.692 -0.5974 -0.2540 -0.6071
 3174TIP3    H130937   1.587   1.841  12.679  1.2484  0.9875 -0.6238
 3174TIP3    H230938   1.590   1.992  12.671 -2.0571  1.1652  0.1615
 3175TIP3   OH230939   3.821   5.278   2.941 -0.3346 -0.1259 -0.1192
 3175TIP3    H130940   3.886   5.332   2.895 -2.1716  0.5516 -2.0920
 3175TIP3    H230941   3.778   5.339   3.001 -0.9423  0.1033 -0.7747
 3176TIP3   OH230942   1.513   4.452   6.679 -0.2876  0.2645 -0.3181
 3176TIP3    H130943   1.547   4.541   6.690 -0.1912 -0.0376  2.6606
 3176TIP3    H230944   1.591   4.398   6.663 -0.0261  0.3948  0.4566
 3177TIP3   OH230945   3.426   3.218  14.578  0.2571 -0.0294 -0.1238
 3177TIP3    H130946   3.361   3.272  14.623  0.3529 -1.5407  2.0109
 3177TIP3    H230947   3.508   3.235  14.624  0.8108 -0.1137 -1.0662
 3178TIP3   OH230948   1.329   1.484   2.815  0.7017 -0.4651  0.4268
 3178TIP3    H130949   1.276   1.532   2.751 -2.4275 -1.6070  1.9233
 3178TIP3    H230950   1.410   1.465   2.769 -0.7528  0.0550 -2.6762
 3179TIP3   OH230951   1.574   5.409  15.174 -0.2702  0.3213  0.3704
 3179TIP3    H130952   1.625   5.426  15.094 -1.3370 -1.7986 -0.8344
 3179TIP3    H230953   1.501   5.472  15.169  0.5292  1.2861  0.5337
 3180TIP3   OH230954   0.338   1.534   0.174 -0.0600  0.2328  0.6310
 3180TIP3    H130955   0.371   1.445   0.165 -0.2450  0.2250 -0.0808
 3180TIP3    H230956   0.383   1.569   0.251 -0.4201 -0.6599  1.2604
 3181TIP3   OH230957   0.761   4.653  13.603 -0.1568  0.2416  0.2868
 3181TIP3    H130958   0.798   4.570  13.572  0.4619  0.2763  0.9084
 3181TIP3    H230959   0.676   4.658  13.560 -1.8669 -2.5010  2.8846
 3182TIP3   OH230960   4.724   4.690  17.250  0.2911 -0.1939 -0.7599
 3182TIP3    H130961   4.762   4.772  17.218  0.1990  0.3823  0.5445
 3182TIP3    H230962   4.703   4.707  17.342 -0.6679 -1.3613 -0.7336
 3183TIP3   OH230963   0.082   5.601   0.998  0.0565  0.3013  0.3806
 3183TIP3    H130964  -0.008   5.634   1.003 -0.3849 -0.6200 -1.1513
 3183TIP3    H230965   0.105   5.607   0.906  1.4591  0.1658  0.7001
 3184TIP3   OH230966   2.436   3.127  16.629  0.2434  0.1587 -0.0260
 3184TIP3    H130967   2.466   3.189  16.563  0.7143  2.2508  2.0210
 3184TIP3    H230968   2.347   3.157  16.651 -0.2631 -1.0646 -0.3189
 3185TIP3   OH230969   1.267   2.198   1.927 -0.4809  0.4314 -0.0703
 3185TIP3    H130970   1.235   2.222   1.839 -2.2426  1.0247  0.6698
 3185TIP3    H230971   1.188   2.171   1.974  0.6600 -1.4493  0.8819
 3186TIP3   OH230972   5.763   1.180  14.284  0.4058 -0.1927 -0.6293
 3186TIP3    H130973   5.671   1.203  14.302  0.9666  0.7110  1.4139
 3186TIP3    H230974   5.786   1.233  14.207 -0.1942  1.3007  0.1670
 3187TIP3   OH230975   5.201   4.516   2.010 -0.2599  0.0447  1.0437
 3187TIP3    H130976   5.152   4.462   2.072  1.0510 -0.1721  1.9265
 3187TIP3    H230977   5.292   4.505   2.035  0.2443  0.5994 -0.4336
 3188TIP3   OH230978   3.551   4.960   3.029  0.4649 -0.1289 -0.3952
 3188TIP3    H130979   3.588   4.966   3.117 -0.3171 -3.2547  0.2723
 3188TIP3    H230980   3.457   4.971   3.042  0.5413  2.4624 -1.3652
 3189TIP3   OH230981   3.757   4.104   6.035 -0.0177 -0.5275 -0.2671
 3189TIP3    H130982   3.811   4.101   6.114  1.1288 -0.1585 -1.0183
 3189TIP3    H230983   3.788   4.180   5.987 -3.0081  1.3353  0.4947
 3190TIP3   OH230984   6.554   4.014   0.053 -0.1839  0.3096 -1.0549
 3190TIP3    H130985   6.558   4.034  -0.040 -0.6421 -0.2059 -1.1906
 3190TIP3    H230986   6.574   4.097   0.097  0.0658  0.5442 -1.6072
 3191TIP3   OH230987   2.955   1.621  11.553 -0.2411  0.0637 -0.2078
 3191TIP3    H130988   2.884   1.568  11.590  1.7526 -3.0923 -0.4816
 3191TIP3    H230989   2.989   1.671  11.627 -1.1582 -0.2927  0.4728
 3192TIP3   OH230990   4.844   2.913   2.908 -0.2297 -0.2170 -0.0281
 3192TIP3    H130991   4.888   2.957   2.980  1.4212 -0.3796 -0.8800
 3192TIP3    H230992   4.916   2.878   2.854 -1.3627  0.4769 -2.1076
 3193TIP3   OH230993   0.619   1.194   5.676 -0.1634  0.1199 -0.3174
 3193TIP3    H130994   0.560   1.228   5.743  0.4399  1.6110 -0.4950
 3193TIP3    H230995   0.663   1.120   5.718 -1.7792 -0.7202 -0.0276
 3194TIP3   OH230996   0.374   2.717  16.107 -0.4387  0.3170 -0.5103
 3194TIP3    H130997   0.451   2.764  16.140 -0.7139  0.8863 -0.6625
 3194TIP3    H230998   0.319   2.785  16.069 -0.6225 -0.1954 -1.1848
 3195TIP3   OH230999   5.624   3.352   4.228 -0.1731  0.0819  0.4311
 3195TIP3    H131000   5.568   3.425   4.200 -0.5109  0.1583  1.2721
 3195TIP3    H231001   5.713   3.386   4.222 -0.2491  0.1730 -0.3054
 3196TIP3   OH231002   3.078   2.071   6.347 -0.4036  0.0041  0.0612
 3196TIP3    H131003   3.128   2.130   6.403 -0.1854 -0.1594  0.0420
 3196TIP3    H231004   2.989   2.104   6.350 -0.2766  0.3518  0.0275
 3197TIP3   OH231005   2.095   0.797  17.057  0.2470  0.3921 -0.0620
 3197TIP3    H131006   2.041   0.848  16.998  2.1694  1.1565 -1.2565
 3197TIP3    H231007   2.149   0.862  17.103  1.9857 -0.4335 -0.8349
 3198TIP3   OH231008   3.423   4.454   4.647  0.1718 -0.2813 -1.0554
 3198TIP3    H131009   3.442   4.392   4.577 -0.4078  1.1113 -2.5084
 3198TIP3    H231010   3.491   4.521   4.639  3.2584 -2.4777  2.9608
 3199TIP3   OH231011   6.312   0.171   1.811  0.5135  0.2624  0.1841
 3199TIP3    H131012   6.398   0.212   1.821  0.3259  1.1897 -1.6743
 3199TIP3    H231013   6.292   0.178   1.718 -1.5510  0.0173  0.5505
 3200TIP3   OH231014   2.690   6.072  15.035 -0.4559  0.2189  0.5439
 3200TIP3    H131015   2.769   6.047  14.987 -1.5034  0.5374 -1.4662
 3200TIP3    H231016   2.707   6.046  15.125  1.7499 -0.1268  0.0782
 3201TIP3   OH231017   1.576   3.173   0.920  0.1834  0.0350 -0.6038
 3201TIP3    H131018   1.565   3.180   1.015 -1.1649  0.0829 -0.7416
 3201TIP3    H231019   1.660   3.128   0.909  0.1157 -0.4417  0.6289
 3202TIP3   OH231020   0.116   2.841   3.447  0.3237  0.0775 -0.0989
 3202TIP3    H131021   0.057   2.917   3.452  1.3621  0.8382  2.9931
 3202TIP3    H231022   0.104   2.807   3.359 -1.8762  2.4806 -0.8534
 3203TIP3   OH231023   5.110   0.535  12.634 -0.0090  0.4299  0.7354
 3203TIP3    H131024   5.169   0.463  12.657 -0.7396  0.2261  2.1029
 3203TIP3    H231025   5.048   0.538  12.707 -1.8663  0.4590 -0.8032
 3204TIP3   OH231026   4.219   5.119   4.634  0.2018  0.2534 -0.7556
 3204TIP3    H131027   4.282   5.047   4.641  0.0043  0.1983  0.6291
 3204TIP3    H231028   4.147   5.083   4.582 -1.7475 -1.9840  3.0176
 3205TIP3   OH231029   6.315   0.710  13.384  0.1982  0.2862  0.1403
 3205TIP3    H131030   6.364   0.730  13.463 -1.0866  0.6842  0.8599
 3205TIP3    H231031   6.321   0.615  13.375  0.3800  0.2414  0.6985
 3206TIP3   OH231032   1.138   4.608  17.312 -0.2272  0.0844 -0.2029
 3206TIP3    H131033   1.098   4.630  17.228 -1.3595  0.4547  0.4010
 3206TIP3    H231034   1.075   4.640  17.377  0.8989  0.3452  0.7973
 3207TIP3   OH231035   5.897   4.250   4.643 -0.3074 -0.4779  0.1408
 3207TIP3    H131036   5.824   4.198   4.610  1.0081 -1.1395 -1.9636
 3207TIP3    H231037   5.917   4.311   4.571  1.3029 -0.4574  0.5715
 3208TIP3   OH231038   6.306   5.557  16.634 -0.4441  0.2735 -0.0924
 3208TIP3    H131039   6.280   5.538  16.724  0.3676  0.5288  0.2033
 3208TIP3    H231040   6.325   5.651  16.633  0.4092  0.1055 -0.3065
 3209TIP3   OH231041   0.970   5.519   0.685 -0.1872 -0.0067  0.2035
 3209TIP3    H131042   0.918   5.522   0.604 -0.0011  1.1025  0.0983
 3209TIP3    H231043   1.060   5.506   0.655  0.0456  1.5615  0.1139
 3210TIP3   OH231044   3.535   0.580  12.519  0.5763  0.0586  0.3503
 3210TIP3    H131045   3.524   0.515  12.588 -1.1523 -1.6190 -1.3725
 3210TIP3    H231046   3.455   0.572  12.466  1.3499  2.0116 -1.2460
 3211TIP3   OH231047   2.292   6.392   4.374  0.1214  0.2155  0.6225
 3211TIP3    H131048   2.256   6.312   4.336 -0.0887 -0.2309  1.7416
 3211TIP3    H231049   2.386   6.388   4.357  0.0146  0.0840  0.0519
 3212TIP3   OH231050   1.880   4.621   1.133  0.1738  0.1735  0.5263
 3212TIP3    H131051   1.894   4.562   1.207  1.3997  0.5890  0.6479
 3212TIP3    H231052   1.816   4.576   1.078 -0.7107 -0.1658  1.8033
 3213TIP3   OH231053   0.166   6.116  14.405  0.1724 -0.1073 -0.3838
 3213TIP3    H131054   0.241   6.134  14.349  0.7065  1.0461  0.6604
 3213TIP3    H231055   0.203   6.098  14.491 -0.6711 -1.2165 -0.2233
 3214TIP3   OH231056   4.469   4.012  16.108 -0.1068 -0.0412 -0.1727
 3214TIP3    H131057   4.511   3.927  16.120  0.7444  0.5711  1.6034
 3214TIP3    H231058   4.529   4.062  16.053  0.4783  0.1147  0.5907
 3215TIP3   OH231059   1.803   5.609   3.885 -0.0425 -0.3925  0.3488
 3215TIP3    H131060   1.869   5.582   3.821 -1.4580 -0.0639 -1.3129
 3215TIP3    H231061   1.764   5.688   3.847 -0.0302  0.5977  2.2747
 3216TIP3   OH231062   2.064   5.695  17.125 -0.4804  0.1108  0.1910
 3216TIP3    H131063   2.027   5.760  17.185 -0.7169 -0.1730  0.3575
 3216TIP3    H231064   2.084   5.744  17.046  0.7140  0.6782  0.8170
 3217TIP3   OH231065   4.567   4.974  12.076  0.1769  0.0294  0.4374
 3217TIP3    H131066   4.661   4.962  12.089  0.4627  0.7914 -0.8264
 3217TIP3    H231067   4.540   4.900  12.022 -0.3480 -1.2264  2.3158
 3218TIP3   OH231068   5.445   2.441   5.177 -0.0718  0.4288 -0.9065
 3218TIP3    H131069   5.445   2.533   5.149 -0.4820  0.9370  0.6864
 3218TIP3    H231070   5.460   2.444   5.271  1.1920 -1.2345 -1.0135
 3219TIP3   OH231071   1.473   5.971   5.150  0.6156  0.1675 -0.0691
 3219TIP3    H131072   1.441   6.044   5.203  2.1638  0.7479  0.1095
 3219TIP3    H231073   1.468   5.896   5.209 -0.9737  0.0965 -0.2495
 3220TIP3   OH231074   1.629   4.779   2.447 -0.1883  0.3175  0.1642
 3220TIP3    H131075   1.589   4.811   2.366  0.1955  0.9906  0.2333
 3220TIP3    H231076   1.560   4.730   2.490 -1.4840  2.7278  1.0334
 3221TIP3   OH231077   5.349   5.586   6.584 -0.3513 -0.2512  0.7754
 3221TIP3    H131078   5.430   5.542   6.608  0.1825  0.1912 -0.1802
 3221TIP3    H231079   5.364   5.678   6.604 -0.1968  0.0013 -0.4162
 3222TIP3   OH231080   2.309   5.111  12.038 -0.4120  0.1052  0.0333
 3222TIP3    H131081   2.296   5.127  11.945 -0.0817  1.0369  0.1409
 3222TIP3    H231082   2.298   5.016  12.048 -0.2259 -0.0285 -0.9825
 3223TIP3   OH231083   3.760   5.436   1.579  0.1540 -0.2093 -0.1304
 3223TIP3    H131084   3.843   5.434   1.532 -0.1198 -1.8698 -0.6425
 3223TIP3    H231085   3.782   5.410   1.668  0.1904 -0.7636 -0.2942
 3224TIP3   OH231086   5.342   2.630  13.746  0.5303 -0.4994  0.2595
 3224TIP3    H131087   5.316   2.684  13.821  0.0603 -1.1740  0.5933
 3224TIP3    H231088   5.278   2.558  13.745 -0.0478 -0.0101 -1.3396
 3225TIP3   OH231089   5.972   6.440  12.868  0.4411 -0.0590  0.1838
 3225TIP3    H131090   5.965   6.466  12.960 -0.8320 -0.0221  0.0974
 3225TIP3    H231091   5.941   6.350  12.866  0.1184  0.0521 -0.2475
 3226TIP3   OH231092   1.374   1.829  14.577 -0.1692  0.1036  0.0006
 3226TIP3    H131093   1.292   1.784  14.598  0.9064 -0.3939  3.7994
 3226TIP3    H231094   1.439   1.759  14.568  0.1530  0.5712 -1.8109
 3227TIP3   OH231095   0.254   4.493   5.145 -0.3147 -0.0765  0.2412
 3227TIP3    H131096   0.255   4.427   5.214 -0.5475  1.1368  1.4440
 3227TIP3    H231097   0.161   4.509   5.130 -0.2938 -0.9548 -1.0134
 3228TIP3   OH231098   1.479   5.331   0.707 -0.2552  0.1669  0.9318
 3228TIP3    H131099   1.549   5.266   0.706  0.6615  1.1190 -0.4020
 3228TIP3    H231100   1.409   5.292   0.656  0.2461  0.1519  0.2377
 3229TIP3   OH231101   4.944   0.820   2.935  0.3167  0.0658 -0.1639
 3229TIP3    H131102   4.891   0.891   2.899  1.7196  1.3520  0.2100
 3229TIP3    H231103   4.896   0.791   3.012  0.3746  1.5456  0.4543
 3230TIP3   OH231104   5.756   0.911   2.236  0.2925 -0.1336 -0.4879
 3230TIP3    H131105   5.800   0.996   2.234  1.3867 -0.6126  1.0021
 3230TIP3    H231106   5.826   0.847   2.223  0.2790 -0.9452  2.5170
 3231TIP3   OH231107   4.088   5.670   5.847  0.1325  0.1392 -0.0857
 3231TIP3    H131108   4.050   5.596   5.800 -0.7181  0.2838  0.3536
 3231TIP3    H231109   4.018   5.699   5.906  0.5566  1.0951 -0.0367
 3232TIP3   OH231110   3.910   0.363   6.092 -0.8619 -0.2186 -0.0251
 3232TIP3    H131111   3.920   0.458   6.086 -0.0587  0.0739  3.5667
 3232TIP3    H231112   3.993   0.329   6.057 -0.1837  0.5686  0.7442
 3233TIP3   OH231113   3.383   2.885   5.790 -0.2311 -0.4742 -0.3520
 3233TIP3    H131114   3.294   2.862   5.763  0.2056 -1.9009 -0.6803
 3233TIP3    H231115   3.396   2.840   5.873  0.4044 -0.8681 -0.6478
 3234TIP3   OH231116   6.700   6.064  11.003  0.3736 -0.5538 -0.3915
 3234TIP3    H131117   6.713   6.049  10.909 -1.4780 -1.7678 -0.5125
 3234TIP3    H231118   6.785   6.047  11.042  1.2050  0.0850 -1.8651
 3235TIP3   OH231119   2.929   5.793  11.761 -0.4489  0.6176  0.4825
 3235TIP3    H131120   2.918   5.722  11.824 -0.6450  1.0602  0.9515
 3235TIP3    H231121   3.016   5.778  11.723 -0.6620 -0.1146  0.2592
 3236TIP3   OH231122   5.977   6.030  12.734 -0.2551  0.0391  0.3671
 3236TIP3    H131123   6.014   6.109  12.694 -1.0503  0.5188  0.5735
 3236TIP3    H231124   5.960   5.972  12.659 -0.7913  0.5392  0.0924
 3237TIP3   OH231125   0.810   3.424  16.686 -0.4720  0.2361 -0.6085
 3237TIP3    H131126   0.891   3.465  16.717  0.0796 -2.6181  2.2241
 3237TIP3    H231127   0.818   3.425  16.590  2.2151  1.3038 -0.4497
 3238TIP3   OH231128   5.077   2.724   0.337  0.2403 -0.4676  0.1908
 3238TIP3    H131129   5.141   2.754   0.402  0.3555  1.1710 -0.6320
 3238TIP3    H231130   5.012   2.676   0.389  1.2508 -0.7315  1.2636
 3239TIP3   OH231131   1.719   3.109   5.817  0.0769 -0.0414 -0.2131
 3239TIP3    H131132   1.681   3.039   5.870  0.3512  0.6956  1.0030
 3239TIP3    H231133   1.765   3.165   5.881 -2.7138  3.0121 -0.6283
 3240TIP3   OH231134   1.085   5.727  12.919  0.2186 -0.1354 -0.3358
 3240TIP3    H131135   1.031   5.805  12.913  0.5582  0.0775 -0.7001
 3240TIP3    H231136   1.039   5.661  12.868 -0.2041 -0.2555  0.1945
 3241TIP3   OH231137   4.479   3.931  10.843  0.6665 -0.0897 -0.3509
 3241TIP3    H131138   4.444   3.996  10.904 -1.5360 -0.1651 -1.4188
 3241TIP3    H231139   4.522   3.983  10.775 -0.9192  0.2964 -1.1026
 3242TIP3   OH231140   4.406   3.526  16.006  0.0640 -0.4252 -0.4385
 3242TIP3    H131141   4.453   3.496  15.928 -1.3321 -1.2600 -0.9919
 3242TIP3    H231142   4.324   3.561  15.973 -0.0254  0.3658  0.5700
 3243TIP3   OH231143   5.600   3.266  13.983  0.2695 -0.3974 -0.2915
 3243TIP3    H131144   5.563   3.201  14.043 -0.0247 -1.3677 -1.4787
 3243TIP3    H231145   5.552   3.347  14.003  0.9050 -0.4065  1.4620
 3244TIP3   OH231146   4.241   6.313   4.249 -0.6723 -0.7126  0.1025
 3244TIP3    H131147   4.326   6.270   4.236  0.9540  2.2832 -0.1684
 3244TIP3    H231148   4.238   6.381   4.182 -2.7391  0.0743  0.9043
 3245TIP3   OH231149   4.219   2.314  15.990 -0.2874 -0.1902  0.1578
 3245TIP3    H131150   4.266   2.335  16.071  0.1601 -0.6910  0.0320
 3245TIP3    H231151   4.194   2.400  15.955  2.2992  0.2726 -0.8110
 3246TIP3   OH231152   1.442   1.652   0.929  0.3441 -0.5201  0.6270
 3246TIP3    H131153   1.516   1.707   0.955 -0.5807  1.6821 -1.0944
 3246TIP3    H231154   1.482   1.572   0.896  1.8882  0.0563  0.9962
 3247TIP3   OH231155   5.272   2.289   0.491 -0.1014 -0.0740 -0.2435
 3247TIP3    H131156   5.280   2.202   0.529 -0.8522  0.6487  1.6861
 3247TIP3    H231157   5.190   2.287   0.442 -1.5639  0.2832  2.0488
 3248TIP3   OH231158   0.226   1.469  16.716 -0.0727 -0.3118 -0.3527
 3248TIP3    H131159   0.235   1.546  16.772 -1.3538  0.3258 -0.9599
 3248TIP3    H231160   0.140   1.434  16.738  0.5724 -1.6972  0.0396
 3249TIP3   OH231161   0.338   2.211  12.614 -0.7642  0.2218 -0.2948
 3249TIP3    H131162   0.273   2.260  12.665 -0.5699 -0.4040  0.5718
 3249TIP3    H231163   0.404   2.277  12.591 -1.5548  0.8116 -0.9744
 3250TIP3   OH231164   3.736   0.235   0.241  0.6390 -0.0785 -0.0497
 3250TIP3    H131165   3.765   0.288   0.167  0.4675 -0.9097 -0.7240
 3250TIP3    H231166   3.804   0.169   0.253  0.0123 -0.8063 -0.3692
 3251TIP3   OH231167   1.753   4.215   2.698 -0.1783  0.3043 -0.4910
 3251TIP3    H131168   1.737   4.306   2.724  2.9660  1.2329 -1.3966
 3251TIP3    H231169   1.803   4.178   2.771  1.5562  0.4240 -1.5640
 3252TIP3   OH231170   2.351   1.688  16.886 -0.3202  0.1760 -0.4755
 3252TIP3    H131171   2.256   1.679  16.891 -0.4721  1.6413 -0.3015
 3252TIP3    H231172   2.366   1.782  16.874  1.0869 -0.1071 -1.1753
 3253TIP3   OH231173   3.441   2.293   4.152  0.5580 -0.4172 -0.5156
 3253TIP3    H131174   3.411   2.371   4.198 -0.7063 -1.1573 -0.0282
 3253TIP3    H231175   3.414   2.220   4.209  3.1203 -1.1776 -0.1580
 3254TIP3   OH231176   1.907   5.779  11.299  0.4241  0.2328 -0.1652
 3254TIP3    H131177   1.974   5.830  11.252 -0.0886  0.2242 -0.9180
 3254TIP3    H231178   1.877   5.838  11.369  1.1884  0.2471  0.1675
 3255TIP3   OH231179   4.619   2.594  11.543 -0.7939 -0.3874  0.1714
 3255TIP3    H131180   4.606   2.670  11.600 -0.9072  0.1147 -0.5081
 3255TIP3    H231181   4.691   2.545  11.583 -0.4031  0.3299  0.3529
 3256TIP3   OH231182   6.336   0.816  12.957  0.1445 -0.0078  0.4836
 3256TIP3    H131183   6.278   0.745  12.983 -0.8019  0.7963  0.6088
 3256TIP3    H231184   6.304   0.842  12.870 -0.6438  1.4105  1.1698
 3257TIP3   OH231185   5.659   4.903   6.643 -0.3015 -0.3803  0.1415
 3257TIP3    H131186   5.654   4.923   6.736 -3.2613 -0.4927  0.0766
 3257TIP3    H231187   5.721   4.968   6.608 -0.0377  0.4056  1.9628
 3258TIP3   OH231188   1.506   5.838  11.370  0.4007 -0.4797  0.1691
 3258TIP3    H131189   1.498   5.895  11.294 -0.6855 -0.0047  0.6169
 3258TIP3    H231190   1.547   5.892  11.437 -0.2361 -0.3425  0.4584
 3259TIP3   OH231191   0.160   2.513  17.291  0.1471  0.0475 -0.5452
 3259TIP3    H131192   0.190   2.601  17.313 -1.3046  0.8523 -1.5941
 3259TIP3    H231193   0.199   2.495  17.205 -2.8338  1.4704 -2.3509
 3260TIP3   OH231194   4.004   2.368   5.290  0.1431 -0.8592  0.3943
 3260TIP3    H131195   3.916   2.386   5.322  0.2649  3.3997 -1.0682
 3260TIP3    H231196   3.994   2.292   5.233 -2.9005  0.3351 -0.8232
 3261TIP3   OH231197   4.423   2.072   4.528  0.2572 -0.0978  0.7188
 3261TIP3    H131198   4.380   1.991   4.501 -0.3704  0.5902 -0.4244
 3261TIP3    H231199   4.388   2.090   4.615 -1.8771  0.4753 -0.1971
 3262TIP3   OH231200   6.159   5.271  11.422 -0.4709 -0.0274 -0.1062
 3262TIP3    H131201   6.070   5.265  11.388 -0.9825  2.2595  0.6704
 3262TIP3    H231202   6.151   5.246  11.514  0.1318 -1.9052 -0.5094
 3263TIP3   OH231203   5.581   5.181   6.931 -0.0376 -0.0726 -0.1932
 3263TIP3    H131204   5.577   5.263   6.980 -3.0667 -0.5553  0.5240
 3263TIP3    H231205   5.497   5.176   6.885  1.1993 -1.4674 -2.5184
 3264TIP3   OH231206   0.854   5.331  13.653  0.2531  0.1573  0.2770
 3264TIP3    H131207   0.934   5.368  13.616  0.5402 -0.3675  0.3574
 3264TIP3    H231208   0.801   5.306  13.577 -0.4935  1.8342  0.1968
 3265TIP3   OH231209   6.315   1.076   0.333 -0.3940 -0.1047  0.0974
 3265TIP3    H131210   6.327   1.019   0.409  0.7306 -0.2957 -0.2135
 3265TIP3    H231211   6.343   1.023   0.259  0.5358  0.8059 -0.2138
 3266TIP3   OH231212   0.156   2.646   1.531 -0.2660  0.1692 -0.3654
 3266TIP3    H131213   0.087   2.708   1.507  1.7724  2.5024 -0.6917
 3266TIP3    H231214   0.183   2.674   1.619  0.6277 -0.3109 -0.4754
 3267TIP3   OH231215   5.845   4.208  13.465  0.2073 -0.9937 -0.1154
 3267TIP3    H131216   5.753   4.197  13.441  0.4819 -0.5983 -1.4159
 3267TIP3    H231217   5.853   4.300  13.489  0.7745 -0.3592 -2.5146
 3268TIP3   OH231218   3.689   1.252  12.351  0.2677 -0.3958  0.5076
 3268TIP3    H131219   3.628   1.273  12.422  1.6972 -0.1512  1.6992
 3268TIP3    H231220   3.670   1.317  12.284 -0.0957  0.3189  1.2841
 3269TIP3   OH231221   0.144   3.913   4.068 -0.2916  0.4275 -0.0551
 3269TIP3    H131222   0.202   3.925   4.143  0.5043  1.2664 -0.7888
 3269TIP3    H231223   0.067   3.868   4.104  0.9221 -1.0031  0.8746
 3270TIP3   OH231224   3.581   1.798  16.379 -0.2235  0.3762  0.2258
 3270TIP3    H131225   3.491   1.796  16.412 -0.9906 -2.0864 -1.7612
 3270TIP3    H231226   3.620   1.716  16.410  2.3195  2.4143  3.1653
 3271TIP3   OH231227   5.002   2.189   5.666  0.2412  0.0336 -0.4202
 3271TIP3    H131228   5.074   2.126   5.658 -0.6992 -1.3391  1.1199
 3271TIP3    H231229   5.011   2.224   5.754 -1.2240 -0.5469 -0.0092
 3272TIP3   OH231230   2.171   4.983  12.946  0.2978 -0.3162 -0.1151
 3272TIP3    H131231   2.190   4.921  13.016  0.6941  1.3456  1.3201
 3272TIP3    H231232   2.076   4.991  12.946  0.2216 -1.0921 -0.5001
 3273TIP3   OH231233   4.258   5.067   2.911  0.0579  0.0492  0.1095
 3273TIP3    H131234   4.255   5.058   3.006 -3.9626 -1.2854  0.0721
 3273TIP3    H231235   4.240   4.979   2.878  0.6481  0.6248 -1.8885
 3274TIP3   OH231236   6.205   5.827  15.450 -0.2928  0.0655  0.2715
 3274TIP3    H131237   6.258   5.751  15.426  0.2191  0.8599 -1.2596
 3274TIP3    H231238   6.146   5.794  15.518 -0.0182 -1.6772 -0.2686
 3275TIP3   OH231239   1.646   5.710   1.729 -0.1546  0.3521  0.2236
 3275TIP3    H131240   1.738   5.695   1.707  0.5234  0.8645  2.3981
 3275TIP3    H231241   1.604   5.624   1.719  0.3160  0.3209 -1.7150
 3276TIP3   OH231242   3.812   3.399  10.650 -0.0737 -0.2091 -0.2774
 3276TIP3    H131243   3.723   3.370  10.671 -0.4392 -0.0547 -1.5114
 3276TIP3    H231244   3.858   3.398  10.734 -0.9137 -1.4334  0.2002
 3277TIP3   OH231245   4.602   5.371  11.574  1.3970 -0.4786  0.0382
 3277TIP3    H131246   4.543   5.305  11.610  2.8452 -1.2272  1.1984
 3277TIP3    H231247   4.663   5.389  11.645 -0.1407  3.7351  0.5259
 3278TIP3   OH231248   6.558   2.386  13.095 -0.6258  0.3059  0.2019
 3278TIP3    H131249   6.590   2.352  13.012  0.7517  1.4422  0.2405
 3278TIP3    H231250   6.595   2.328  13.161  1.2911  1.4760  0.2304
 3279TIP3   OH231251   1.177   1.745   5.914  0.7204 -0.4582  0.4946
 3279TIP3    H131252   1.239   1.742   5.842  0.9448 -3.4533  0.6568
 3279TIP3    H231253   1.091   1.744   5.872  0.7971  1.0293  0.2817
 3280TIP3   OH231254   6.222   2.393   4.066  0.0690 -0.2144  0.1049
 3280TIP3    H131255   6.156   2.323   4.069  0.3001 -0.4183  0.7363
 3280TIP3    H231256   6.218   2.433   4.153 -1.1540  1.6094 -0.7417
 3281TIP3   OH231257   6.554   0.635   4.045  0.5181  0.2966  0.6135
 3281TIP3    H131258   6.583   0.681   4.124 -0.0074 -0.4591  1.2747
 3281TIP3    H231259   6.622   0.651   3.981  1.5562 -0.0426  1.5958
 3282TIP3   OH231260   5.808   2.917   6.132  0.5309 -0.5336 -0.1870
 3282TIP3    H131261   5.837   3.005   6.157  1.1893  0.1248 -2.9449
 3282TIP3    H231262   5.886   2.862   6.145  0.1686 -0.7064  1.3789
 3283TIP3   OH231263   6.299   2.378  16.008  0.7691 -0.2665 -0.5810
 3283TIP3    H131264   6.233   2.447  16.014  1.4318  0.4597 -1.3572
 3283TIP3    H231265   6.325   2.378  15.916  0.5802 -1.7582 -0.6618
 3284TIP3   OH231266   0.723   0.022  11.602  0.0769  0.0060 -0.2928
 3284TIP3    H131267   0.711  -0.072  11.594  0.8319 -0.1161 -0.0567
 3284TIP3    H231268   0.646   0.060  11.560 -0.3375 -0.7164 -0.2002
 3285TIP3   OH231269   4.634   3.743  15.450 -0.4357  0.2090  0.2334
 3285TIP3    H131270   4.672   3.831  15.439 -0.3400  0.2247  0.6689
 3285TIP3    H231271   4.711   3.686  15.456 -0.5028  0.0069 -0.7255
 3286TIP3   OH231272   5.744   2.391   4.164  0.0273  0.1485  0.0552
 3286TIP3    H131273   5.676   2.331   4.132  0.7661 -1.8068  1.9068
 3286TIP3    H231274   5.710   2.422   4.247  1.3970 -0.9575  1.0666
 3287TIP3   OH231275   0.449   3.171  13.613  0.8948 -0.1240 -0.4293
 3287TIP3    H131276   0.478   3.093  13.660  0.7866 -0.4899 -0.9586
 3287TIP3    H231277   0.520   3.234  13.625 -0.0948  0.6310  2.1527
 3288TIP3   OH231278   4.118   6.739   1.497 -0.5978  0.4739 -0.1784
 3288TIP3    H131279   4.036   6.689   1.505 -1.8213  2.2427 -1.0484
 3288TIP3    H231280   4.098   6.823   1.538  1.0784  0.6455  0.3279
 3289TIP3   OH231281   6.194   2.101  16.663 -0.5551  0.1791 -0.0929
 3289TIP3    H131282   6.237   2.128  16.582  0.1952  1.0464  0.5708
 3289TIP3    H231283   6.186   2.006  16.655  0.0948  0.1755 -0.9096
 3290TIP3   OH231284   4.056   4.631   3.226 -0.0000 -0.2167  0.2450
 3290TIP3    H131285   4.085   4.587   3.146  1.5706  0.4065  0.4276
 3290TIP3    H231286   3.969   4.664   3.205  0.1322 -0.5908 -0.9994
 3291TIP3   OH231287   2.568   1.645  12.249  0.2522 -0.3632 -0.3850
 3291TIP3    H131288   2.656   1.656  12.212  0.2135  3.0130  0.1626
 3291TIP3    H231289   2.516   1.609  12.177  1.7410 -0.9575 -1.2045
 3292TIP3   OH231290   4.799   1.727  13.788  0.2162  0.2690 -0.1389
 3292TIP3    H131291   4.842   1.781  13.722  0.3440  0.3744  0.0306
 3292TIP3    H231292   4.743   1.787  13.836 -0.2675  0.0975 -0.4763
 3293TIP3   OH231293   5.318   3.548  11.142  0.3582 -0.2242  0.1035
 3293TIP3    H131294   5.362   3.632  11.131  0.0516 -0.0599  0.1218
 3293TIP3    H231295   5.366   3.488  11.084 -0.2606  0.2713 -0.9625
 3294TIP3   OH231296   1.096   6.455   5.310 -0.0818  0.2078 -0.3672
 3294TIP3    H131297   1.015   6.506   5.303  0.2122  1.0764  1.8619
 3294TIP3    H231298   1.133   6.480   5.394  1.1638 -2.1747 -0.1178
 3295TIP3   OH231299   2.669   4.846  12.830 -0.0769  0.0962  0.9698
 3295TIP3    H131300   2.703   4.936  12.830  0.7342 -0.1999  0.7388
 3295TIP3    H231301   2.665   4.822  12.922  1.5956 -0.3040  0.9741
 3296TIP3   OH231302   0.111   3.877   1.803 -0.3914 -0.2847 -0.4293
 3296TIP3    H131303   0.138   3.862   1.894  3.3833 -1.4942 -1.5616
 3296TIP3    H231304   0.065   3.797   1.778  0.3905 -0.8427 -0.1317
 3297TIP3   OH231305   4.145   3.616   3.682  0.1655  0.0202 -0.0975
 3297TIP3    H131306   4.078   3.565   3.635  0.2572 -2.1423  1.9049
 3297TIP3    H231307   4.225   3.603   3.631 -0.0151 -1.1427 -0.1181
 3298TIP3   OH231308   4.094   2.489  16.547 -0.6168 -0.1344 -0.7408
 3298TIP3    H131309   4.046   2.407  16.561  0.3711 -0.5558  0.3313
 3298TIP3    H231310   4.168   2.484  16.608  1.3436  0.0694 -2.9849
 3299TIP3   OH231311   1.527   2.002  12.976 -1.1009  0.6945 -0.2000
 3299TIP3    H131312   1.551   2.001  12.883  1.2843  0.5677  0.3560
 3299TIP3    H231313   1.513   1.909  12.997 -1.8636  0.7415 -0.4516
 3300TIP3   OH231314   4.991   2.955  11.304 -0.5880 -0.7296 -0.1292
 3300TIP3    H131315   4.991   2.861  11.318  2.0147 -0.8433 -0.4150
 3300TIP3    H231316   5.031   2.991  11.384  1.8600 -0.2668 -1.4444
 3301TIP3   OH231317   5.782   2.745  12.076  0.3667 -0.6658 -0.2864
 3301TIP3    H131318   5.806   2.793  11.997  0.1326 -0.3194 -0.1499
 3301TIP3    H231319   5.854   2.684  12.090 -0.3274 -1.8835 -1.6830
 3302TIP3   OH231320   2.511   4.128   4.655  0.3112  0.9308  0.0162
 3302TIP3    H131321   2.599   4.126   4.692 -0.3801  1.4275  1.8145
 3302TIP3    H231322   2.480   4.217   4.673 -0.9830  0.3996  0.5236
 3303TIP3   OH231323   5.867   3.795   0.845 -0.0920 -0.1589 -0.2822
 3303TIP3    H131324   5.884   3.886   0.871  1.3344 -0.4798  0.0090
 3303TIP3    H231325   5.788   3.799   0.792 -0.0474  1.2553 -0.2753
 3304TIP3   OH231326   3.674   6.438   1.299  0.1084  0.2086  0.4224
 3304TIP3    H131327   3.614   6.365   1.315  0.7242 -0.9511 -2.1038
 3304TIP3    H231328   3.759   6.396   1.285  0.4737  1.3939 -1.0852
 3305TIP3   OH231329   6.456   2.963  10.538  0.7877 -0.1785 -0.3184
 3305TIP3    H131330   6.539   2.948  10.493  0.1766  0.0347 -1.5503
 3305TIP3    H231331   6.390   2.930  10.478  0.0064 -1.1247  1.0139
 3306TIP3   OH231332   6.193   1.002   1.842 -0.2874 -0.5276 -0.5061
 3306TIP3    H131333   6.119   1.010   1.901  0.7500 -0.5921  0.8538
 3306TIP3    H231334   6.197   1.086   1.796 -0.6291 -0.1823  0.0920
 3307TIP3   OH231335   3.624   5.725   4.797 -0.0615 -0.0021 -0.0570
 3307TIP3    H131336   3.621   5.778   4.877 -0.6158  0.9399 -0.6837
 3307TIP3    H231337   3.713   5.691   4.794 -0.0022  0.0435  0.9013
 3308TIP3   OH231338   1.846   5.022  15.920 -0.0975  0.7796  0.1586
 3308TIP3    H131339   1.905   5.098  15.919 -0.1079  0.8040  0.8615
 3308TIP3    H231340   1.773   5.047  15.863 -0.2038  1.3872  0.5535
 3309TIP3   OH231341   1.141   2.434   5.308 -0.3279 -0.3144  0.0500
 3309TIP3    H131342   1.192   2.353   5.298 -1.7936 -1.1573 -1.0850
 3309TIP3    H231343   1.078   2.415   5.377  0.3928  0.4776  0.9547
 3310TIP3   OH231344   4.289   4.963   3.970 -0.7389  0.2948 -0.1931
 3310TIP3    H131345   4.214   4.931   4.021 -1.2743  0.8365 -0.6383
 3310TIP3    H231346   4.347   5.003   4.036 -0.5279 -0.6809  0.2373
 3311TIP3   OH231347   3.705   3.341  16.086  0.1494 -0.1527 -0.4578
 3311TIP3    H131348   3.673   3.253  16.105  1.3348 -0.5670 -0.3035
 3311TIP3    H231349   3.777   3.327  16.025  1.4362  0.5686  0.8443
 3312TIP3   OH231350   3.702   3.811   5.515  0.4682  1.0032  0.0465
 3312TIP3    H131351   3.620   3.805   5.466  0.1260  0.9205  0.6201
 3312TIP3    H231352   3.688   3.882   5.578 -0.2270 -0.8091  2.0794
 3313TIP3   OH231353   5.472   2.709   3.964 -0.4155  0.1289  0.2723
 3313TIP3    H131354   5.506   2.776   3.905  0.8633  0.9600  1.8810
 3313TIP3    H231355   5.388   2.684   3.925  0.6319  0.1580 -2.2340
 3314TIP3   OH231356   2.423   4.347   2.383  0.0306 -0.2647 -0.1796
 3314TIP3    H131357   2.414   4.259   2.347 -0.2549  0.7477 -2.8637
 3314TIP3    H231358   2.515   4.355   2.407  0.0066 -1.3351  0.3305
 3315TIP3   OH231359   6.121   3.022  15.304 -0.2113  0.0081  0.1095
 3315TIP3    H131360   6.194   3.081  15.321 -0.5724  0.7051 -0.6579
 3315TIP3    H231361   6.134   2.993  15.213 -0.4504 -0.5072  0.2324
 3316TIP3   OH231362   3.447   1.658  12.201  0.3019  0.1082 -0.2906
 3316TIP3    H131363   3.399   1.695  12.274  2.5568  0.0534  1.3205
 3316TIP3    H231364   3.489   1.580  12.237  1.1130 -0.1887 -1.7798
 3317TIP3   OH231365   4.443   6.112  16.375 -0.5573 -0.5565  0.1816
 3317TIP3    H131366   4.507   6.132  16.443  0.8799 -1.3285 -0.8682
 3317TIP3    H231367   4.399   6.195  16.357 -0.0299 -0.0634  1.1311
 3318TIP3   OH231368   1.215   0.742  15.021 -0.0430  0.0843 -0.2618
 3318TIP3    H131369   1.251   0.672  15.074 -0.4688  0.4628  0.5465
 3318TIP3    H231370   1.229   0.714  14.931  1.2357 -0.2994  0.0308
 3319TIP3   OH231371   5.474   1.276   2.697 -0.4150 -0.5757 -0.3063
 3319TIP3    H131372   5.549   1.239   2.743 -1.3153 -1.4222  0.5271
 3319TIP3    H231373   5.440   1.343   2.756 -0.4170 -0.3021 -0.6133
 3320TIP3   OH231374   5.540   0.462   1.822 -0.5059  0.6611 -0.1914
 3320TIP3    H131375   5.523   0.483   1.914 -0.9309 -1.2848  0.2125
 3320TIP3    H231376   5.455   0.475   1.778 -0.4597  0.9737 -0.1896
 3321TIP3   OH231377   3.348   4.132  14.336  0.0764 -0.0268  0.2882
 3321TIP3    H131378   3.382   4.221  14.331  0.3561  0.0522  2.6030
 3321TIP3    H231379   3.253   4.143  14.338  0.0979  0.1923  0.1742
 3322TIP3   OH231380   2.559   2.706   3.743  0.0796  0.3725  0.4147
 3322TIP3    H131381   2.480   2.756   3.722  0.5666  1.8900  1.9954
 3322TIP3    H231382   2.612   2.711   3.664  0.0844  2.3457  0.4961
 3323TIP3   OH231383   5.224   4.617   0.075 -0.4883 -0.0611  0.0469
 3323TIP3    H131384   5.147   4.562   0.092  0.7486 -1.6521  0.7220
 3323TIP3    H231385   5.291   4.556   0.043  1.1792  0.9093  1.5117
 3324TIP3   OH231386   1.015   4.672   4.492 -0.1016  0.5380  0.2663
 3324TIP3    H131387   0.952   4.734   4.455 -0.8299  0.9514  2.0539
 3324TIP3    H231388   1.000   4.678   4.587  2.1462  0.0944  0.6950
 3325TIP3   OH231389   5.854   1.090  15.307 -0.3206 -0.3805 -0.3216
 3325TIP3    H131390   5.794   1.150  15.350  0.2196 -1.7441  2.6323
 3325TIP3    H231391   5.941   1.120  15.333  0.0331 -1.3693 -0.3037
 3326TIP3   OH231392   3.251   1.117   4.677  0.2773 -0.2307 -0.6021
 3326TIP3    H131393   3.289   1.189   4.727  1.9538  0.3474 -2.5724
 3326TIP3    H231394   3.174   1.091   4.728 -0.2843  2.7974  0.3191
 3327TIP3   OH231395   1.201   2.445  12.054 -0.2600 -0.0853 -0.0536
 3327TIP3    H131396   1.257   2.470  11.980  0.0636  0.0262  0.2282
 3327TIP3    H231397   1.227   2.504  12.124  0.5965 -1.2615  0.6630
 3328TIP3   OH231398   2.588   4.437  17.262 -0.0600 -0.2200 -0.5428
 3328TIP3    H131399   2.542   4.443  17.346 -0.0528  0.0001 -0.5535
 3328TIP3    H231400   2.674   4.402  17.285 -0.2835 -0.7817 -0.5430
 3329TIP3   OH231401   3.177   2.819  11.361 -0.3659 -0.0761  0.3961
 3329TIP3    H131402   3.167   2.735  11.316 -1.7898 -0.8942  2.1046
 3329TIP3    H231403   3.241   2.867  11.309 -0.4886 -1.7060 -1.3580
 3330TIP3   OH231404   6.203   1.029   1.206  0.6853  0.2406 -0.0778
 3330TIP3    H131405   6.281   1.053   1.155 -0.5166 -1.0142 -2.6987
 3330TIP3    H231406   6.233   0.957   1.262  1.5790  0.1985 -0.5857
 3331TIP3   OH231407   3.275   1.288   1.902 -0.5589 -0.1647  0.0451
 3331TIP3    H131408   3.231   1.369   1.929  0.5475  0.9834 -1.3933
 3331TIP3    H231409   3.261   1.285   1.807 -0.1701 -1.4211  0.0151
 3332TIP3   OH231410   3.499   2.599  14.539  0.1022  0.1978  0.6962
 3332TIP3    H131411   3.492   2.665  14.470  2.0312  0.9047  1.1356
 3332TIP3    H231412   3.491   2.516  14.492 -1.0781  0.6782 -0.0278
 3333TIP3   OH231413   3.496   2.168   4.841  0.9361 -0.5047  0.2157
 3333TIP3    H131414   3.458   2.256   4.840  2.6158  0.2866  0.7087
 3333TIP3    H231415   3.556   2.167   4.766  0.0339 -1.6754 -0.5075
 3334TIP3   OH231416   0.221   5.650   5.127  0.0516  0.4118  0.2689
 3334TIP3    H131417   0.309   5.686   5.124  0.0891  0.3777  0.8638
 3334TIP3    H231418   0.163   5.725   5.116  0.1513  0.4550  0.0392
 3335TIP3   OH231419   6.096   3.189   0.700 -0.3611 -0.3323  0.7190
 3335TIP3    H131420   6.035   3.116   0.697 -0.7364 -0.0107 -1.8117
 3335TIP3    H231421   6.183   3.148   0.696 -0.5632 -0.6853 -0.4529
 3336TIP3   OH231422   1.723   1.724   5.422  0.4628 -0.0752  0.0562
 3336TIP3    H131423   1.665   1.648   5.427 -0.5059  0.2416 -3.4319
 3336TIP3    H231424   1.794   1.696   5.365  0.1830  1.5096 -1.1463
 3337TIP3   OH231425   6.644   4.003  17.139  0.0083  0.6264  0.0732
 3337TIP3    H131426   6.732   3.983  17.172 -0.8581 -0.9021  1.6384
 3337TIP3    H231427   6.659   4.048  17.056  2.2552 -1.4577 -0.7718
 3338TIP3   OH231428   2.207   3.865  13.842 -0.4258 -0.4882 -0.6493
 3338TIP3    H131429   2.243   3.953  13.850 -0.8330 -0.2927 -0.9123
 3338TIP3    H231430   2.203   3.832  13.932  2.3447 -1.3271 -0.7554
 3339TIP3   OH231431   6.308   3.596   3.954  0.0228  0.3153 -0.2431
 3339TIP3    H131432   6.364   3.607   4.031  1.3060  0.7240 -1.2098
 3339TIP3    H231433   6.230   3.647   3.975  0.1363  0.0183  0.9849
 3340TIP3   OH231434   0.435   4.675   3.003 -0.1446  0.2145 -0.6314
 3340TIP3    H131435   0.398   4.763   2.990  0.6936  0.4601 -1.4145
 3340TIP3    H231436   0.358   4.619   3.018 -0.6483  1.2139  0.7889
 3341TIP3   OH231437   3.755   6.660   3.670 -0.5389 -0.5898 -0.5330
 3341TIP3    H131438   3.698   6.675   3.594  0.1059 -0.2359 -0.9507
 3341TIP3    H231439   3.808   6.739   3.676 -1.1784 -0.2342  0.8201
 3342TIP3   OH231440   1.977   2.211  12.991 -0.3176 -0.5500  0.2364
 3342TIP3    H131441   2.042   2.269  12.952  0.7519 -0.0717  2.5277
 3342TIP3    H231442   1.894   2.259  12.983 -0.1116 -0.4102 -1.2137
 3343TIP3   OH231443   6.524   6.756   1.865 -0.0385  0.3927 -0.3730
 3343TIP3    H131444   6.560   6.682   1.914 -1.9340 -0.0497  0.4106
 3343TIP3    H231445   6.524   6.828   1.928  1.0649  0.8832 -0.9036
 3344TIP3   OH231446   6.369   5.278  15.533  0.4079  0.3765 -0.1357
 3344TIP3    H131447   6.280   5.301  15.509  0.2846  0.3437  0.2840
 3344TIP3    H231448   6.364   5.255  15.626  0.6286 -0.7998 -0.3997
 3345TIP3   OH231449   1.553   5.183   3.304  0.1091  0.5785  0.1095
 3345TIP3    H131450   1.644   5.159   3.285 -0.4880 -0.2011 -2.1556
 3345TIP3    H231451   1.551   5.278   3.292  0.3259  0.4132 -1.5063
 3346TIP3   OH231452   1.248   5.861   1.498 -0.4432 -0.0905 -0.3072
 3346TIP3    H131453   1.200   5.842   1.418  0.7774  1.4148 -1.4712
 3346TIP3    H231454   1.339   5.841   1.477 -0.2142 -0.5027  1.0055
 3347TIP3   OH231455   2.500   2.605   0.685 -0.2672 -0.2883 -0.1054
 3347TIP3    H131456   2.486   2.648   0.770  1.5775  0.0679  0.0665
 3347TIP3    H231457   2.516   2.677   0.624 -3.2412 -0.4097 -1.2174
 3348TIP3   OH231458   0.753   1.896   1.277  0.2407 -0.4026  0.2145
 3348TIP3    H131459   0.825   1.905   1.214 -0.4363 -0.4947 -0.5984
 3348TIP3    H231460   0.749   1.802   1.296 -0.8867 -0.7003 -1.2656
 3349TIP3   OH231461   6.728   6.322  14.059  0.2938 -0.2563 -0.0650
 3349TIP3    H131462   6.808   6.356  14.099  1.1950  2.7228 -3.8246
 3349TIP3    H231463   6.658   6.376  14.097  0.9614  1.5632 -1.2631
 3350TIP3   OH231464   4.459   0.923  15.097 -0.5055 -0.5311  0.3651
 3350TIP3    H131465   4.492   0.849  15.148 -1.6069 -1.3055  0.0170
 3350TIP3    H231466   4.389   0.960  15.151 -2.1283 -1.7559 -0.7545
 3351TIP3   OH231467   1.651   5.853   6.311 -0.5004 -0.2001 -0.3345
 3351TIP3    H131468   1.741   5.883   6.302 -0.6470  0.9890  1.4551
 3351TIP3    H231469   1.628   5.875   6.401 -2.5361 -0.6004 -0.7074
 3352TIP3   OH231470   2.865   2.263   1.410 -0.6818 -0.2298  0.0193
 3352TIP3    H131471   2.862   2.173   1.377  0.3197  0.0373 -0.8464
 3352TIP3    H231472   2.942   2.301   1.368 -2.0056  1.5333 -0.9512
 3353TIP3   OH231473   5.123   0.898  11.476  0.4193 -0.7492 -0.3991
 3353TIP3    H131474   5.096   0.973  11.423  0.2680 -1.2236 -1.0150
 3353TIP3    H231475   5.073   0.824  11.440 -0.0570 -0.9942  0.7405
 3354TIP3   OH231476   5.827   3.589   0.480  0.1667  0.0563  0.1186
 3354TIP3    H131477   5.855   3.557   0.394 -0.8709 -0.8884  0.1162
 3354TIP3    H231478   5.774   3.667   0.460 -2.1508 -1.5425 -0.3306
 3355TIP3   OH231479   3.476   5.361  14.046  0.8453 -0.4887  0.3125
 3355TIP3    H131480   3.562   5.401  14.027  0.3044  0.8816  0.5990
 3355TIP3    H231481   3.474   5.352  14.141  1.0989 -1.5629  0.2245
 3356TIP3   OH231482   3.891   3.078  14.982 -0.5788  0.7027 -0.5104
 3356TIP3    H131483   3.862   3.000  14.936 -0.3330  2.3600 -3.7660
 3356TIP3    H231484   3.987   3.068  14.987 -0.7142 -0.0921  0.9649
 3357TIP3   OH231485   3.534   1.769  10.936  0.3657  0.1236 -0.2208
 3357TIP3    H131486   3.618   1.815  10.929  1.1002 -0.9877  0.9077
 3357TIP3    H231487   3.485   1.818  11.002  0.6722 -0.0011  0.1044
 3358TIP3   OH231488   2.905   2.317   4.467 -0.6852  0.7887 -0.3844
 3358TIP3    H131489   2.955   2.343   4.390 -1.4470  2.4436 -0.3564
 3358TIP3    H231490   2.969   2.315   4.538  0.0603 -0.9323 -1.0391
 3359TIP3   OH231491   3.829   6.127  12.580  0.6377 -0.2471  0.2699
 3359TIP3    H131492   3.880   6.054  12.545  2.6440 -0.5806  3.3952
 3359TIP3    H231493   3.891   6.199  12.585 -0.3542  0.6165  0.3677
 3360TIP3   OH231494   3.081   6.557  15.135 -0.0099 -0.5269  0.8387
 3360TIP3    H131495   3.030   6.611  15.196 -1.0338 -1.1546  0.5570
 3360TIP3    H231496   3.017   6.498  15.096  0.9642 -1.4153  0.5535
 3361TIP3   OH231497   1.572   6.308   3.970  0.0722  0.3055  0.1814
 3361TIP3    H131498   1.607   6.366   4.038 -0.1151 -1.1856  1.6171
 3361TIP3    H231499   1.649   6.270   3.929  0.1775  0.3269  0.3581
 3362TIP3   OH231500   4.627   4.524  14.348 -0.1194 -0.0757  0.0527
 3362TIP3    H131501   4.718   4.517  14.319 -0.5518 -0.7187 -1.2250
 3362TIP3    H231502   4.630   4.583  14.423  1.0632  1.9224 -1.4593
 3363TIP3   OH231503   6.412   1.083   3.299 -0.4124  0.0322 -0.1468
 3363TIP3    H131504   6.492   1.032   3.308  0.8840  1.5092 -2.2567
 3363TIP3    H231505   6.363   1.039   3.229 -0.5781  0.1469 -0.1034
 3364TIP3   OH231506   3.144   6.329  12.288 -0.3150 -0.5291 -0.0056
 3364TIP3    H131507   3.216   6.288  12.336  0.0739  0.1444 -0.0036
 3364TIP3    H231508   3.141   6.419  12.320 -2.9301 -1.1978  2.0342
 3365TIP3   OH231509   0.345   5.967  15.455  0.0163 -0.2968  0.3095
 3365TIP3    H131510   0.327   5.996  15.545 -1.4011  1.0121 -0.3398
 3365TIP3    H231511   0.265   5.922  15.428 -0.1578  0.6098 -0.7670
 3366TIP3   OH231512   6.067   5.858   4.451  0.6889 -0.3447  0.8263
 3366TIP3    H131513   6.060   5.952   4.469 -0.6972 -0.3654  0.5422
 3366TIP3    H231514   6.116   5.823   4.526  3.8856  0.9720 -0.4510
 3367TIP3   OH231515   5.309   2.538  15.287 -0.1026 -0.0468  0.4027
 3367TIP3    H131516   5.297   2.508  15.377  0.0336  0.6462  0.6591
 3367TIP3    H231517   5.228   2.583  15.266 -0.1477 -0.2381  0.1601
 3368TIP3   OH231518   1.432   0.687  11.491  0.2544  0.1403 -0.5672
 3368TIP3    H131519   1.382   0.680  11.409  1.3105  0.7830 -1.2825
 3368TIP3    H231520   1.448   0.596  11.517  0.5462 -0.0770 -1.4688
 3369TIP3   OH231521   2.945   4.929  15.470  0.3106  0.3645  0.2043
 3369TIP3    H131522   2.869   4.910  15.525 -0.2917 -2.9414 -1.5259
 3369TIP3    H231523   3.018   4.888  15.516 -0.0052 -1.4023 -0.7630
 3370TIP3   OH231524   6.271   1.180  13.279  0.3596 -0.1119  0.0431
 3370TIP3    H131525   6.181   1.168  13.252  0.2470 -1.5941  0.9417
 3370TIP3    H231526   6.267   1.181  13.375  1.0992  1.6820  0.0957
 3371TIP3   OH231527   1.233   2.475   6.467  1.1519 -0.0907  0.1364
 3371TIP3    H131528   1.153   2.463   6.416  0.6660  1.6690  0.4211
 3371TIP3    H231529   1.278   2.548   6.425  1.2832  0.6672  1.5072
 3372TIP3   OH231530   6.149   0.649  14.910 -0.6845 -0.1553 -0.1434
 3372TIP3    H131531   6.088   0.679  14.977 -1.1317 -0.0434 -0.5915
 3372TIP3    H231532   6.160   0.724  14.852 -0.4212 -0.2980 -0.2830
 3373TIP3   OH231533   5.301   3.889   1.950  0.1807  0.0085 -0.0219
 3373TIP3    H131534   5.363   3.936   1.895  3.4111 -2.4465  1.2037
 3373TIP3    H231535   5.297   3.940   2.031  2.7383 -0.9963  0.8479
 3374TIP3   OH231536   1.781   2.757   5.924 -0.2123 -0.2023  0.3930
 3374TIP3    H131537   1.685   2.748   5.921 -0.4183  1.6602  0.1012
 3374TIP3    H231538   1.797   2.818   5.996  0.7922 -0.7337  0.6316
 3375TIP3   OH231539   0.835   6.698   6.430 -0.4604 -0.1874 -0.3063
 3375TIP3    H131540   0.752   6.683   6.475 -1.1373 -0.1271 -1.5080
 3375TIP3    H231541   0.881   6.763   6.483 -1.6232  0.5446 -0.1806
 3376TIP3   OH231542   2.754   4.890  13.851 -0.0739  0.4919 -0.0482
 3376TIP3    H131543   2.766   4.884  13.946 -0.1123 -0.3044 -0.0937
 3376TIP3    H231544   2.835   4.853  13.814 -1.1971 -1.8433 -0.3350
 3377TIP3   OH231545   0.412   0.090  15.602  0.1707  0.2991 -0.2897
 3377TIP3    H131546   0.468   0.018  15.574  0.1800  0.4519 -0.6749
 3377TIP3    H231547   0.445   0.166  15.554 -0.8759  0.2303 -1.1830
 3378TIP3   OH231548   0.270   6.080   3.992 -0.4894 -0.2775  0.1761
 3378TIP3    H131549   0.290   6.122   4.076  2.0840  0.6623 -0.7880
 3378TIP3    H231550   0.178   6.056   3.998 -0.8961  1.4911  2.5330
 3379TIP3   OH231551   5.094   3.472  10.978  0.0259  0.2357  0.6068
 3379TIP3    H131552   5.157   3.421  10.926 -1.3016  0.5688 -1.4395
 3379TIP3    H231553   5.138   3.485  11.062  1.6667 -1.6191  0.1116
 3380TIP3   OH231554   0.633   5.621  13.033 -0.0828  0.4125 -0.3656
 3380TIP3    H131555   0.635   5.640  12.939  0.5434  3.0323  0.0924
 3380TIP3    H231556   0.581   5.691  13.071  2.7305  1.6323  1.5990
 3381TIP3   OH231557   1.402   4.629   1.637  0.1246  0.3406  0.0154
 3381TIP3    H131558   1.498   4.633   1.637  0.1171  0.7284 -0.8564
 3381TIP3    H231559   1.380   4.568   1.707  1.0289 -0.1740 -0.1447
 3382TIP3   OH231560   0.424   0.002  13.749  0.2080 -0.3925 -0.3749
 3382TIP3    H131561   0.488   0.031  13.814 -0.8522  0.0138  0.5204
 3382TIP3    H231562   0.354   0.067  13.754 -0.1454 -0.6430 -1.5678
 3383TIP3   OH231563   4.173   5.519   2.786 -0.0399 -0.2416  0.0716
 3383TIP3    H131564   4.151   5.473   2.706  0.9656  0.3147 -0.5526
 3383TIP3    H231565   4.230   5.591   2.758 -1.8843  1.6811  0.9332
 3384TIP3   OH231566   2.789   0.949   0.789 -0.1627  0.0673 -0.0114
 3384TIP3    H131567   2.717   0.967   0.851 -0.2498  1.8066 -0.5672
 3384TIP3    H231568   2.744   0.918   0.710  0.0185 -3.8039  1.1797
 3385TIP3   OH231569   2.388   2.162  12.874 -0.3576 -0.0410 -0.1387
 3385TIP3    H131570   2.449   2.153  12.800 -0.7670  0.3990 -0.5370
 3385TIP3    H231571   2.403   2.251  12.907 -0.1194 -0.2626  0.3693
 3386TIP3   OH231572   5.078   5.057  10.738 -0.1455  0.1347  0.0976
 3386TIP3    H131573   5.145   5.004  10.695 -0.8155  0.6678 -1.6931
 3386TIP3    H231574   5.122   5.140  10.758  0.0543  0.0468  0.0219
 3387TIP3   OH231575   6.504   6.136  11.377 -0.3253 -0.3255 -0.1851
 3387TIP3    H131576   6.552   6.191  11.316 -0.0233  0.2833  0.5931
 3387TIP3    H231577   6.566   6.116  11.446 -0.2959 -2.0123 -0.6514
 3388TIP3   OH231578   1.879   0.897  15.919  0.2537  0.5809 -0.2529
 3388TIP3    H131579   1.957   0.947  15.895  0.9019 -1.0027 -1.6582
 3388TIP3    H231580   1.833   0.885  15.836 -0.7409  0.2580  0.3347
 3389TIP3   OH231581   3.790   6.449  14.818 -0.0653 -0.3754 -0.0024
 3389TIP3    H131582   3.762   6.510  14.885 -0.6639 -1.2116  0.5321
 3389TIP3    H231583   3.711   6.402  14.793  0.4142 -1.0783 -0.2355
 3390TIP3   OH231584   2.403   2.507  16.164 -0.1948 -0.0453 -0.3134
 3390TIP3    H131585   2.396   2.603  16.161 -1.6689 -0.0803  0.9522
 3390TIP3    H231586   2.434   2.483  16.077  1.6967  1.6764 -0.2122
 3391TIP3   OH231587   5.607   3.960  12.125 -0.9650  1.0372 -0.0036
 3391TIP3    H131588   5.613   3.873  12.085 -2.2774 -0.4778  2.7850
 3391TIP3    H231589   5.684   4.006  12.093  0.4910 -1.5908 -0.6340
 3392TIP3   OH231590   3.001   5.017  14.422  0.0651  0.0500 -0.5586
 3392TIP3    H131591   2.908   5.040  14.423 -0.0169 -0.2749 -0.2689
 3392TIP3    H231592   3.016   4.978  14.508  0.0354 -1.5945 -1.2595
 3393TIP3   OH231593   4.426   3.607   3.890 -0.1278 -0.6399  0.3119
 3393TIP3    H131594   4.464   3.627   3.976 -0.0019  1.0102 -0.0874
 3393TIP3    H231595   4.346   3.560   3.910 -1.5698  2.0811  1.5544
 3394TIP3   OH231596   0.080   2.391   4.561  0.5125 -1.0443 -0.1753
 3394TIP3    H131597  -0.006   2.350   4.552 -0.2242  0.7349 -1.9862
 3394TIP3    H231598   0.126   2.368   4.481  0.0125  1.6638 -1.3404
 3395TIP3   OH231599   1.722   0.350   0.574 -0.1504  0.0482  0.1537
 3395TIP3    H131600   1.769   0.401   0.639  1.5734 -0.8394 -0.3514
 3395TIP3    H231601   1.771   0.268   0.567 -1.2852 -0.5656 -1.0218
 3396TIP3   OH231602   1.659   2.702   4.423 -0.3726 -0.1190 -0.2539
 3396TIP3    H131603   1.637   2.625   4.476 -1.3551 -0.9501 -1.8200
 3396TIP3    H231604   1.679   2.668   4.337 -1.0185  1.4004 -1.0513
 3397TIP3   OH231605   3.175   5.829   1.950  0.5116 -0.4185  0.0338
 3397TIP3    H131606   3.194   5.841   2.043  2.5934 -3.0791  0.0612
 3397TIP3    H231607   3.136   5.742   1.944  0.7720 -0.4511 -1.6552
 3398TIP3   OH231608   2.602   0.506  15.664 -0.0679 -0.1765 -0.6437
 3398TIP3    H131609   2.616   0.478  15.573 -0.1633 -0.3016 -0.6201
 3398TIP3    H231610   2.519   0.553  15.662 -0.4121 -0.7642 -0.4944
 3399TIP3   OH231611   4.891   0.924   1.661  0.0919 -0.1333 -0.6686
 3399TIP3    H131612   4.889   1.002   1.716  0.6414  0.3828 -1.3769
 3399TIP3    H231613   4.970   0.933   1.608  0.2985 -1.2883 -0.5856
 3400TIP3   OH231614   2.975   4.313   1.358  0.9208 -0.3500  0.3282
 3400TIP3    H131615   2.986   4.400   1.319  0.2103  0.2487  1.4126
 3400TIP3    H231616   2.934   4.261   1.289 -0.5903  0.7720  0.3386
 3401TIP3   OH231617   2.390   4.641  13.105  0.0637  0.2846  0.1649
 3401TIP3    H131618   2.329   4.580  13.147 -0.7635  2.0471  1.6970
 3401TIP3    H231619   2.475   4.623  13.145 -0.1857  0.1683  0.6432
 3402TIP3   OH231620   3.155   4.069  14.696  0.4364 -0.4789 -0.3275
 3402TIP3    H131621   3.161   3.978  14.724  0.9080 -0.5534 -0.6597
 3402TIP3    H231622   3.218   4.115  14.752  1.0001 -0.5417 -0.9021
 3403TIP3   OH231623   3.665   6.568   0.574  0.0100 -0.2579  0.0742
 3403TIP3    H131624   3.601   6.555   0.504  1.2318  0.3079 -1.2078
 3403TIP3    H231625   3.702   6.481   0.588  1.0688 -0.0726 -1.3436
 3404TIP3   OH231626   2.942   2.427  12.188  0.0296 -0.2976  0.5746
 3404TIP3    H131627   2.878   2.480  12.141 -1.1813 -0.7874  1.6020
 3404TIP3    H231628   2.892   2.352  12.219  1.7726 -2.3392 -1.2223
 3405TIP3   OH231629   4.952   4.459  15.086 -0.0690  0.7730 -0.3359
 3405TIP3    H131630   4.986   4.523  15.023  2.4426  1.2361  1.3417
 3405TIP3    H231631   5.006   4.381  15.072  0.8929  1.0567  1.5074
 3406TIP3   OH231632   1.280   1.232   0.945 -0.0920 -0.0352  0.3428
 3406TIP3    H131633   1.216   1.302   0.952 -0.9643 -0.8499  0.6854
 3406TIP3    H231634   1.365   1.276   0.948 -0.5785  0.8686  2.4571
 3407TIP3   OH231635   5.332   5.175   1.887 -0.3853 -0.5421  0.2392
 3407TIP3    H131636   5.290   5.169   1.973  0.5894 -2.3162  0.6405
 3407TIP3    H231637   5.422   5.203   1.906 -1.1420  2.9727 -0.5911
 3408TIP3   OH231638   5.971   6.307  15.646 -0.2996 -0.3373 -0.7835
 3408TIP3    H131639   5.985   6.305  15.741 -1.5937 -2.7662 -0.5402
 3408TIP3    H231640   6.025   6.235  15.613 -2.4652 -1.7906 -1.3708
 3409TIP3   OH231641   0.684   2.327  14.480 -0.2366  0.0908 -0.4100
 3409TIP3    H131642   0.700   2.304  14.389 -0.2730  1.5994 -0.8273
 3409TIP3    H231643   0.588   2.329  14.487 -0.2422  0.8521 -0.5958
 3410TIP3   OH231644   5.442   1.625   1.498 -0.2500 -0.4055  0.9294
 3410TIP3    H131645   5.488   1.584   1.425  0.5638 -1.5739  2.0606
 3410TIP3    H231646   5.488   1.708   1.512 -1.3088  0.5262 -0.7611
 3411TIP3   OH231647   4.394   3.999   1.527 -0.0305 -0.1518  0.1609
 3411TIP3    H131648   4.471   3.968   1.481  0.8289 -0.6495  1.8641
 3411TIP3    H231649   4.387   4.092   1.503 -0.4059 -0.6856 -1.9636
 3412TIP3   OH231650   2.396   3.857  17.142 -0.7499  0.2437 -0.2560
 3412TIP3    H131651   2.402   3.786  17.078 -0.2511  0.0427  0.0154
 3412TIP3    H231652   2.306   3.852  17.175 -0.2420 -1.3642  1.0101
 3413TIP3   OH231653   2.118   0.908   5.942  0.5718 -0.6254  0.6045
 3413TIP3    H131654   2.151   0.823   5.971  1.3000 -0.7666 -0.5990
 3413TIP3    H231655   2.178   0.972   5.980 -0.0609 -0.6135  1.6327
 3414TIP3   OH231656   0.772   1.321   3.158  0.0179 -0.5420  0.1260
 3414TIP3    H131657   0.679   1.339   3.148  0.2570  1.7049  1.3468
 3414TIP3    H231658   0.816   1.397   3.118  1.3486 -1.4662 -0.2577
 3415TIP3   OH231659   0.279   2.010  11.518  0.2960  0.2340 -0.2993
 3415TIP3    H131660   0.327   2.064  11.455  0.1644  1.4061  0.5865
 3415TIP3    H231661   0.261   2.068  11.592 -2.1330 -0.2841 -0.4011
 3416TIP3   OH231662   3.864   2.683  14.539  0.1451 -0.0718  0.2373
 3416TIP3    H131663   3.845   2.654  14.450 -0.1082  0.6698  0.0460
 3416TIP3    H231664   3.821   2.768  14.547 -0.3406 -0.3960  1.2714
 3417TIP3   OH231665   4.020   5.209  13.721  0.0027  0.2393 -0.0092
 3417TIP3    H131666   3.974   5.277  13.771 -0.7157  0.0773 -0.4390
 3417TIP3    H231667   4.109   5.210  13.756 -0.0827  1.1850  0.2107
 3418TIP3   OH231668   1.119   1.026   5.886 -0.3456  0.3519 -0.0652
 3418TIP3    H131669   1.157   1.023   5.798 -0.0004  0.2079  0.0881
 3418TIP3    H231670   1.067   0.946   5.893 -1.1437  0.8169 -0.4792
 3419TIP3   OH231671   5.093   3.054   4.019  0.6061  0.0304  0.0383
 3419TIP3    H131672   5.043   2.986   3.973  1.2173 -0.6888  0.4087
 3419TIP3    H231673   5.027   3.117   4.048  0.1666  0.3103 -1.4855
 3420TIP3   OH231674   2.808   4.714  16.052 -0.0285  0.5654 -0.2734
 3420TIP3    H131675   2.826   4.745  15.963  0.5625  3.2967  0.6986
 3420TIP3    H231676   2.718   4.682  16.048 -0.8025  2.6714 -1.4286
 3421TIP3   OH231677   5.847   5.036   5.193  0.1413  0.2899 -0.2379
 3421TIP3    H131678   5.799   5.032   5.110 -0.2863 -1.4355  0.0569
 3421TIP3    H231679   5.851   5.129   5.213 -1.4717  0.6208 -1.2271
 3422TIP3   OH231680   0.841   5.386  16.109 -0.2441 -0.7072  0.3801
 3422TIP3    H131681   0.803   5.453  16.052  0.0599  0.5833  1.6461
 3422TIP3    H231682   0.933   5.382  16.084 -0.2536 -0.6351  0.3349
 3423TIP3   OH231683   5.108   1.012  15.523  0.2325  0.4725 -0.0337
 3423TIP3    H131684   5.046   1.073  15.484  1.2614  1.5240 -0.0540
 3423TIP3    H231685   5.164   1.066  15.579  1.8872 -0.2518 -0.9168
 3424TIP3   OH231686   3.531   1.866  12.019 -0.1920 -0.1200  0.4803
 3424TIP3    H131687   3.487   1.801  12.074  0.2134 -0.0706  0.8672
 3424TIP3    H231688   3.604   1.819  11.979 -0.5749 -0.1959 -0.1447
 3425TIP3   OH231689   3.460   4.061  11.130 -0.9131  0.0023  0.5045
 3425TIP3    H131690   3.422   4.087  11.046  1.1520  3.3784  0.4560
 3425TIP3    H231691   3.423   4.121  11.194 -0.9617 -1.2452  1.7089
 3426TIP3   OH231692   1.691   6.768  16.449 -0.2762  0.0188 -0.3167
 3426TIP3    H131693   1.757   6.831  16.479  0.4701 -0.2602 -1.3094
 3426TIP3    H231694   1.687   6.703  16.518  0.9724 -0.2977 -0.5129
 3427TIP3   OH231695   6.545   3.775  15.933 -0.3338 -0.7368  0.0563
 3427TIP3    H131696   6.609   3.704  15.942 -0.6319 -1.0858 -0.4635
 3427TIP3    H231697   6.494   3.773  16.014  1.9644  1.2643  1.6769
 3428TIP3   OH231698   1.583   4.066   6.086  0.0820 -0.1549  0.0726
 3428TIP3    H131699   1.491   4.087   6.103  0.1691  1.5462 -1.3204
 3428TIP3    H231700   1.597   3.983   6.132 -2.0726 -0.3422  0.5067
 3429TIP3   OH231701   6.154   6.578   2.739  0.0413  0.2342 -0.6545
 3429TIP3    H131702   6.131   6.495   2.700  0.6657  0.1551 -0.8680
 3429TIP3    H231703   6.185   6.632   2.666  1.1455  0.1090 -0.2904
 3430TIP3   OH231704   6.688   6.738   4.888  0.0819  0.6812  0.9529
 3430TIP3    H131705   6.660   6.796   4.818  4.0956  1.3619 -0.3559
 3430TIP3    H231706   6.713   6.797   4.959  0.2471  0.2854  1.2291
 3431TIP3   OH231707   4.875   3.069  16.998  0.2283  1.2026  0.5587
 3431TIP3    H131708   4.964   3.095  17.019  1.1528  0.7176 -2.2709
 3431TIP3    H231709   4.860   2.988  17.048  1.7521  0.7857  0.3834
 3432TIP3   OH231710   0.136   0.046   1.346 -0.7060 -0.3762 -0.5935
 3432TIP3    H131711   0.136   0.062   1.252 -0.5084  1.7398 -0.2837
 3432TIP3    H231712   0.084   0.117   1.383  0.1090 -0.5312  0.9718
 3433TIP3   OH231713   2.155   2.680   2.107 -0.0246 -0.2293  0.2232
 3433TIP3    H131714   2.114   2.610   2.157 -2.0978  0.2043 -0.7567
 3433TIP3    H231715   2.149   2.651   2.016  0.0883  0.7321 -0.1023
 3434TIP3   OH231716   2.100   0.203  11.620 -0.3724  0.6787 -0.2864
 3434TIP3    H131717   2.094   0.166  11.532  0.3048  0.6396 -0.3197
 3434TIP3    H231718   2.099   0.126  11.678 -0.5567  0.6921 -0.2695
 3435TIP3   OH231719   5.318   4.297  11.392  1.0300  0.1860 -0.2560
 3435TIP3    H131720   5.372   4.363  11.436  0.7442  0.2869 -0.0536
 3435TIP3    H231721   5.251   4.348  11.346  0.9034  0.0444 -0.2289
 3436TIP3   OH231722   3.245   5.505   2.678 -0.0298 -0.4642 -0.3484
 3436TIP3    H131723   3.236   5.546   2.764  0.3662  0.7367 -0.8578
 3436TIP3    H231724   3.296   5.426   2.695  1.7142  0.7350  0.2765
 3437TIP3   OH231725   2.620   0.926  16.424  0.5773  0.8744  0.3989
 3437TIP3    H131726   2.573   0.843  16.438  0.2324  1.3297  2.2041
 3437TIP3    H231727   2.687   0.927  16.492  1.4442  1.4921 -0.4457
 3438TIP3   OH231728   4.242   2.474  12.979 -0.0461 -0.0748  0.1230
 3438TIP3    H131729   4.156   2.457  12.940  0.2124 -0.1843 -0.3978
 3438TIP3    H231730   4.291   2.519  12.910  0.8080 -1.3042 -0.0911
 3439TIP3   OH231731   2.990   1.674  16.833  0.6377 -0.7279 -0.2293
 3439TIP3    H131732   3.005   1.666  16.927  0.4750  0.6818 -0.0498
 3439TIP3    H231733   3.077   1.687  16.795  0.5529  0.6381 -0.0150
 3440TIP3   OH231734   3.939   1.313   5.440  0.5198  0.2310 -0.1120
 3440TIP3    H131735   3.871   1.302   5.507  0.6627 -0.2811 -0.0479
 3440TIP3    H231736   3.891   1.317   5.357  0.2332  2.0989  0.0939
 3441TIP3   OH231737   2.884   6.699  15.427  0.1713  0.6780  0.1841
 3441TIP3    H131738   2.815   6.720  15.491  0.2957  0.4271  0.4041
 3441TIP3    H231739   2.952   6.657  15.480  0.7382  1.4341  0.0687
 3442TIP3   OH231740   6.515   2.495   0.600  0.3151  0.1714  0.8848
 3442TIP3    H131741   6.431   2.479   0.643 -0.0221  0.3755  0.3182
 3442TIP3    H231742   6.510   2.446   0.518 -0.4009  2.3502 -0.4727
 3443TIP3   OH231743   0.098   5.408   3.761  0.2248  0.5618 -0.1243
 3443TIP3    H131744   0.012   5.445   3.778 -0.6955 -0.4892 -2.0348
 3443TIP3    H231745   0.132   5.458   3.686  0.0278 -0.7734 -1.1517
 3444TIP3   OH231746   6.177   5.801  12.677 -0.1017 -0.0015  0.2507
 3444TIP3    H131747   6.106   5.738  12.685 -0.3011  0.2756  0.7370
 3444TIP3    H231748   6.152   5.858  12.604 -2.0209  2.1239  2.3859
 3445TIP3   OH231749   1.617   2.784   1.212  0.3748  0.2243  0.6338
 3445TIP3    H131750   1.699   2.827   1.236  0.6658 -0.3458  0.6609
 3445TIP3    H231751   1.550   2.832   1.261  0.5918  1.1903  0.0088
 3446TIP3   OH231752   2.196   3.853   5.707  0.6374  0.3218  0.2639
 3446TIP3    H131753   2.172   3.810   5.789  0.9159  0.0640  0.2130
 3446TIP3    H231754   2.147   3.807   5.640  0.7784  0.2148  0.2328
 3447TIP3   OH231755   4.582   3.606  15.815  0.2662  0.4093 -1.1001
 3447TIP3    H131756   4.580   3.690  15.769  1.0725  1.2560  0.3421
 3447TIP3    H231757   4.671   3.599  15.849 -0.3201 -0.0928  0.4398
 3448TIP3   OH231758   3.801   6.370   1.763 -0.4314  0.4099  0.5810
 3448TIP3    H131759   3.886   6.325   1.761 -0.5291  0.2371 -0.7411
 3448TIP3    H231760   3.751   6.324   1.831 -0.2067 -0.8945 -0.1070
 3449TIP3   OH231761   3.856   6.128   5.356 -0.0695  0.0834  0.4273
 3449TIP3    H131762   3.782   6.114   5.298  1.6298  0.0015 -1.8418
 3449TIP3    H231763   3.861   6.223   5.366 -0.3364  0.1002  0.4242
 3450TIP3   OH231764   3.248   6.487   2.843  0.3831  0.2283  0.0612
 3450TIP3    H131765   3.245   6.413   2.904  0.4479 -0.2464 -0.4978
 3450TIP3    H231766   3.166   6.483   2.795  1.0570 -0.4766 -1.0945
 3451TIP3   OH231767   6.716   5.448   3.173 -0.0814  0.3661 -0.7455
 3451TIP3    H131768   6.626   5.482   3.169 -1.5945 -2.9421  1.2839
 3451TIP3    H231769   6.714   5.381   3.241  4.1355  0.4907 -0.2284
 3452TIP3   OH231770   3.682   4.454   1.603  1.5053 -0.8029 -0.0025
 3452TIP3    H131771   3.736   4.514   1.552  1.3551 -0.0100  0.7331
 3452TIP3    H231772   3.734   4.436   1.681  1.5564 -1.6658 -0.2302
 3453TIP3   OH231773   1.830   0.411  12.428 -0.0509  0.7675  0.4705
 3453TIP3    H131774   1.791   0.423  12.341  1.5007  0.1009 -0.3664
 3453TIP3    H231775   1.902   0.474  12.431  0.3417  0.3019  0.9925
 3454TIP3   OH231776   0.009   6.333   1.260 -0.2743  0.6929  0.4632
 3454TIP3    H131777   0.017   6.420   1.221  0.3808  0.3879 -0.0997
 3454TIP3    H231778   0.075   6.331   1.329 -0.1552  0.5754  0.3464
 3455TIP3   OH231779   4.378   0.802   2.345  0.3486 -0.3728  0.2311
 3455TIP3    H131780   4.290   0.822   2.314  1.2479  2.3053 -0.8578
 3455TIP3    H231781   4.418   0.753   2.273  0.2983 -0.0077 -0.0498
 3456TIP3   OH231782   4.844   6.156   3.974  0.1705  0.0825  0.3341
 3456TIP3    H131783   4.859   6.068   4.008 -1.2905 -0.1913  0.2993
 3456TIP3    H231784   4.842   6.146   3.879  0.1886  0.1949  0.3213
 3457TIP3   OH231785   5.322   2.859   5.958 -0.1163  0.8814 -0.7016
 3457TIP3    H131786   5.330   2.919   6.032 -0.3746  1.9198 -1.5006
 3457TIP3    H231787   5.236   2.818   5.970  1.3886 -1.9564  1.7217
 3458TIP3   OH231788   0.127   1.607   0.507 -0.0339 -0.1492  0.0842
 3458TIP3    H131789   0.185   1.569   0.573 -1.0639 -0.0486  1.0883
 3458TIP3    H231790   0.090   1.685   0.550 -0.3138  0.2187 -0.8085
 3459TIP3   OH231791   2.530   1.166   0.122 -0.5312 -0.0811  0.0897
 3459TIP3    H131792   2.547   1.145   0.214 -0.9975  2.1513  0.7390
 3459TIP3    H231793   2.590   1.238   0.102 -0.7572 -0.2345 -1.2423
 3460TIP3   OH231794   1.580   4.217  12.830  0.1137  0.6087  0.1658
 3460TIP3    H131795   1.595   4.267  12.749 -0.0397 -0.6678 -0.6698
 3460TIP3    H231796   1.514   4.152  12.807  0.9343 -0.5587  0.9898
 3461TIP3   OH231797   0.962   4.905   5.007 -0.7050  0.0887 -0.2607
 3461TIP3    H131798   0.997   4.959   4.937  0.2178 -1.6839 -1.2203
 3461TIP3    H231799   1.038   4.860   5.043 -1.4509 -0.6356  0.4544
 3462TIP3   OH231800   3.484   0.782  12.201 -0.8455 -0.0558 -0.3659
 3462TIP3    H131801   3.575   0.807  12.186 -0.2481 -0.9603  1.4001
 3462TIP3    H231802   3.433   0.861  12.184  0.2956  0.5657 -0.9923
 3463TIP3   OH231803   3.288   3.623  12.801 -0.1117  0.2029 -0.3186
 3463TIP3    H131804   3.340   3.557  12.847 -0.0981  1.0137  0.8651
 3463TIP3    H231805   3.352   3.689  12.773 -0.2747  0.2864 -0.5021
 3464TIP3   OH231806   2.093   1.440  10.452 -0.7784  0.0412 -0.0856
 3464TIP3    H131807   2.092   1.521  10.504  0.5751  0.7682 -1.1212
 3464TIP3    H231808   2.002   1.411  10.452 -1.2974  1.5407  0.3612
 3465TIP3   OH231809   1.242   1.968  12.676  0.0348  0.6423 -0.0901
 3465TIP3    H131810   1.228   1.982  12.583  0.6948  2.1268  0.0049
 3465TIP3    H231811   1.331   2.000  12.692 -0.1926  0.7397  1.1025
 3466TIP3   OH231812   3.604   2.815  12.279  0.1696  0.0714  0.3456
 3466TIP3    H131813   3.547   2.819  12.202 -0.2780 -0.6890  0.6234
 3466TIP3    H231814   3.685   2.776  12.247 -0.4023 -1.2696  0.4541
 3467TIP3   OH231815   0.901   4.490  11.162 -0.0534 -0.4037 -0.3715
 3467TIP3    H131816   0.979   4.523  11.116 -0.4203 -0.7847 -1.2984
 3467TIP3    H231817   0.869   4.420  11.105 -0.5935 -0.8137  0.4272
 3468TIP3   OH231818   5.070   2.812  10.653 -0.0658 -0.8706 -0.1156
 3468TIP3    H131819   5.010   2.788  10.724  0.4074  0.2562  0.7016
 3468TIP3    H231820   5.120   2.733  10.636 -0.9425 -1.4693  0.0395
 3469TIP3   OH231821   5.630   3.762  11.937  0.9138 -0.2424 -0.6476
 3469TIP3    H131822   5.577   3.689  11.906 -1.2266  1.2650 -0.7863
 3469TIP3    H231823   5.703   3.768  11.875  0.5911 -1.6233 -1.1879
 3470TIP3   OH231824   5.822   2.361  16.037 -0.0310 -0.4466 -0.2171
 3470TIP3    H131825   5.867   2.317  16.108  0.8720  2.3926  1.1449
 3470TIP3    H231826   5.732   2.328  16.041  0.4208 -1.6121  1.1253
 3471TIP3   OH231827   4.127   4.732   1.665  0.3216 -0.3177  0.2142
 3471TIP3    H131828   4.114   4.812   1.716  0.7556 -0.3153  0.3259
 3471TIP3    H231829   4.141   4.763   1.575  0.8372 -0.2416  0.3159
 3472TIP3   OH231830   6.345   1.912  10.602  0.5089  0.5064  0.3831
 3472TIP3    H131831   6.312   1.869  10.524  0.8192  0.7070  0.1397
 3472TIP3    H231832   6.305   1.864  10.675 -1.0741  1.3567  0.1016
 3473TIP3   OH231833   3.365   2.211  12.997  0.0321 -0.9996  0.1671
 3473TIP3    H131834   3.418   2.252  13.065  0.1167  3.3939 -2.1386
 3473TIP3    H231835   3.277   2.206  13.034  0.0896  1.2276  0.7440
 3474TIP3   OH231836   6.600   6.502  17.198  0.1096 -0.0611 -0.4643
 3474TIP3    H131837   6.647   6.530  17.276 -0.9716 -0.7850  0.5033
 3474TIP3    H231838   6.631   6.559  17.128  0.3124  1.3538  0.7291
 3475TIP3   OH231839   5.827   2.517  15.394 -0.1469  0.0215  0.3793
 3475TIP3    H131840   5.738   2.549  15.409 -0.3568 -0.1076 -0.5205
 3475TIP3    H231841   5.834   2.437  15.446 -0.3376  0.3764  0.9538
 3476TIP3   OH231842   0.964   6.219   1.709  0.4118 -0.0884 -0.3812
 3476TIP3    H131843   0.886   6.175   1.675  0.9763 -1.3271 -0.1571
 3476TIP3    H231844   0.935   6.307   1.732 -1.1306 -0.7985  0.5363
 3477TIP3   OH231845   0.653   6.036  14.525  0.3197 -0.4612  0.2829
 3477TIP3    H131846   0.611   5.992  14.451 -0.2712 -2.1825  1.5745
 3477TIP3    H231847   0.602   6.009  14.602  0.5447  1.7398  1.2822
 3478TIP3   OH231848   1.739   3.734   5.778  0.3628  0.0178  0.5032
 3478TIP3    H131849   1.691   3.815   5.766 -2.1463 -1.7521 -3.0616
 3478TIP3    H231850   1.672   3.670   5.801  2.2372 -1.2129  3.0158
 3479TIP3   OH231851   5.925   4.883  12.491 -0.0169  0.1981 -0.3357
 3479TIP3    H131852   5.947   4.856  12.402  0.3953  0.4082 -0.3015
 3479TIP3    H231853   5.988   4.953  12.510  1.5046 -1.4413  0.9987
 3480TIP3   OH231854   5.944   1.436  11.567  0.3880  0.3930  0.1744
 3480TIP3    H131855   6.016   1.460  11.508  0.5732 -0.4057  0.0671
 3480TIP3    H231856   5.900   1.364  11.523  0.5017 -0.1875  0.9855
 3481TIP3   OH231857   4.204   2.422   2.118  0.1539 -0.1548 -0.1361
 3481TIP3    H131858   4.140   2.416   2.047  1.6460  0.3456 -1.5965
 3481TIP3    H231859   4.259   2.498   2.095  0.0093  0.7319  2.1594
 3482TIP3   OH231860   4.174   2.256  17.172 -0.7371  0.0095  0.1214
 3482TIP3    H131861   4.085   2.236  17.142 -1.2273  0.9852  0.8646
 3482TIP3    H231862   4.161   2.314  17.248  0.5482  0.8665 -0.2873
 3483TIP3   OH231863   4.205   1.154   5.855 -0.5083  0.0720  0.7775
 3483TIP3    H131864   4.189   1.205   5.776 -0.6687  0.6031  1.1502
 3483TIP3    H231865   4.240   1.070   5.823 -0.1476  0.4487  0.1691
 3484TIP3   OH231866   5.869   4.942   2.416  0.5678  0.3536 -0.0254
 3484TIP3    H131867   5.818   4.986   2.484 -0.4267  0.2443 -0.6743
 3484TIP3    H231868   5.905   4.865   2.458  1.4925  1.2400  0.8560
 3485TIP3   OH231869   4.958   5.601   5.107 -0.6579  0.2379  0.1865
 3485TIP3    H131870   4.913   5.518   5.119 -1.1021  0.2559 -1.1768
 3485TIP3    H231871   5.047   5.577   5.080 -0.7049  0.2036  0.0614
 3486TIP3   OH231872   4.484   0.881   1.763  0.4676  0.0255  0.2522
 3486TIP3    H131873   4.444   0.945   1.704 -0.5426 -0.7350  0.0825
 3486TIP3    H231874   4.528   0.934   1.830 -2.3683  0.9986  1.5227
 3487TIP3   OH231875   1.213   6.176   0.220  0.6301  0.0548  0.0727
 3487TIP3    H131876   1.120   6.200   0.220  0.6754  0.2321 -0.7053
 3487TIP3    H231877   1.239   6.183   0.312 -0.0155  0.4297  0.2328
 3488TIP3   OH231878   5.422   3.211   3.651 -0.0957  0.0115  0.3700
 3488TIP3    H131879   5.395   3.257   3.572  0.9025 -0.4057 -0.2319
 3488TIP3    H231880   5.518   3.208   3.645 -0.1319 -2.4291  0.2061
 3489TIP3   OH231881   2.727   5.351  17.036  0.1178 -0.0828  0.5871
 3489TIP3    H131882   2.812   5.391  17.052 -0.7170  1.7357  0.7047
 3489TIP3    H231883   2.688   5.404  16.966 -0.0690 -2.2054 -1.0287
 3490TIP3   OH231884   3.519   1.512  13.721  0.5893  0.0436 -0.0037
 3490TIP3    H131885   3.544   1.522  13.629 -0.4294  0.0168 -0.2993
 3490TIP3    H231886   3.572   1.577  13.767  0.0898  1.0717 -0.8089
 3491TIP3   OH231887   2.323   4.298   2.788  0.2206  0.2196 -0.3180
 3491TIP3    H131888   2.313   4.204   2.772  1.8505  0.2049 -1.5912
 3491TIP3    H231889   2.356   4.303   2.878 -2.1639 -0.2225  0.6449
 3492TIP3   OH231890   3.152   2.038  12.680  0.0350 -0.0317 -0.3655
 3492TIP3    H131891   3.183   2.129  12.681 -0.6573  0.2099 -0.5769
 3492TIP3    H231892   3.072   2.041  12.627  0.4636 -0.9160 -1.0810
 3493TIP3   OH231893   2.077   4.998  16.505  0.5584  0.0394 -0.1459
 3493TIP3    H131894   2.062   5.090  16.483  0.9642  0.3392  0.7863
 3493TIP3    H231895   2.163   4.997  16.546  0.6936 -0.8134 -0.4368
 3494TIP3   OH231896   2.189   1.922   0.609 -0.2069  0.4962  0.0486
 3494TIP3    H131897   2.131   1.940   0.683  0.9141 -2.4955  1.8601
 3494TIP3    H231898   2.272   1.964   0.633  0.1182 -0.3669  0.5009
 3495TIP3   OH231899   0.228   4.378  13.280  0.1914  0.7093  0.4023
 3495TIP3    H131900   0.226   4.302  13.222  3.0399  0.1891  0.8603
 3495TIP3    H231901   0.171   4.442  13.237  1.1413 -0.1277 -2.2747
 3496TIP3   OH231902   1.698   3.416  10.959 -0.7266  0.5036  0.2134
 3496TIP3    H131903   1.629   3.352  10.938 -0.9523  0.8117  0.0170
 3496TIP3    H231904   1.671   3.496  10.914 -0.5027  0.7731  0.5600
 3497TIP3   OH231905   1.659   0.993   1.571  0.2897 -0.1536 -0.3810
 3497TIP3    H131906   1.652   0.973   1.665  2.5186  1.5937  0.2428
 3497TIP3    H231907   1.753   1.005   1.556  0.0819 -1.2127 -3.0594
 3498TIP3   OH231908   5.901   1.621   2.306 -0.0995  0.0031 -0.2257
 3498TIP3    H131909   5.948   1.698   2.272  0.6265 -1.5260 -3.0215
 3498TIP3    H231910   5.945   1.599   2.387  1.7440  0.7347 -0.9768
 3499TIP3   OH231911   1.346   4.681   2.849 -0.0390  0.7059  0.0516
 3499TIP3    H131912   1.300   4.671   2.932  0.0221  0.1147  0.0178
 3499TIP3    H231913   1.362   4.591   2.819  2.1834  0.8419  0.6501
 3500TIP3   OH231914   4.351   6.368   4.654 -0.2104  0.8009  0.4845
 3500TIP3    H131915   4.257   6.354   4.668 -0.3095  1.7345  0.7763
 3500TIP3    H231916   4.372   6.313   4.578 -0.9813  0.5764  0.4231
 3501TIP3   OH231917   1.004   5.149  11.778  0.2593 -0.4873  0.8173
 3501TIP3    H131918   1.093   5.117  11.766  0.2692 -0.7689  1.5910
 3501TIP3    H231919   0.955   5.111  11.704  0.6880 -0.6788  0.6279
 3502TIP3   OH231920   0.375   2.063   6.151  0.3899 -0.3006 -0.1326
 3502TIP3    H131921   0.358   1.987   6.095  1.9546  0.6228 -1.9750
 3502TIP3    H231922   0.445   2.034   6.209  0.6497 -0.4295 -0.5041
 3503TIP3   OH231923   4.609   5.380   5.833 -0.0526  0.0028  0.3229
 3503TIP3    H131924   4.616   5.475   5.824  0.0429  0.0779  1.1795
 3503TIP3    H231925   4.690   5.353   5.877 -0.6905 -0.3014  1.3355
 3504TIP3   OH231926   1.975   6.732  14.727 -0.0671  0.2933 -0.1171
 3504TIP3    H131927   2.003   6.689  14.647  1.6872 -1.8461  1.5288
 3504TIP3    H231928   1.883   6.707  14.737 -0.1886  0.2492 -1.2023
 3505TIP3   OH231929   5.944   1.125  14.541  0.3506  0.7788  0.5626
 3505TIP3    H131930   6.006   1.085  14.602  0.6829 -1.0439 -0.8795
 3505TIP3    H231931   5.874   1.158  14.597  0.9646 -0.2133  1.9772
 3506TIP3   OH231932   6.577   4.190   4.920 -0.6275  0.0519  0.4374
 3506TIP3    H131933   6.608   4.104   4.891  2.6422  0.9168  0.9497
 3506TIP3    H231934   6.533   4.227   4.843  1.4626 -0.5564 -1.1490
 3507TIP3   OH231935   0.383   2.684   4.601  0.3021  0.0708 -0.3477
 3507TIP3    H131936   0.337   2.648   4.525  1.2423 -0.9791 -0.4548
 3507TIP3    H231937   0.475   2.661   4.586  0.3220 -1.5172  1.8171
 3508TIP3   OH231938   4.713   2.336  15.631 -0.2197 -0.5212  0.3897
 3508TIP3    H131939   4.639   2.286  15.597 -0.3791  0.3096 -0.5253
 3508TIP3    H231940   4.756   2.371  15.553  0.1908  0.3350  0.9889
 3509TIP3   OH231941   4.126   4.536  14.485  0.2311 -0.4360  0.4187
 3509TIP3    H131942   4.200   4.514  14.428  1.2039  0.0662  1.4465
 3509TIP3    H231943   4.084   4.452  14.504  0.9987 -0.8332  0.4167
 3510TIP3   OH231944   2.563   4.972   3.548  0.3763  0.4937  0.6008
 3510TIP3    H131945   2.569   5.060   3.512  0.6088  0.3037  0.1535
 3510TIP3    H231946   2.615   4.975   3.628 -0.4029  1.0062  1.0964
 3511TIP3   OH231947   1.166   5.779   0.759 -0.1478 -0.1353 -0.0937
 3511TIP3    H131948   1.130   5.827   0.834 -3.6335 -0.9418 -1.0931
 3511TIP3    H231949   1.200   5.698   0.796 -0.1965  0.2399  0.7930
 3512TIP3   OH231950   0.732   2.338  17.224 -0.3828 -0.1186 -0.0880
 3512TIP3    H131951   0.681   2.397  17.279  1.9010  2.2212 -0.3162
 3512TIP3    H231952   0.773   2.278  17.286 -0.5103  0.3214  0.4251
 3513TIP3   OH231953   1.218   0.010   4.595 -0.1518  0.2823  0.1551
 3513TIP3    H131954   1.272   0.030   4.671  1.3259 -1.1266 -0.4875
 3513TIP3    H231955   1.234   0.082   4.534 -1.3040  1.3899  1.1066
 3514TIP3   OH231956   0.095   4.378   1.102  0.4685  0.0774 -0.3397
 3514TIP3    H131957   0.167   4.420   1.056  0.2761 -2.9996 -3.9692
 3514TIP3    H231958   0.032   4.355   1.033 -2.9466  0.4963  2.3211
 3515TIP3   OH231959   2.797   4.335  16.368  0.2454 -0.6646 -0.4195
 3515TIP3    H131960   2.827   4.292  16.288  1.4275  1.6867 -1.3669
 3515TIP3    H231961   2.708   4.303  16.382  0.3469 -1.8218 -2.1705
 3516TIP3   OH231962   0.805   6.656  14.149 -0.3313 -0.5474  0.3987
 3516TIP3    H131963   0.803   6.578  14.093 -0.1677  0.1408 -0.5752
 3516TIP3    H231964   0.809   6.730  14.089  1.1745  0.1738  1.3227
 3517TIP3   OH231965   4.779   3.168   0.740 -0.5515 -0.1483 -0.4862
 3517TIP3    H131966   4.762   3.237   0.675 -0.0530  1.6556  1.2158
 3517TIP3    H231967   4.851   3.117   0.702  1.0760  2.0494 -0.5702
 3518TIP3   OH231968   0.606   6.348  12.498  0.1480 -0.1802  0.0759
 3518TIP3    H131969   0.655   6.378  12.575  0.2615 -0.1519 -0.0069
 3518TIP3    H231970   0.661   6.373  12.423 -1.0864  2.0622 -0.1793
 3519TIP3   OH231971   3.828   1.453  13.390  0.4264 -0.2132  0.1433
 3519TIP3    H131972   3.886   1.425  13.319 -1.0163 -0.8469 -0.8424
 3519TIP3    H231973   3.882   1.511  13.444  1.3042  1.1310 -2.0264
 3520TIP3   OH231974   6.724   4.220  12.085  0.1574  0.1040 -0.4072
 3520TIP3    H131975   6.753   4.170  12.008  0.2955  0.6632 -0.7205
 3520TIP3    H231976   6.728   4.157  12.157  0.2632 -0.3582 -0.8128
 3521TIP3   OH231977   3.250   1.370  16.728 -0.3334 -0.5629 -0.5405
 3521TIP3    H131978   3.190   1.297  16.717  1.3083 -2.0213 -0.3056
 3521TIP3    H231979   3.316   1.338  16.790  1.0889  0.6843 -1.3210
 3522TIP3   OH231980   6.084   0.931   4.253 -0.6610  0.2973  0.7693
 3522TIP3    H131981   6.039   1.015   4.254 -2.1521 -0.4543  2.6016
 3522TIP3    H231982   6.159   0.943   4.311  0.8175  1.1179 -1.1684
 3523TIP3   OH231983   6.684   4.729   1.912 -0.2368 -0.1315  0.1639
 3523TIP3    H131984   6.687   4.760   2.002  0.2587  1.1617 -0.2746
 3523TIP3    H231985   6.671   4.634   1.919 -1.4082  0.1168  1.5585
 3524TIP3   OH231986   1.923   5.917  12.340 -0.5452  0.2731  0.2670
 3524TIP3    H131987   1.917   5.845  12.278 -1.1970  0.4473  0.1155
 3524TIP3    H231988   2.016   5.940  12.342 -0.5983  0.7362 -1.1961
 3525TIP3   OH231989   2.623   2.232  16.442 -0.8219 -0.5811 -0.3225
 3525TIP3    H131990   2.540   2.270  16.471  0.2462  1.5287  0.1551
 3525TIP3    H231991   2.661   2.194  16.521 -1.4129 -1.8034 -0.5961
 3526TIP3   OH231992   1.663   5.247   0.113  0.1484  0.3211 -0.4660
 3526TIP3    H131993   1.749   5.206   0.110 -0.3434 -0.7695 -0.1132
 3526TIP3    H231994   1.681   5.338   0.137  1.1260 -0.1785  0.8235
 3527TIP3   OH231995   5.869   5.275  11.362  0.1517  0.2486 -0.5175
 3527TIP3    H131996   5.864   5.180  11.374 -1.3775  0.2158 -1.1960
 3527TIP3    H231997   5.860   5.287  11.267  0.0212  1.0828 -0.4020
 3528TIP3   OH231998   6.453   4.152   1.365 -0.2901 -0.6406 -0.4063
 3528TIP3    H131999   6.472   4.058   1.353 -0.4301 -0.9303  1.4344
 3528TIP3    H232000   6.361   4.155   1.390 -0.0753 -0.0982  0.3638
 3529TIP3   OH232001   0.813   3.461  16.226 -0.1390  0.0664  1.3041
 3529TIP3    H132002   0.799   3.547  16.187  0.8020 -0.4222 -0.1909
 3529TIP3    H232003   0.901   3.437  16.199 -0.7876 -1.8376  0.7706
 3530TIP3   OH232004   3.438   5.159   2.153 -0.1780 -0.3483 -0.4860
 3530TIP3    H132005   3.531   5.155   2.133  0.0712 -1.6649  0.8410
 3530TIP3    H232006   3.409   5.068   2.154 -1.0783 -0.0750  0.8789
 3531TIP3   OH232007   5.852   5.355  13.441  0.4055 -1.0071 -0.4932
 3531TIP3    H132008   5.766   5.368  13.399 -0.2137  0.6617  1.1732
 3531TIP3    H232009   5.899   5.437  13.425  0.5667 -0.7667  1.0903
 3532TIP3   OH232010   5.765   4.962  12.081  0.3402 -0.3833  0.0545
 3532TIP3    H132011   5.808   4.907  12.146  1.8057 -0.0485 -0.5712
 3532TIP3    H232012   5.791   4.924  11.997  1.0610  0.9727 -0.3854
 3533TIP3   OH232013   0.521   3.960  15.065 -0.0180  0.6625 -0.3342
 3533TIP3    H132014   0.541   4.050  15.039 -1.3197  1.2417  0.5366
 3533TIP3    H232015   0.565   3.905  15.000  0.5496  1.9365 -1.0557
 3534TIP3   OH232016   3.704   5.324  11.835 -0.3987 -0.1063 -0.0220
 3534TIP3    H132017   3.664   5.407  11.811 -0.1334 -0.1358 -0.5908
 3534TIP3    H232018   3.736   5.337  11.924  0.1193  0.5804 -0.3020
 3535TIP3   OH232019   1.434   3.014  15.369  0.1565  0.2372  0.9545
 3535TIP3    H132020   1.361   3.055  15.323 -2.4382 -0.1862  4.3569
 3535TIP3    H232021   1.470   2.952  15.305 -1.7308  1.2071 -1.2061
 3536TIP3   OH232022   4.702   3.674   4.892 -0.1068  0.1275  0.0985
 3536TIP3    H132023   4.767   3.616   4.933 -1.9094 -3.2668 -1.4764
 3536TIP3    H232024   4.633   3.681   4.958  0.1315  0.5896  0.3071
 3537TIP3   OH232025   4.438   5.006  16.521  0.3190 -0.2627  0.3088
 3537TIP3    H132026   4.406   4.915  16.527 -0.3256 -0.0440  0.2286
 3537TIP3    H232027   4.359   5.058  16.506  0.8368  0.1909 -0.9317
 3538TIP3   OH232028   5.694   5.569  16.653  0.3583 -0.1485 -0.2014
 3538TIP3    H132029   5.693   5.558  16.558  0.3020  1.0196 -0.3543
 3538TIP3    H232030   5.736   5.490  16.687  0.7174 -0.4003 -1.2222
 3539TIP3   OH232031   6.566   0.565  17.123 -0.0567 -0.0665 -0.0673
 3539TIP3    H132032   6.488   0.555  17.177  0.4663  0.1284  0.7336
 3539TIP3    H232033   6.618   0.487  17.142 -0.7156 -0.9848 -1.7546
 3540TIP3   OH232034   5.450   6.115   0.880 -0.7129  0.3732 -0.2177
 3540TIP3    H132035   5.485   6.183   0.822 -1.4651  1.8015  0.9385
 3540TIP3    H232036   5.385   6.069   0.826 -0.6724  0.9958 -0.8207
 3541TIP3   OH232037   4.028   2.870   1.875  0.5224  0.3785  0.3169
 3541TIP3    H132038   4.057   2.780   1.862 -0.7989  0.1731 -1.7389
 3541TIP3    H232039   4.109   2.920   1.887  1.2659 -1.0586  1.5491
 3542TIP3   OH232040   5.103   3.224  14.199 -0.4369  0.3838  0.3770
 3542TIP3    H132041   5.022   3.210  14.149  0.6908 -0.1016 -1.4208
 3542TIP3    H232042   5.141   3.303  14.159  1.5426 -1.2063 -1.0876
 3543TIP3   OH232043   3.704   0.639   0.185 -0.2361 -0.3310  0.0645
 3543TIP3    H132044   3.715   0.623   0.279 -0.3592 -0.4131  0.0652
 3543TIP3    H232045   3.692   0.734   0.178 -0.9409 -0.4080  0.2033
 3544TIP3   OH232046   1.628   5.163  15.414 -0.3010  0.3375  0.5059
 3544TIP3    H132047   1.570   5.237  15.436  0.4312  1.2316 -0.4701
 3544TIP3    H232048   1.617   5.151  15.320  2.4964  1.8345 -0.1117
 3545TIP3   OH232049   5.846   1.562  12.566 -0.8172 -0.0955 -0.0864
 3545TIP3    H132050   5.923   1.567  12.510  0.0965 -0.2475  1.1268
 3545TIP3    H232051   5.772   1.554  12.505  0.0407  0.8407 -1.2862
 3546TIP3   OH232052   5.927   1.108   4.746  0.2780 -0.8800  0.1516
 3546TIP3    H132053   5.865   1.035   4.735  0.3466 -0.9157  0.0002
 3546TIP3    H232054   6.012   1.065   4.759  0.1472 -0.8504  1.2058
 3547TIP3   OH232055   3.033   5.341   2.866  0.1192  0.6031  0.1235
 3547TIP3    H132056   3.083   5.269   2.828 -0.4239  0.6519 -0.7158
 3547TIP3    H232057   3.099   5.404   2.895  0.5494  0.7693 -1.1597
 3548TIP3   OH232058   6.081   2.382   3.063  0.3148 -0.7607 -0.2245
 3548TIP3    H132059   6.017   2.377   2.992 -0.8090  0.1718  0.6775
 3548TIP3    H232060   6.145   2.447   3.033 -1.7875  1.9664  0.7531
 3549TIP3   OH232061   3.771   6.253  13.389  0.5691  0.0873  0.3809
 3549TIP3    H132062   3.813   6.185  13.442  0.8473 -0.3889 -0.4243
 3549TIP3    H232063   3.734   6.205  13.315 -1.7557  0.4359  1.2457
 3550TIP3   OH232064   1.421   0.514   2.453 -0.3378  0.2499 -0.1700
 3550TIP3    H132065   1.454   0.581   2.393  0.0268  0.0076 -0.2366
 3550TIP3    H232066   1.387   0.445   2.396  0.7299 -0.3451 -0.1098
 3551TIP3   OH232067   6.303   0.147   3.141 -0.4571  0.0026  0.3507
 3551TIP3    H132068   6.254   0.224   3.112  0.5364  0.9894  1.1983
 3551TIP3    H232069   6.383   0.148   3.089 -0.2950 -0.2826  0.5928
 3552TIP3   OH232070   1.437   3.839  16.785  0.0294  0.0367 -0.5659
 3552TIP3    H132071   1.398   3.872  16.866  1.5955 -1.2401  0.7574
 3552TIP3    H232072   1.531   3.848  16.798  0.4084 -2.2813 -1.2925
 3553TIP3   OH232073   5.833   5.050  15.469  0.3627 -0.0215  0.2725
 3553TIP3    H132074   5.811   4.959  15.452  1.0033 -0.3611  1.1394
 3553TIP3    H232075   5.897   5.073  15.402 -1.9130  0.7263 -1.7634
 3554TIP3   OH232076   3.853   4.259   1.190 -0.4960 -0.3377 -0.4722
 3554TIP3    H132077   3.891   4.172   1.207 -0.8167 -0.5442 -0.7854
 3554TIP3    H232078   3.759   4.243   1.188 -0.5979  0.1497  0.1752
 3555TIP3   OH232079   1.993   0.959  14.830 -0.5570  0.4091 -0.5716
 3555TIP3    H132080   2.045   0.931  14.905 -0.2758 -2.2961 -1.6732
 3555TIP3    H232081   2.058   0.989  14.766 -0.4746 -0.7026 -1.0397
 3556TIP3   OH232082   0.249   2.902   3.846  0.6248  0.2357  0.0242
 3556TIP3    H132083   0.207   2.888   3.931  0.6757  3.0177  0.6060
 3556TIP3    H232084   0.334   2.941   3.867  0.9815  0.1975 -1.2694
 3557TIP3   OH232085   6.329   0.964   3.588 -0.4771 -0.1705  0.4757
 3557TIP3    H132086   6.352   0.959   3.495  0.2747 -0.0699  0.6534
 3557TIP3    H232087   6.284   1.048   3.597 -1.9816 -0.8777 -0.0957
 3558TIP3   OH232088   2.155   1.351  11.537  0.6725  0.6624  0.1456
 3558TIP3    H132089   2.063   1.335  11.559  0.3137  0.8885 -1.1192
 3558TIP3    H232090   2.172   1.440  11.568 -0.6788  2.1329 -2.9333
 3559TIP3   OH232091   1.633   0.094   3.196  0.0855  0.4428 -0.8789
 3559TIP3    H132092   1.627   0.044   3.278  0.3944 -1.7866 -2.1340
 3559TIP3    H232093   1.548   0.139   3.190 -0.3066 -0.1028  0.2076
 3560TIP3   OH232094   0.930   1.357   5.035  0.2603  0.4835 -0.0179
 3560TIP3    H132095   0.962   1.398   4.955  0.5995  0.7863  0.2728
 3560TIP3    H232096   0.834   1.358   5.026  0.3204 -1.5694 -1.4639
 3561TIP3   OH232097   0.964   0.643  14.525 -0.2453 -0.5391  1.2832
 3561TIP3    H132098   1.018   0.681  14.456 -0.7416  0.0474  1.2005
 3561TIP3    H232099   0.915   0.574  14.481 -1.7290  0.8475  0.6242
 3562TIP3   OH232100   5.372   0.083  11.660  0.4820 -0.0299  0.0845
 3562TIP3    H132101   5.404  -0.006  11.646 -1.5253 -0.6249 -1.2526
 3562TIP3    H232102   5.367   0.121  11.572  1.1014  1.3555  0.6130
 3563TIP3   OH232103   6.686   2.961  13.307 -0.0748  0.1145  1.0427
 3563TIP3    H132104   6.618   2.976  13.372  1.6648  3.7068  2.3133
 3563TIP3    H232105   6.678   3.035  13.246  2.8915  0.9814  1.5492
 3564TIP3   OH232106   6.201   3.501  12.153  0.9749 -0.0605  0.0857
 3564TIP3    H132107   6.198   3.548  12.236 -1.0000 -0.6713  0.4227
 3564TIP3    H232108   6.155   3.559  12.092  1.4425 -0.1087 -0.3209
 3565TIP3   OH232109   3.988   5.018   4.541  0.0597  0.1200 -0.0655
 3565TIP3    H132110   3.976   4.996   4.633  0.8700  1.4196  0.3765
 3565TIP3    H232111   3.900   5.032   4.508 -0.1554  1.7249  1.0778
 3566TIP3   OH232112   1.061   2.029  11.463  0.2637  0.2044 -0.1135
 3566TIP3    H132113   0.984   2.057  11.414  1.2891  1.2965 -1.2038
 3566TIP3    H232114   1.102   1.963  11.407 -0.5390 -1.3536  1.0653
 3567TIP3   OH232115   0.162   0.332   0.674  0.3289 -0.2356 -0.0046
 3567TIP3    H132116   0.184   0.263   0.737 -0.8187 -0.3996  0.2362
 3567TIP3    H232117   0.091   0.295   0.621 -0.6349  0.9093  0.4349
 3568TIP3   OH232118   1.586   2.869  14.092 -0.0890 -0.3310 -0.3268
 3568TIP3    H132119   1.574   2.817  14.012 -0.7538  0.0274 -0.4646
 3568TIP3    H232120   1.574   2.807  14.163 -1.0552 -0.3435 -0.4883
 3569TIP3   OH232121   4.770   3.390  13.091  0.4812  0.8558 -0.2649
 3569TIP3    H132122   4.853   3.430  13.063  0.8672 -0.3994 -0.9727
 3569TIP3    H232123   4.746   3.438  13.171  2.3775  0.6232  0.4888
 3570TIP3   OH232124   0.092   4.535  14.214  0.3106  0.2629 -0.2093
 3570TIP3    H132125   0.090   4.490  14.298  1.3881  0.7972  0.1211
 3570TIP3    H232126   0.079   4.466  14.149 -1.2789 -0.0572  0.3984
 3571TIP3   OH232127   2.476   4.158   0.200 -0.7925  0.4825 -0.1213
 3571TIP3    H132128   2.423   4.082   0.225  0.7530 -0.3695  0.7282
 3571TIP3    H232129   2.477   4.156   0.104 -3.0886  1.1347 -0.2033
 3572TIP3   OH232130   3.651   1.207  13.826  0.0150  0.7069 -0.0551
 3572TIP3    H132131   3.559   1.232  13.822 -0.4082 -0.8880 -2.3028
 3572TIP3    H232132   3.686   1.230  13.740  0.7817 -1.7853 -0.5096
 3573TIP3   OH232133   2.497   3.767  12.239  0.3224  0.3027  0.2436
 3573TIP3    H132134   2.468   3.851  12.275 -2.6576 -0.2238 -0.6445
 3573TIP3    H232135   2.573   3.790  12.185  0.3631  2.2221  1.0146
 3574TIP3   OH232136   1.205   3.831   1.139 -0.4868 -0.2466  0.1651
 3574TIP3    H132137   1.279   3.773   1.120 -0.3254 -0.0259  0.1167
 3574TIP3    H232138   1.141   3.810   1.070 -0.6711 -0.7802  0.4928
 3575TIP3   OH232139   2.276   3.256   0.589  0.4210 -0.5681  0.6162
 3575TIP3    H132140   2.191   3.300   0.598  0.7621  0.7128 -1.6417
 3575TIP3    H232141   2.279   3.228   0.498  1.8620 -1.8972  1.0232
 3576TIP3   OH232142   1.603   1.014  13.209 -0.7790  0.2655 -0.1248
 3576TIP3    H132143   1.690   1.040  13.239 -0.2614 -1.5245 -0.0204
 3576TIP3    H232144   1.582   1.077  13.140  0.6594  0.6163 -0.2670
 3577TIP3   OH232145   1.372   5.005   1.114 -0.0670  0.2457 -0.8588
 3577TIP3    H132146   1.418   4.937   1.164 -1.1498 -0.5610 -0.9178
 3577TIP3    H232147   1.371   4.972   1.024  1.2309  1.3484 -1.3079
 3578TIP3   OH232148   0.814   0.722  12.572  0.3368  0.5943 -0.3372
 3578TIP3    H132149   0.780   0.699  12.659  0.9082 -0.7929 -0.4573
 3578TIP3    H232150   0.744   0.696  12.512 -0.7323  2.9790 -0.2549
 3579TIP3   OH232151   5.539   0.842  13.807  0.5827 -0.2998 -0.0612
 3579TIP3    H132152   5.612   0.811  13.753  0.6469 -0.0597 -0.1137
 3579TIP3    H232153   5.567   0.928  13.837  0.9449 -0.8196  1.1317
 3580TIP3   OH232154   4.940   6.587   1.467  0.0773  0.0908 -0.2918
 3580TIP3    H132155   4.950   6.495   1.493 -2.4146 -0.3033 -0.4803
 3580TIP3    H232156   4.909   6.631   1.547 -0.5134  0.3830 -0.6743
 3581TIP3   OH232157   4.876   2.949  11.861  0.1180 -0.2998 -0.2548
 3581TIP3    H132158   4.946   2.919  11.919 -0.2067 -2.0187 -0.7094
 3581TIP3    H232159   4.796   2.918  11.902 -0.1941 -0.5262 -1.0262
 3582TIP3   OH232160   4.645   5.078  16.710 -0.3718  0.4179  0.4720
 3582TIP3    H132161   4.625   5.170  16.695  0.2486  0.2692 -1.5045
 3582TIP3    H232162   4.592   5.030  16.646  2.1847 -0.2864 -1.2691
 3583TIP3   OH232163   3.786   3.045   5.177 -0.4937  0.3069 -0.2174
 3583TIP3    H132164   3.746   3.126   5.145  0.8555  1.2855  0.4664
 3583TIP3    H232165   3.731   2.975   5.141 -2.0125  1.5308 -0.3800
 3584TIP3   OH232166   1.230   0.710  12.380  0.2092  0.5748 -0.1397
 3584TIP3    H132167   1.277   0.634  12.415  1.1007 -0.1729 -2.7798
 3584TIP3    H232168   1.235   0.700  12.285 -2.3158  2.3441 -0.5596
 3585TIP3   OH232169   6.135   1.778  11.742 -0.5453 -0.3385 -0.3557
 3585TIP3    H132170   6.199   1.789  11.812 -2.1294  0.3581  1.0435
 3585TIP3    H232171   6.097   1.691  11.757  0.5997 -1.1189 -1.6907
 3586TIP3   OH232172   2.375   0.139   3.487  0.4839 -0.1705 -0.6085
 3586TIP3    H132173   2.413   0.064   3.534 -2.7428  0.3631  3.4740
 3586TIP3    H232174   2.326   0.099   3.415 -2.8375 -2.6256  2.5865
 3587TIP3   OH232175   5.818   1.851   3.636  0.4808 -0.0091 -0.3345
 3587TIP3    H132176   5.881   1.783   3.658  0.0494 -0.5142 -0.6306
 3587TIP3    H232177   5.737   1.822   3.678  0.5612  0.8883  0.4779
 3588TIP3   OH232178   1.653   4.017  11.441  0.3568 -0.0025 -0.3294
 3588TIP3    H132179   1.688   4.088  11.494  0.2165 -1.8128  2.3587
 3588TIP3    H232180   1.720   4.000  11.375  1.3011  1.2206  0.2848
 3589TIP3   OH232181   4.916   1.127   1.837 -0.4653  0.2738 -0.1564
 3589TIP3    H132182   4.897   1.125   1.931 -1.0706  1.1026 -0.2566
 3589TIP3    H232183   5.007   1.154   1.832  0.4967 -2.5588  0.2806
 3590TIP3   OH232184   4.703   0.586   2.326  0.3492  0.2917 -0.1074
 3590TIP3    H132185   4.697   0.572   2.232  0.2442  0.7821 -0.1762
 3590TIP3    H232186   4.721   0.680   2.335 -3.1732  1.0457  0.4471
 3591TIP3   OH232187   6.762   5.346  14.121  1.1567 -0.0482 -0.2335
 3591TIP3    H132188   6.788   5.423  14.071 -1.6717  1.1092 -0.1431
 3591TIP3    H232189   6.781   5.272  14.063  0.6565  1.0343 -1.8634
 3592TIP3   OH232190   1.929   6.233   5.457 -0.6133  0.3671  0.5029
 3592TIP3    H132191   1.943   6.291   5.382  2.0361 -0.5132  0.2126
 3592TIP3    H232192   1.950   6.286   5.533  0.8233  0.1355  0.2999
 3593TIP3   OH232193   4.907   2.400   5.275  0.0149  0.3010 -0.1517
 3593TIP3    H132194   4.977   2.401   5.340 -0.5213  3.1009  0.5236
 3593TIP3    H232195   4.830   2.431   5.322 -0.9772  0.1126 -1.5759
 3594TIP3   OH232196   0.814   4.171   0.344  0.3174 -0.3795  0.0485
 3594TIP3    H132197   0.741   4.108   0.339  1.0083 -1.2348  0.4818
 3594TIP3    H232198   0.882   4.125   0.393  0.8886  0.6748  0.2784
 3595TIP3   OH232199   2.573   2.072   6.061  0.4241  0.6337 -0.1168
 3595TIP3    H132200   2.635   2.096   5.993  0.7717 -0.1354 -0.0866
 3595TIP3    H232201   2.491   2.056   6.014  1.0579 -1.4870 -0.6142
 3596TIP3   OH232202   4.117   3.832   2.154  0.1524 -0.6303 -0.0613
 3596TIP3    H132203   4.089   3.837   2.245  0.5936  1.1213  0.0228
 3596TIP3    H232204   4.186   3.899   2.146  0.4785 -1.0969 -1.5535
 3597TIP3   OH232205   4.875   4.203   5.710 -0.2387 -0.4269  0.4607
 3597TIP3    H132206   4.912   4.115   5.715 -0.1835 -0.3936  0.6698
 3597TIP3    H232207   4.784   4.193   5.739 -0.3926 -0.5065 -0.0397
 3598TIP3   OH232208   4.885   1.767  12.796 -0.1792 -0.2375  0.1933
 3598TIP3    H132209   4.825   1.733  12.729  0.2534 -1.3698  0.3551
 3598TIP3    H232210   4.967   1.781  12.749  0.0923 -0.9247  0.4485
 3599TIP3   OH232211   3.892   5.930   0.983  0.1218  0.1724 -0.1144
 3599TIP3    H132212   3.940   5.999   0.936 -1.5613  1.9939  0.6595
 3599TIP3    H232213   3.814   5.915   0.929  1.2061 -2.4235 -1.1347
 3600TIP3   OH232214   1.354   3.849   2.128 -0.3251  0.2369  0.4705
 3600TIP3    H132215   1.423   3.782   2.136 -1.4879 -0.9191  1.2451
 3600TIP3    H232216   1.399   3.926   2.094  0.7627 -1.4617 -2.2917
 3601TIP3   OH232217   0.587   6.025  15.897 -0.7509  0.0640  0.0679
 3601TIP3    H132218   0.652   6.093  15.882  0.0731 -0.5514  0.7420
 3601TIP3    H232219   0.592   6.007  15.991 -0.3866 -1.4512 -0.2095
 3602TIP3   OH232220   0.256   2.464   0.230  0.0796  0.3673  0.0865
 3602TIP3    H132221   0.278   2.371   0.229  0.6852  0.5070 -0.0400
 3602TIP3    H232222   0.220   2.480   0.142 -2.0125 -0.1929  0.7896
 3603TIP3   OH232223   5.604   0.121   6.191 -0.1601 -0.2656  0.8286
 3603TIP3    H132224   5.583   0.094   6.280  1.5365 -0.6309  1.1359
 3603TIP3    H232225   5.621   0.039   6.144 -0.1074 -0.0165  0.4064
 3604TIP3   OH232226   2.950   0.991  14.492 -0.7703 -0.0919  0.1174
 3604TIP3    H132227   2.996   0.920  14.537  0.8132  0.7476 -0.0784
 3604TIP3    H232228   2.927   1.052  14.561 -0.9585 -0.1763  0.1295
 3605TIP3   OH232229   5.766   2.136   0.106  0.0353  0.1636 -0.5264
 3605TIP3    H132230   5.847   2.182   0.129  0.6977 -0.6384 -1.1653
 3605TIP3    H232231   5.696   2.198   0.127  0.8646  1.2653 -0.9238
 3606TIP3   OH232232   0.550   4.596   1.616  0.1286  0.1939  0.5947
 3606TIP3    H132233   0.564   4.544   1.696  0.0799 -0.2026  0.3487
 3606TIP3    H232234   0.638   4.614   1.584  0.1363 -1.5470 -0.4703
 3607TIP3   OH232235   1.502   3.445   1.638  1.1725  0.0115 -0.7271
 3607TIP3    H132236   1.449   3.522   1.619  0.4182 -0.6934 -1.5958
 3607TIP3    H232237   1.439   3.373   1.644  1.9383 -0.6841 -0.8149
 3608TIP3   OH232238   5.235   1.478  14.342 -0.5838 -0.4226 -0.0432
 3608TIP3    H132239   5.252   1.471  14.248  3.0061 -1.3225  0.5290
 3608TIP3    H232240   5.222   1.388  14.371 -1.0607 -0.2027  0.4462
 3609TIP3   OH232241   5.315   1.731   0.389 -0.5410 -0.1325  0.2348
 3609TIP3    H132242   5.291   1.706   0.300 -1.1645  1.5983 -0.1239
 3609TIP3    H232243   5.296   1.825   0.394  1.1871  0.2078  1.6203
 3610TIP3   OH232244   6.171   3.996  13.606  0.0242  0.3532 -0.2549
 3610TIP3    H132245   6.201   3.945  13.531  0.2243 -2.2192  1.4537
 3610TIP3    H232246   6.077   4.003  13.594  0.2934  2.0619 -1.8868
 3611TIP3   OH232247   5.062   4.073  11.819 -0.0008  0.4721 -0.2156
 3611TIP3    H132248   5.149   4.073  11.859 -0.3647  0.9503  0.5766
 3611TIP3    H232249   5.015   4.143  11.862 -1.3143 -0.8098  0.5173
 3612TIP3   OH232250   1.141   5.519   2.200  0.4650 -0.0974  0.0873
 3612TIP3    H132251   1.214   5.529   2.139 -0.8423  0.7846 -1.4222
 3612TIP3    H232252   1.074   5.580   2.168 -1.1850 -1.3089  1.0382
 3613TIP3   OH232253   5.913   4.559   6.389  0.3635  0.7697  0.5517
 3613TIP3    H132254   5.993   4.509   6.374  1.2858  1.9580  1.3636
 3613TIP3    H232255   5.904   4.564   6.484 -2.5875 -2.2182  0.6417
 3614TIP3   OH232256   2.931   6.475   1.546  0.1716 -0.0739 -0.0288
 3614TIP3    H132257   2.838   6.495   1.542  0.2295  0.0903 -0.7564
 3614TIP3    H232258   2.937   6.394   1.597 -0.1604  1.1687  2.1281
 3615TIP3   OH232259   1.047   4.391  11.568  0.2396 -0.0280  0.4916
 3615TIP3    H132260   1.134   4.357  11.547  0.5477 -0.0483  1.7647
 3615TIP3    H232261   1.013   4.331  11.634 -0.7640 -0.0361 -0.0238
 3616TIP3   OH232262   0.944   0.611  15.027 -0.2095 -0.2190 -0.1011
 3616TIP3    H132263   0.946   0.524  15.066  2.1216  0.1796  0.8146
 3616TIP3    H232264   1.026   0.652  15.054 -0.2252  1.4824 -2.3083
 3617TIP3   OH232265   2.952   5.237  12.717  0.0419 -0.2612  0.3627
 3617TIP3    H132266   2.898   5.188  12.655  1.2635 -2.2328  0.7457
 3617TIP3    H232267   2.990   5.169  12.774  0.1730  1.3488  2.2968
 3618TIP3   OH232268   0.338   1.844  16.075  0.5702 -0.7689  0.5362
 3618TIP3    H132269   0.340   1.764  16.127  2.0379 -2.8548 -2.4550
 3618TIP3    H232270   0.413   1.895  16.106  0.5589 -1.2559  1.4074
 3619TIP3   OH232271   0.888   2.625   2.733 -0.1666 -0.6111 -0.1598
 3619TIP3    H132272   0.904   2.644   2.825 -0.1426 -1.1761 -0.0432
 3619TIP3    H232273   0.792   2.621   2.726 -0.1593 -1.9312  0.1424
 3620TIP3   OH232274   5.503   0.270   3.190  0.3845 -0.3579 -0.7137
 3620TIP3    H132275   5.486   0.341   3.129  0.5816  0.8860  0.6195
 3620TIP3    H232276   5.563   0.212   3.143  0.5885  0.5918 -1.6684
 3621TIP3   OH232277   5.129   2.593   5.725  0.1092  0.0274  0.2863
 3621TIP3    H132278   5.082   2.643   5.791 -0.5021 -1.0840  0.7176
 3621TIP3    H232279   5.221   2.599   5.751  0.1922  1.7891 -0.2760
 3622TIP3   OH232280   5.151   1.658  16.578 -0.3261  0.1055  0.3338
 3622TIP3    H132281   5.113   1.576  16.609 -1.2269  0.4723  0.2485
 3622TIP3    H232282   5.080   1.722  16.588 -0.0653  0.5988 -0.8233
 3623TIP3   OH232283   4.971   2.334  12.602 -0.6162  0.1401 -0.3087
 3623TIP3    H132284   5.029   2.260  12.620 -0.6646 -0.0555 -0.9246
 3623TIP3    H232285   4.997   2.401  12.666 -0.6095 -0.4220  0.2956
 3624TIP3   OH232286   1.587   6.751  12.051  0.0983 -0.6800 -0.2741
 3624TIP3    H132287   1.520   6.711  12.106 -0.9013 -2.0335 -2.3448
 3624TIP3    H232288   1.587   6.844  12.077 -1.8792 -0.8502  0.4710
 3625TIP3   OH232289   0.034   1.292  12.425 -0.6541  0.1843  0.1367
 3625TIP3    H132290   0.113   1.341  12.399 -0.8492  0.8292  0.7043
 3625TIP3    H232291   0.054   1.201  12.404 -1.0428  0.6745 -2.8244
 3626TIP3   OH232292   0.445   6.382  10.928 -0.2658  0.4261 -0.2129
 3626TIP3    H132293   0.507   6.315  10.957  1.1551  1.8390  0.1104
 3626TIP3    H232294   0.456   6.385  10.833 -0.7401 -0.1475 -0.2984
 3627TIP3   OH232295   2.803   6.641   4.863  0.2843  0.3091 -0.0191
 3627TIP3    H132296   2.779   6.557   4.902 -2.5164  0.8507 -0.3384
 3627TIP3    H232297   2.772   6.706   4.927  0.6684  1.1141 -0.6383
 3628TIP3   OH232298   6.503   0.601  11.771  0.2138 -0.2163 -0.1303
 3628TIP3    H132299   6.568   0.659  11.730 -1.4391  0.5329 -1.8757
 3628TIP3    H232300   6.496   0.527  11.710  0.6610 -1.1918  0.9515
 3629TIP3   OH232301   2.299   3.723   5.961 -0.1676  0.6543  0.1383
 3629TIP3    H132302   2.328   3.793   6.019  2.4342 -0.4166  0.2566
 3629TIP3    H232303   2.376   3.667   5.950 -0.4439  0.7678 -4.4042
 3630TIP3   OH232304   0.711   1.707   2.647  0.1923 -0.4439  0.2810
 3630TIP3    H132305   0.708   1.626   2.595  2.3608 -0.3091 -0.1632
 3630TIP3    H232306   0.667   1.772   2.592 -2.1807 -1.4095  0.9269
 3631TIP3   OH232307   0.758   3.917   4.648  0.9898  0.3414 -0.7456
 3631TIP3    H132308   0.820   3.849   4.672  0.7413  0.0061 -1.0477
 3631TIP3    H232309   0.673   3.874   4.649  0.9915  0.2071 -2.5330
 3632TIP3   OH232310   1.571   5.536   2.651  0.3827 -0.1703  0.1838
 3632TIP3    H132311   1.641   5.599   2.631  0.7127 -0.8501 -0.8631
 3632TIP3    H232312   1.603   5.490   2.729  0.9841 -0.2718 -0.1129
 3633TIP3   OH232313   0.567   4.629   0.286 -0.0404 -0.3743  0.0643
 3633TIP3    H132314   0.595   4.543   0.318 -2.2686 -1.4660 -0.6934
 3633TIP3    H232315   0.472   4.626   0.291 -0.1990  1.7870 -0.7517
 3634TIP3   OH232316   3.494   1.115  12.500 -0.2140 -0.0351  0.3474
 3634TIP3    H132317   3.519   1.180  12.566  0.1195 -1.0982  1.3086
 3634TIP3    H232318   3.561   1.047  12.507  1.1653  0.8199 -2.6730
 3635TIP3   OH232319   2.919   4.485   3.056  0.3388 -0.3917 -0.9031
 3635TIP3    H132320   2.944   4.530   2.976  2.4286 -1.5279 -0.9691
 3635TIP3    H232321   2.985   4.513   3.120 -1.5528  0.8649  0.6094
 3636TIP3   OH232322   1.491   4.928   3.659  0.0969 -0.0965 -0.1908
 3636TIP3    H132323   1.468   5.019   3.642  0.2690 -0.0222 -0.0357
 3636TIP3    H232324   1.426   4.899   3.722 -0.0371 -0.1192 -0.3410
 3637TIP3   OH232325   0.771   2.806  13.889 -0.1889  0.3956 -0.0678
 3637TIP3    H132326   0.842   2.862  13.920 -0.4085  0.3407  0.5506
 3637TIP3    H232327   0.752   2.748  13.963  1.4579 -1.9432 -1.3696
 3638TIP3   OH232328   2.544   5.575  17.323  0.1119 -0.0812 -0.3600
 3638TIP3    H132329   2.460   5.574  17.276  0.4109 -1.1601 -0.9063
 3638TIP3    H232330   2.587   5.656  17.294 -0.4802  0.1786 -0.5328
 3639TIP3   OH232331   6.393   6.769   2.716  0.2713  0.2935 -0.2105
 3639TIP3    H132332   6.484   6.744   2.736  0.0581  0.9847  1.8747
 3639TIP3    H232333   6.357   6.797   2.801 -1.4802  1.3334 -1.2435
 3640TIP3   OH232334   0.847   6.146   2.802 -0.0192 -0.0344 -0.1413
 3640TIP3    H132335   0.864   6.052   2.801  2.1181  0.2805  0.6557
 3640TIP3    H232336   0.823   6.164   2.893  1.2413  0.4022  0.1285
 3641TIP3   OH232337   3.253   0.245   3.443  0.4051 -0.1606  0.9066
 3641TIP3    H132338   3.226   0.337   3.435  0.8820 -0.1563 -1.0704
 3641TIP3    H232339   3.172   0.198   3.463 -0.1268  0.5049  0.3734
 3642TIP3   OH232340   1.689   3.265  13.470 -0.0409 -0.0547  0.2832
 3642TIP3    H132341   1.603   3.251  13.430  0.6582  0.0443 -1.3311
 3642TIP3    H232342   1.715   3.353  13.441  1.6608 -1.0405 -1.3903
 3643TIP3   OH232343   1.314   2.967   4.765 -0.0332  0.1380  0.1488
 3643TIP3    H132344   1.348   2.922   4.687 -1.7171 -0.2563 -0.3980
 3643TIP3    H232345   1.337   3.059   4.751 -0.2398  0.0605 -0.7959
 3644TIP3   OH232346   0.255   3.969   4.360 -0.6573 -0.5521  0.0094
 3644TIP3    H132347   0.163   3.967   4.334 -1.1806 -1.3336  1.7587
 3644TIP3    H232348   0.255   3.942   4.452  1.2127  0.5452  0.3993
 3645TIP3   OH232349   3.864   2.462   6.053 -0.3462 -0.0127 -0.0395
 3645TIP3    H132350   3.864   2.458   5.957 -0.1408 -3.6715 -0.0528
 3645TIP3    H232351   3.773   2.479   6.076 -0.3386  1.2347 -0.8674
 3646TIP3   OH232352   1.516   2.185  12.508 -0.0008  0.3008  0.0772
 3646TIP3    H132353   1.459   2.150  12.440 -0.6501 -0.6498  1.0864
 3646TIP3    H232354   1.604   2.181  12.470 -0.4336  0.5051 -0.9845
 3647TIP3   OH232355   5.263   3.641  14.481  0.1374 -0.2420  0.1574
 3647TIP3    H132356   5.202   3.676  14.417 -0.1385  0.1210  0.6160
 3647TIP3    H232357   5.313   3.717  14.510 -1.8773  0.2177  2.7212
 3648TIP3   OH232358   2.413   2.784   1.959 -0.0813  0.2389  0.4435
 3648TIP3    H132359   2.321   2.758   1.956  0.0946 -0.7919  2.2863
 3648TIP3    H232360   2.435   2.807   1.869 -2.0480  0.1834 -0.0871
 3649TIP3   OH232361   2.916   6.692   6.120  0.2795 -0.0351  0.0085
 3649TIP3    H132362   2.957   6.636   6.054  0.9898 -0.0233  0.4336
 3649TIP3    H232363   2.968   6.678   6.199 -0.1797  0.4314  0.4004
 3650TIP3   OH232364   1.911   1.457   0.743 -0.6069  0.0744  0.1037
 3650TIP3    H132365   1.849   1.525   0.770  0.1412 -0.2690  3.0502
 3650TIP3    H232366   1.888   1.382   0.797  2.7851  0.1788  1.9956
 3651TIP3   OH232367   0.854   0.188   5.465  0.3614 -0.4091  0.1510
 3651TIP3    H132368   0.805   0.193   5.383 -1.4034  1.2666  1.2348
 3651TIP3    H232369   0.790   0.158   5.530  1.8273 -2.1567  0.9080
 3652TIP3   OH232370   1.635   6.619  16.028  0.3083  0.1020  0.0776
 3652TIP3    H132371   1.657   6.594  16.118 -1.4630  3.1076  1.5063
 3652TIP3    H232372   1.681   6.702  16.014 -0.8021  0.5541 -1.1200
 3653TIP3   OH232373   2.469   4.361   1.168  0.0505  0.5456 -0.5527
 3653TIP3    H132374   2.435   4.388   1.253  3.9589 -0.8581  1.7596
 3653TIP3    H232375   2.453   4.267   1.164  0.9869  0.3787 -0.7346
 3654TIP3   OH232376   0.663   0.193  15.769  0.3366 -0.2071 -0.3714
 3654TIP3    H132377   0.610   0.120  15.802 -0.2797 -0.1277 -1.1556
 3654TIP3    H232378   0.635   0.203  15.678  1.4007  0.1182 -0.6744
 3655TIP3   OH232379   4.002   4.598  12.376  0.6281 -0.3121 -0.3851
 3655TIP3    H132380   4.071   4.664  12.372 -1.4873  2.0533 -0.7126
 3655TIP3    H232381   3.923   4.644  12.347 -0.9629 -3.0939 -0.8491
 3656TIP3   OH232382   6.254   6.750  13.572 -0.6437  0.8891 -0.0617
 3656TIP3    H132383   6.307   6.786  13.643 -1.6236  2.2838  0.0100
 3656TIP3    H232384   6.274   6.656  13.572 -0.9057  0.7635  2.3127
 3657TIP3   OH232385   2.464   3.156  11.563  0.4513 -0.0221  0.2890
 3657TIP3    H132386   2.469   3.061  11.573 -0.3088 -0.0041  0.9245
 3657TIP3    H232387   2.376   3.179  11.591  0.4378  0.8154 -0.3856
 3658TIP3   OH232388   6.084   2.113  11.355 -0.0244 -0.2330 -0.2354
 3658TIP3    H132389   5.998   2.140  11.322 -0.2389  0.4551  0.8622
 3658TIP3    H232390   6.066   2.037  11.410  0.0372  0.0621  0.1956
 3659TIP3   OH232391   4.683   5.332   1.341  0.3653  0.3480 -0.2257
 3659TIP3    H132392   4.758   5.279   1.366 -0.2638 -1.9215 -2.6818
 3659TIP3    H232393   4.676   5.322   1.246 -2.5147  1.1521 -0.2144
 3660TIP3   OH232394   0.015   4.601   1.462 -0.0622 -0.2575  0.1268
 3660TIP3    H132395   0.061   4.520   1.482  2.4337  1.2288  0.8460
 3660TIP3    H232396  -0.047   4.612   1.534 -0.8980 -1.7739 -0.3048
 3661TIP3   OH232397   1.357   2.914   2.614 -0.0471  0.5316 -0.5321
 3661TIP3    H132398   1.298   2.853   2.570  0.2748  0.9008 -1.4999
 3661TIP3    H232399   1.304   2.992   2.631 -0.0414  0.5796 -0.7311
 3662TIP3   OH232400   6.455   6.684  16.019  0.0361 -0.2896  0.1566
 3662TIP3    H132401   6.474   6.777  16.016  0.8929 -0.4287  0.9237
 3662TIP3    H232402   6.439   6.659  15.928  0.5498  0.4525 -0.1414
 3663TIP3   OH232403   1.962   3.401  10.165  0.4577  0.0763 -0.4863
 3663TIP3    H132404   1.889   3.450  10.127  0.4724  1.0557  0.6873
 3663TIP3    H232405   2.036   3.461  10.159  0.4250  0.3398  1.1987
 3664TIP3   OH232406   2.032   1.342  13.520 -0.0681  0.3618  0.4750
 3664TIP3    H132407   2.003   1.256  13.551 -1.4184  0.5395 -0.2107
 3664TIP3    H232408   2.125   1.330  13.501 -0.3226 -1.0839 -0.0463
 3665TIP3   OH232409   0.448   5.312  15.651  0.1427 -0.2147  0.1426
 3665TIP3    H132410   0.472   5.237  15.596 -2.9411 -1.2633  0.0385
 3665TIP3    H232411   0.383   5.360  15.600 -0.3591  0.6644  1.5357
 3666TIP3   OH232412   5.211   3.637  12.917 -0.0714  0.0017 -0.2861
 3666TIP3    H132413   5.298   3.596  12.922  0.6890  1.7002  2.1574
 3666TIP3    H232414   5.227   3.723  12.880 -1.1398 -0.5046 -2.0467
 3667TIP3   OH232415   6.603   2.420  11.173 -0.1957  0.2388 -0.1772
 3667TIP3    H132416   6.597   2.325  11.164 -0.2577  0.1539  0.7056
 3667TIP3    H232417   6.534   2.454  11.116  0.5938 -0.1866 -1.4242
 3668TIP3   OH232418   2.657   0.258  13.515 -0.1366  0.1080  0.3432
 3668TIP3    H132419   2.651   0.285  13.607 -1.6633 -0.3891  0.4125
 3668TIP3    H232420   2.693   0.334  13.470  0.1824  0.5225  1.2812
 3669TIP3   OH232421   6.685   3.777   0.663  0.6000  0.1051  0.0057
 3669TIP3    H132422   6.703   3.687   0.689 -0.3955  0.1195  0.8187
 3669TIP3    H232423   6.729   3.788   0.579 -0.7067 -1.7008 -0.9658
 3670TIP3   OH232424   5.429   1.241   3.299  0.0435  0.0641 -0.4211
 3670TIP3    H132425   5.372   1.313   3.272  0.1886  0.1997 -0.3661
 3670TIP3    H232426   5.375   1.189   3.358 -0.2038 -0.1113 -0.7928
 3671TIP3   OH232427   2.757   3.279   5.398  0.0424 -0.5515  0.6988
 3671TIP3    H132428   2.674   3.290   5.444  1.0306  1.0021  2.2538
 3671TIP3    H232429   2.775   3.365   5.360  1.4264 -0.5282  1.3377
 3672TIP3   OH232430   5.580   0.994   6.212  0.4996 -0.3088 -0.1174
 3672TIP3    H132431   5.540   0.996   6.125  1.8835 -0.2590 -0.7819
 3672TIP3    H232432   5.529   0.930   6.261 -0.6802  0.0999 -0.7650
 3673TIP3   OH232433   4.773   3.511  12.550  0.3781  0.6546  0.9120
 3673TIP3    H132434   4.719   3.496  12.627 -1.3044 -0.9854 -0.4775
 3673TIP3    H232435   4.814   3.426  12.533  0.1614  0.7716 -0.3453
 3674TIP3   OH232436   1.490   3.394   1.979  0.2332 -0.2681  0.1130
 3674TIP3    H132437   1.516   3.319   1.925 -1.1926  1.1196 -2.7491
 3674TIP3    H232438   1.408   3.424   1.940 -0.1016  1.8085  2.1915
 3675TIP3   OH232439   3.364   3.706  14.900  0.4333  0.3982 -0.1810
 3675TIP3    H132440   3.451   3.745  14.909  0.3798  0.6685 -0.8283
 3675TIP3    H232441   3.359   3.643  14.972  0.4970  1.6028  0.9057
 3676TIP3   OH232442   0.160   5.634  13.753 -0.5028  0.0583  0.0533
 3676TIP3    H132443   0.093   5.699  13.773 -0.6226  0.2830 -1.0460
 3676TIP3    H232444   0.213   5.674  13.684  0.4066 -0.3622  0.4882
 3677TIP3   OH232445   6.711   0.973  14.165 -0.2528 -0.0797 -0.1150
 3677TIP3    H132446   6.737   0.899  14.220 -0.5547 -0.5815 -0.6360
 3677TIP3    H232447   6.710   0.938  14.076  1.8137  1.1223 -0.6688
 3678TIP3   OH232448   5.467   4.904   2.949 -1.1246 -0.2902  0.0818
 3678TIP3    H132449   5.426   4.974   2.897 -1.1841 -0.2842  0.1372
 3678TIP3    H232450   5.538   4.947   2.995 -3.4838  0.6491  3.1987
 3679TIP3   OH232451   2.629   2.010   1.869 -0.2872  0.4606 -0.0917
 3679TIP3    H132452   2.656   2.003   1.960  1.0415  1.1236 -0.4011
 3679TIP3    H232453   2.656   2.099   1.843 -0.6355  0.2812 -1.1275
 3680TIP3   OH232454   2.620   1.045   0.362 -0.6087 -0.5058  0.1371
 3680TIP3    H132455   2.584   1.066   0.448  1.2469  0.3313  0.7655
 3680TIP3    H232456   2.644   0.952   0.368  0.8351 -0.1078  1.0812
 3681TIP3   OH232457   0.514   4.379  16.146 -0.2767  0.3204 -0.0056
 3681TIP3    H132458   0.519   4.332  16.063 -0.6338 -0.5638  0.4686
 3681TIP3    H232459   0.571   4.330  16.205 -1.4466 -0.1273  0.7787
 3682TIP3   OH232460   0.808   0.426  15.611 -0.9159  0.0781  0.7315
 3682TIP3    H132461   0.762   0.504  15.580  2.3237  1.7077 -0.5139
 3682TIP3    H232462   0.859   0.396  15.536 -0.0998 -1.6859  1.9137
 3683TIP3   OH232463   2.631   0.747   0.034  0.1143 -0.2554  0.6108
 3683TIP3    H132464   2.559   0.769  -0.024 -1.5507 -2.2911  1.7562
 3683TIP3    H232465   2.704   0.729  -0.025 -1.6003 -2.6196 -0.9959
 3684TIP3   OH232466   4.630   0.964  15.876 -0.1840 -0.1052 -0.2677
 3684TIP3    H132467   4.547   0.918  15.891  0.0098  0.2475  2.4112
 3684TIP3    H232468   4.697   0.896  15.880 -0.2645 -0.3364 -2.0664
 3685TIP3   OH232469   4.605   6.536  16.997 -0.6137 -0.1492 -0.2125
 3685TIP3    H132470   4.685   6.526  16.945  0.0445  0.5861  0.6300
 3685TIP3    H232471   4.535   6.505  16.939  0.1632  0.0756 -1.3047
 3686TIP3   OH232472   5.699   4.721   5.429  0.0789 -0.0015 -0.3136
 3686TIP3    H132473   5.735   4.766   5.506  0.0013  1.1842 -0.9551
 3686TIP3    H232474   5.606   4.709   5.449  0.2733 -0.6545  0.2193
 3687TIP3   OH232475   2.669   5.733   0.393 -0.7066 -0.9256  0.3305
 3687TIP3    H132476   2.722   5.741   0.313 -1.9652 -1.8037 -0.6268
 3687TIP3    H232477   2.654   5.823   0.421 -0.1504 -0.6096 -0.3500
 3688TIP3   OH232478   0.420   6.623   5.842  0.5800  0.0077  0.5241
 3688TIP3    H132479   0.365   6.650   5.916  0.6824 -0.6631  0.8575
 3688TIP3    H232480   0.510   6.644   5.870  0.5867  0.0875  0.4415
 3689TIP3   OH232481   1.726   3.811  11.610 -0.2218 -0.0040  0.0040
 3689TIP3    H132482   1.780   3.875  11.657  0.0370  0.1879 -0.5435
 3689TIP3    H232483   1.709   3.852  11.525 -2.0082  0.3456  0.4881
 3690TIP3   OH232484   0.711   1.297   4.017  0.1239 -0.3084 -0.0917
 3690TIP3    H132485   0.794   1.293   3.968 -0.5334 -1.7444 -1.1705
 3690TIP3    H232486   0.700   1.208   4.052 -0.2857  0.2464  1.2321
 3691TIP3   OH232487   2.571   2.360  15.198 -0.2772  0.1689 -0.2375
 3691TIP3    H132488   2.667   2.364  15.196 -0.2240 -0.8673 -0.2861
 3691TIP3    H232489   2.544   2.397  15.114 -0.0259  2.4250  0.6260
 3692TIP3   OH232490   3.425   4.186  11.412 -0.5291 -0.2438  0.5862
 3692TIP3    H132491   3.446   4.271  11.373  0.9885 -1.1187 -0.6448
 3692TIP3    H232492   3.458   4.192  11.502 -0.2318  0.4054  0.4419
 3693TIP3   OH232493   6.015   2.746   4.003 -0.0641  0.4820  0.0201
 3693TIP3    H132494   6.110   2.747   3.991  0.1016  0.3245  1.2274
 3693TIP3    H232495   5.987   2.667   3.957  0.3888  0.4921 -0.2877
 3694TIP3   OH232496   2.010   2.768  12.346  0.1867 -0.6189  0.1704
 3694TIP3    H132497   2.066   2.739  12.418  1.8541  0.3699 -0.6627
 3694TIP3    H232498   1.966   2.688  12.317  1.3273 -1.4889  0.7332
 3695TIP3   OH232499   4.906   3.242  17.314 -0.2491  0.5313 -0.4240
 3695TIP3    H132500   4.816   3.256  17.344 -0.0690 -1.4620  1.2685
 3695TIP3    H232501   4.909   3.151  17.286  1.4920  0.2355  0.5797
 3696TIP3   OH232502   0.144   3.489  13.088 -0.2523 -0.1277  0.0983
 3696TIP3    H132503   0.169   3.569  13.135  0.0631  0.8607 -1.6512
 3696TIP3    H232504   0.055   3.470  13.117  0.7312 -0.9601  2.8527
 3697TIP3   OH232505   4.901   1.204   3.328 -0.3884 -0.0646 -0.3784
 3697TIP3    H132506   4.965   1.215   3.257  0.0899  0.2315  0.0914
 3697TIP3    H232507   4.850   1.285   3.327 -0.6860 -0.2513 -0.6755
 3698TIP3   OH232508   1.781   4.895   3.621  0.4577 -0.1818 -0.0307
 3698TIP3    H132509   1.693   4.930   3.609  0.4926  0.0249  0.3037
 3698TIP3    H232510   1.839   4.970   3.608  0.7079 -0.6652 -2.0424
 3699TIP3   OH232511   6.393   4.727  14.872 -0.0705 -0.3372 -0.2216
 3699TIP3    H132512   6.473   4.746  14.823 -1.1026  0.7619 -1.5870
 3699TIP3    H232513   6.362   4.644  14.838 -0.1590 -0.1552 -0.5859
 3700TIP3   OH232514   4.203   5.417   4.702 -0.4213 -0.4206  0.1235
 3700TIP3    H132515   4.206   5.326   4.671  0.3817 -0.2449 -0.3625
 3700TIP3    H232516   4.219   5.469   4.624 -2.2805  0.2174  0.1414
 3701TIP3   OH232517   4.169   3.656  14.597 -0.3308  0.0518  0.6148
 3701TIP3    H132518   4.134   3.662  14.685  2.3644  1.4033  1.6966
 3701TIP3    H232519   4.260   3.628  14.608 -0.2002 -0.7815 -1.8283
 3702TIP3   OH232520   3.354   1.090   2.729 -0.8642 -0.0634 -0.0238
 3702TIP3    H132521   3.282   1.058   2.675 -1.5209 -0.7766  1.2187
 3702TIP3    H232522   3.312   1.132   2.803 -0.0643 -1.5838  1.3673
 3703TIP3   OH232523   6.147   4.216   4.279  0.2508 -0.5421 -0.6317
 3703TIP3    H132524   6.227   4.222   4.332  0.3456  1.0628 -0.9040
 3703TIP3    H232525   6.157   4.286   4.214 -0.9492 -0.9459 -1.2660
 3704TIP3   OH232526   2.151   1.109   4.511 -0.2636  0.0844 -0.4666
 3704TIP3    H132527   2.216   1.179   4.513 -1.2899  1.0452 -0.3187
 3704TIP3    H232528   2.071   1.150   4.478 -1.0272 -0.8975  0.0932
 3705TIP3   OH232529   6.063   0.913   1.574 -0.2590 -0.1928 -0.5358
 3705TIP3    H132530   6.104   0.830   1.553 -0.8364 -0.0403 -2.4322
 3705TIP3    H232531   6.117   0.979   1.530  0.6836  0.5849  1.6158
 3706TIP3   OH232532   1.015   1.911  14.713  0.0260 -0.7415 -0.3839
 3706TIP3    H132533   0.947   1.973  14.739  0.2230 -0.7488  0.1644
 3706TIP3    H232534   1.039   1.866  14.793  0.3055 -1.1123 -0.6711
 3707TIP3   OH232535   2.673   4.713   1.617 -0.2989  0.1019 -0.1752
 3707TIP3    H132536   2.613   4.785   1.601 -1.7186 -0.4656  2.1582
 3707TIP3    H232537   2.737   4.748   1.678 -0.2369 -0.2493 -0.0360
 3708TIP3   OH232538   4.703   5.320  14.901 -0.2404 -0.0057  0.5255
 3708TIP3    H132539   4.689   5.387  14.834 -0.2147 -1.4668 -0.9974
 3708TIP3    H232540   4.754   5.365  14.969  0.7906  1.2179 -0.9760
 3709TIP3   OH232541   5.472   3.788  13.108 -0.4159 -0.1582  0.6186
 3709TIP3    H132542   5.472   3.701  13.147  1.2507 -0.6363 -0.3499
 3709TIP3    H232543   5.466   3.848  13.182  4.9885 -0.9492  2.0922
 3710TIP3   OH232544   5.193   5.230   3.185 -0.0955 -0.6079 -0.3270
 3710TIP3    H132545   5.154   5.143   3.183  1.2799 -1.2477 -2.3399
 3710TIP3    H232546   5.281   5.218   3.151  0.9985  1.2047  1.5965
 3711TIP3   OH232547   4.134   5.167  16.103 -0.5012  0.3753  0.5207
 3711TIP3    H132548   4.216   5.125  16.078 -1.1498 -0.4333 -0.2982
 3711TIP3    H232549   4.146   5.189  16.196  2.0482  3.6237 -0.3756
 3712TIP3   OH232550   3.269   6.035  14.175  0.3124  0.3037 -0.4765
 3712TIP3    H132551   3.342   5.981  14.144  1.1141 -0.2502  2.0509
 3712TIP3    H232552   3.292   6.124  14.149  1.0636 -0.0719 -1.1374
 3713TIP3   OH232553   6.730   1.435  13.700 -0.3981 -0.2568  0.1994
 3713TIP3    H132554   6.783   1.390  13.634 -0.5456 -0.2695  0.0901
 3713TIP3    H232555   6.655   1.378  13.714 -0.2772 -0.3422  0.5121
 3714TIP3   OH232556   6.249   6.125   4.968 -0.5191 -0.3784  0.0789
 3714TIP3    H132557   6.323   6.065   4.957  0.2856  0.0919  2.3498
 3714TIP3    H232558   6.283   6.210   4.943  0.4493  0.1977  2.9463
 3715TIP3   OH232559   4.641   4.162  12.666 -0.2289  0.0550 -0.2995
 3715TIP3    H132560   4.729   4.133  12.690  0.1246  0.1626 -1.4075
 3715TIP3    H232561   4.583   4.095  12.702  0.1157  0.9481  2.1308
 3716TIP3   OH232562   1.747   4.625  16.468  0.3669  0.8182 -0.0046
 3716TIP3    H132563   1.816   4.581  16.518 -0.2967 -1.5623 -1.0558
 3716TIP3    H232564   1.695   4.670  16.535 -0.4670 -2.1979  1.5580
 3717TIP3   OH232565   3.591   0.026   0.741 -0.3636  0.0371 -0.1141
 3717TIP3    H132566   3.551  -0.038   0.683  0.1056 -1.6214  1.2919
 3717TIP3    H232567   3.685   0.021   0.722 -0.2402 -0.2904  0.5312
 3718TIP3   OH232568   1.372   0.610  13.369  0.8421 -0.1242  0.6025
 3718TIP3    H132569   1.353   0.687  13.316  0.1321 -0.7115 -0.0299
 3718TIP3    H232570   1.468   0.602  13.367  1.2462  2.3713  3.0853
 3719TIP3   OH232571   1.359   0.913   1.880  0.0001  0.3655 -0.0327
 3719TIP3    H132572   1.306   0.992   1.895  0.4292  0.8681 -1.0987
 3719TIP3    H232573   1.304   0.857   1.826 -0.3699 -0.1617  0.8607
 3720TIP3   OH232574   2.815   5.442  13.499 -0.1976 -0.1227  0.4347
 3720TIP3    H132575   2.779   5.372  13.553 -1.0903 -0.7745 -0.9473
 3720TIP3    H232576   2.797   5.522  13.548 -0.3728 -0.7558  1.4183
 3721TIP3   OH232577   0.777   6.124   3.065 -0.3326 -0.3711  0.4505
 3721TIP3    H132578   0.696   6.152   3.108 -0.6904 -2.9070  1.6042
 3721TIP3    H232579   0.846   6.168   3.114 -0.9443  2.0399 -0.7139
 3722TIP3   OH232580   4.636   1.504   4.613  0.4262  0.1531  0.5318
 3722TIP3    H132581   4.665   1.415   4.594 -0.8381 -0.1298 -0.1830
 3722TIP3    H232582   4.575   1.495   4.686 -0.5678  0.2732 -0.2664
 3723TIP3   OH232583   5.141   6.340   3.491  0.0852 -0.2236 -0.2223
 3723TIP3    H132584   5.222   6.391   3.497 -0.4451  0.5001  1.5938
 3723TIP3    H232585   5.084   6.394   3.436 -0.1757  0.7746  0.9858
 3724TIP3   OH232586   0.712   2.276   3.450 -0.1866 -0.0505  0.6103
 3724TIP3    H132587   0.667   2.275   3.535 -1.6503  1.4460 -0.0899
 3724TIP3    H232588   0.726   2.184   3.429 -0.5354 -0.4686  2.0952
 3725TIP3   OH232589   2.508   1.551  12.604  0.1874  0.0621  0.1366
 3725TIP3    H132590   2.466   1.473  12.570 -0.5149  1.2458 -1.8508
 3725TIP3    H232591   2.441   1.619  12.602  1.3217  1.2323 -0.1568
 3726TIP3   OH232592   5.331   2.156  14.631 -0.3893  0.3606  0.3497
 3726TIP3    H132593   5.328   2.103  14.551  2.1555 -0.5805  0.7748
 3726TIP3    H232594   5.342   2.092  14.701 -0.1152  1.3184  1.1960
 3727TIP3   OH232595   0.547   1.396  12.072  0.4908  0.1156  0.1986
 3727TIP3    H132596   0.635   1.397  12.035 -0.3148 -3.5579 -2.4614
 3727TIP3    H232597   0.492   1.434  12.002 -0.3223 -0.1783  0.6691
 3728TIP3   OH232598   0.928   1.963   0.465  0.2477  0.5168  0.5582
 3728TIP3    H132599   0.978   2.040   0.438 -0.1759  0.5614 -0.1351
 3728TIP3    H232600   0.841   1.997   0.486 -0.4990  0.0341 -1.4904
 3729TIP3   OH232601   4.798   4.650   0.259  0.3025 -0.3960  0.3279
 3729TIP3    H132602   4.741   4.585   0.302  1.4164 -2.0353 -0.5752
 3729TIP3    H232603   4.861   4.598   0.211  0.7614  1.3971 -1.1030
 3730TIP3   OH232604   3.971   4.119  11.479  0.3119  0.7388  0.1307
 3730TIP3    H132605   4.040   4.174  11.517  0.5177 -1.0807  2.6756
 3730TIP3    H232606   3.895   4.177  11.473  0.8109  1.6414  1.7084
 3731TIP3   OH232607   1.361   1.942   5.260 -0.5305 -0.4733  0.2899
 3731TIP3    H132608   1.397   1.878   5.200 -0.2012  0.0053 -0.0276
 3731TIP3    H232609   1.313   1.890   5.325  0.2938 -1.0825  0.4250
 3732TIP3   OH232610   5.424   1.949  16.313 -0.0204 -0.1057  0.4690
 3732TIP3    H132611   5.468   1.965  16.229 -0.3102 -0.4789  0.2438
 3732TIP3    H232612   5.357   2.017  16.318 -0.1416 -0.2117  0.2977
 3733TIP3   OH232613   4.623   2.503  16.467 -0.0139 -0.0243  0.4578
 3733TIP3    H132614   4.671   2.553  16.533  1.7592 -1.5766  0.4266
 3733TIP3    H232615   4.554   2.563  16.437  1.6142  2.1565  0.8267
 3734TIP3   OH232616   0.928   2.977   0.146 -0.1973  0.0472 -0.2404
 3734TIP3    H132617   1.001   3.037   0.135 -0.2206  0.8534  2.9987
 3734TIP3    H232618   0.859   3.012   0.089  0.4888  1.8965  0.0022
 3735TIP3   OH232619   3.300   0.334  13.909 -0.6284 -0.4198 -0.3801
 3735TIP3    H132620   3.239   0.378  13.849 -1.2010 -1.4121 -0.5510
 3735TIP3    H232621   3.381   0.384  13.902 -1.2474  0.5728 -0.5960
 3736TIP3   OH232622   0.353   0.169   6.194  0.2479  0.2316  0.6045
 3736TIP3    H132623   0.436   0.131   6.167 -0.2397  0.1135 -0.7658
 3736TIP3    H232624   0.377   0.253   6.233  0.9734  0.4405 -0.2706
 3737TIP3   OH232625   0.974   2.707   6.245 -0.2649  0.2358  0.2944
 3737TIP3    H132626   1.042   2.765   6.278 -0.3109 -0.3735  1.5268
 3737TIP3    H232627   0.893   2.742   6.281 -0.0002 -2.5568  4.2980
 3738TIP3   OH232628   6.334   1.878   5.464  0.3239 -0.1718  0.0106
 3738TIP3    H132629   6.300   1.882   5.553  0.4872 -1.4164  0.1539
 3738TIP3    H232630   6.428   1.892   5.473  0.2286  0.5131 -0.0614
 3739TIP3   OH232631   0.820   4.382  12.616  0.5156 -0.4103 -0.3728
 3739TIP3    H132632   0.757   4.340  12.675 -2.4396 -0.7558 -3.4410
 3739TIP3    H232633   0.852   4.310  12.561 -0.9372  0.4907 -2.5538
 3740TIP3   OH232634   2.276   0.904  11.101 -0.1016  0.0889 -0.1487
 3740TIP3    H132635   2.187   0.870  11.085 -0.5219  0.1876  1.7112
 3740TIP3    H232636   2.334   0.833  11.074 -0.7759 -0.3052 -0.6002
 3741TIP3   OH232637   2.536   2.072   0.472  0.2640  0.1527 -0.3320
 3741TIP3    H132638   2.490   2.093   0.554  0.3457 -0.7221 -0.0479
 3741TIP3    H232639   2.578   1.988   0.489  0.5230  0.0989 -1.1813
 3742TIP3   OH232640   4.302   1.908   4.041 -0.2157  0.1609 -0.1916
 3742TIP3    H132641   4.252   1.984   4.011 -0.5500  0.7778  1.7875
 3742TIP3    H232642   4.337   1.934   4.126 -0.4018 -1.9281  0.5854
 3743TIP3   OH232643   4.348   2.425   3.323  0.3756 -0.0272  0.1228
 3743TIP3    H132644   4.292   2.502   3.325 -0.7338 -0.7833 -0.7039
 3743TIP3    H232645   4.418   2.445   3.385  0.1113  1.6273 -0.0545
 3744TIP3   OH232646   1.312   2.555  14.833 -0.5790 -0.1499  0.6518
 3744TIP3    H132647   1.218   2.546  14.817 -0.2887 -0.3504 -1.0784
 3744TIP3    H232648   1.324   2.525  14.923 -2.3833  1.3280  1.4525
 3745TIP3   OH232649   4.883   0.326  14.027 -0.2309  0.2066 -0.2448
 3745TIP3    H132650   4.792   0.355  14.036  0.2743  1.4663  1.1553
 3745TIP3    H232651   4.935   0.402  14.050  1.1780 -1.4439  2.6430
 3746TIP3   OH232652   4.354   2.609  10.888  0.7480  0.7010  0.0001
 3746TIP3    H132653   4.410   2.671  10.935 -0.6461  1.4191  0.7957
 3746TIP3    H232654   4.368   2.629  10.795  3.5319 -0.7290 -0.0113
 3747TIP3   OH232655   0.366   5.999  13.947  0.3839  0.2853 -0.4654
 3747TIP3    H132656   0.273   6.008  13.927  0.2244  1.5765  0.7269
 3747TIP3    H232657   0.369   5.965  14.036  1.0437  1.1973 -0.1261
 3748TIP3   OH232658   5.073   1.381  13.464 -0.5707 -0.5163  0.0758
 3748TIP3    H132659   5.071   1.296  13.507  1.9434 -0.6795  0.0246
 3748TIP3    H232660   5.059   1.444  13.534 -1.7971 -0.9355  0.2201
 3749TIP3   OH232661   1.934   2.225   3.380 -0.4602  0.2940  0.2909
 3749TIP3    H132662   1.997   2.160   3.412  0.5138  0.4695 -1.1621
 3749TIP3    H232663   1.849   2.182   3.389  0.1468 -1.1524 -0.5288
 3750TIP3   OH232664   6.383   1.765   1.355 -0.1771 -0.1536  0.2207
 3750TIP3    H132665   6.467   1.721   1.373 -0.0396  0.4153  1.0438
 3750TIP3    H232666   6.372   1.758   1.261  0.5433 -0.6983  0.1663
 3751TIP3   OH232667   3.044   4.202  15.115 -0.5274  0.3167 -0.1253
 3751TIP3    H132668   3.137   4.226  15.110 -0.5700  0.6336  0.5792
 3751TIP3    H232669   2.997   4.284  15.107 -0.7306  0.2363  0.2243
 3752TIP3   OH232670   4.103   0.482   1.213  0.6153 -0.6766  0.2354
 3752TIP3    H132671   4.063   0.557   1.258  1.3558  0.6924 -1.2697
 3752TIP3    H232672   4.197   0.501   1.213  0.7970 -1.5204 -0.3281
 3753TIP3   OH232673   3.527   0.478  13.931  0.0161  0.1242  0.1623
 3753TIP3    H132674   3.585   0.478  13.855  0.4678 -0.5454  0.4982
 3753TIP3    H232675   3.585   0.485  14.007 -0.4256  0.7216  0.4526
 3754TIP3   OH232676   1.314   1.377   5.225  0.0518  0.0823 -0.0472
 3754TIP3    H132677   1.290   1.468   5.240 -0.5863 -0.1904  0.6900
 3754TIP3    H232678   1.400   1.381   5.183  0.1835  1.0098  0.2801
 3755TIP3   OH232679   5.415   4.950  17.133 -0.7543 -0.0370  0.2863
 3755TIP3    H132680   5.325   4.920  17.147  0.0328 -2.6507  0.1610
 3755TIP3    H232681   5.447   4.970  17.221 -0.4397 -2.4351  0.7970
 3756TIP3   OH232682   4.726   2.346  16.156  0.1415  0.3102 -0.0359
 3756TIP3    H132683   4.716   2.441  16.154  2.6641  0.6571 -0.2948
 3756TIP3    H232684   4.731   2.321  16.063 -2.2482 -0.3840 -0.0474
 3757TIP3   OH232685   0.674   2.161  15.236  0.8193  0.5522  0.2779
 3757TIP3    H132686   0.639   2.250  15.225 -0.3389 -0.0364 -1.0381
 3757TIP3    H232687   0.719   2.165  15.320 -2.6356  1.3537  2.3316
 3758TIP3   OH232688   4.334   3.953  13.614 -0.2388  0.0189  0.0029
 3758TIP3    H132689   4.404   3.888  13.606  0.7651  0.8297  1.7611
 3758TIP3    H232690   4.320   3.963  13.708 -1.4259  1.2366 -0.2699
 3759TIP3   OH232691   3.957   0.210  11.245 -0.5852 -0.2074 -0.0081
 3759TIP3    H132692   3.957   0.301  11.272  0.1885  0.1372 -1.0780
 3759TIP3    H232693   3.928   0.161  11.322 -2.2084  1.0283  0.2097
 3760TIP3   OH232694   0.940   5.279  12.338  0.3653 -0.2529 -0.4117
 3760TIP3    H132695   0.957   5.288  12.244  0.3935 -0.3471 -0.4162
 3760TIP3    H232696   1.012   5.327  12.380  0.0614  0.2359 -0.4453
 3761TIP3   OH232697   4.615   0.825  12.433 -0.6149 -0.5047  0.0186
 3761TIP3    H132698   4.533   0.797  12.473  0.3320  0.0366  2.5506
 3761TIP3    H232699   4.682   0.773  12.479  0.6325  0.9125 -0.1301
 3762TIP3   OH232700   5.841   4.092  12.756 -0.0012  0.2446 -0.6646
 3762TIP3    H132701   5.903   4.131  12.817 -2.1979  1.1262  1.1354
 3762TIP3    H232702   5.823   4.162  12.692 -1.6382  1.2249  0.7958
 3763TIP3   OH232703   6.698   6.046  15.758 -0.0360  0.3144  0.2979
 3763TIP3    H132704   6.748   6.105  15.814 -2.2436  2.0183  0.5954
 3763TIP3    H232705   6.725   6.068  15.669 -0.0113  0.9719  0.4646
 3764TIP3   OH232706   1.280   2.107  16.863 -0.5472  0.3588 -0.3998
 3764TIP3    H132707   1.292   2.041  16.795  0.0235  1.6418 -1.5877
 3764TIP3    H232708   1.189   2.133  16.855 -0.5385  0.3521 -0.5241
 3765TIP3   OH232709   0.097   5.065  14.686  0.2143  0.1033  0.4573
 3765TIP3    H132710   0.114   4.976  14.655  0.8248 -0.3410  1.9677
 3765TIP3    H232711   0.097   5.058  14.782 -1.0819  1.4941  0.5998
 3766TIP3   OH232712   0.624   3.409   5.691 -0.3411 -0.4610  0.6678
 3766TIP3    H132713   0.610   3.406   5.786 -2.6751 -1.5691  0.3574
 3766TIP3    H232714   0.633   3.318   5.666  1.7356 -0.1048 -0.0478
 3767TIP3   OH232715   3.667   0.926  15.194  0.7988 -0.2517 -1.0941
 3767TIP3    H132716   3.591   0.869  15.183  1.8351 -1.8791 -0.2731
 3767TIP3    H232717   3.722   0.909  15.117  1.5052 -1.0537 -0.4397
 3768TIP3   OH232718   3.424   2.992   0.718 -0.0376 -0.0870 -0.3862
 3768TIP3    H132719   3.335   2.993   0.753 -0.4990 -2.9191 -1.1908
 3768TIP3    H232720   3.472   2.933   0.776  0.1789 -1.7886 -2.1743
 3769TIP3   OH232721   3.835   3.436   0.696 -0.2896 -0.1288  0.1564
 3769TIP3    H132722   3.805   3.417   0.784 -0.2605  0.7187  0.3597
 3769TIP3    H232723   3.756   3.431   0.642 -0.4327  0.0705  0.3485
 3770TIP3   OH232724   5.128   2.921   1.507 -0.4009 -0.1605 -0.0693
 3770TIP3    H132725   5.098   2.897   1.419 -0.9768  1.0634 -0.2229
 3770TIP3    H232726   5.055   2.971   1.544 -0.1412 -0.6198  1.0933
 3771TIP3   OH232727   4.440   5.041  11.255 -0.4055  0.5734 -0.3143
 3771TIP3    H132728   4.493   5.118  11.236  2.4632 -0.7678  1.6292
 3771TIP3    H232729   4.484   4.970  11.209  1.2966 -1.0520  3.4402
 3772TIP3   OH232730   0.697   3.500   2.707 -0.5826  0.2484 -0.5496
 3772TIP3    H132731   0.648   3.462   2.634 -0.1605 -0.0940 -0.6596
 3772TIP3    H232732   0.760   3.559   2.666 -2.6296  2.8100 -0.3040
 3773TIP3   OH232733   1.773   6.216   5.198 -0.3430 -0.0147 -0.2819
 3773TIP3    H132734   1.798   6.139   5.250 -0.1543  1.2724  1.6117
 3773TIP3    H232735   1.849   6.232   5.142  0.6402  0.1843  1.0445
 3774TIP3   OH232736   6.054   4.712  12.693  0.1510 -0.2831 -0.6956
 3774TIP3    H132737   5.980   4.769  12.674  2.1111  2.0144 -1.9920
 3774TIP3    H232738   6.110   4.719  12.616  1.5893 -2.1708  0.1021
 3775TIP3   OH232739   0.632   1.666   5.582  0.4692 -0.5747 -0.7230
 3775TIP3    H132740   0.569   1.684   5.512  0.5819 -2.5204 -1.3643
 3775TIP3    H232741   0.671   1.582   5.559  1.7645 -0.4314  0.7935
 3776TIP3   OH232742   4.787   4.296   4.961 -0.1587 -0.5181  0.0886
 3776TIP3    H132743   4.731   4.218   4.963  1.1655 -1.6646 -2.5803
 3776TIP3    H232744   4.731   4.365   4.928 -0.9649 -0.6693  1.0882
 3777TIP3   OH232745   2.489   3.987  12.396 -0.1901 -0.4206  0.3457
 3777TIP3    H132746   2.566   4.032  12.432  0.2017 -1.4871  0.8940
 3777TIP3    H232747   2.425   4.056  12.382  1.6821  0.9115 -2.5068
 3778TIP3   OH232748   4.687   6.302   0.502  0.4692  0.3136  0.7569
 3778TIP3    H132749   4.689   6.392   0.470  2.8876 -0.0025 -0.2851
 3778TIP3    H232750   4.613   6.262   0.457 -0.4430  1.6767  0.9919
 3779TIP3   OH232751   3.320   0.060   3.067  0.3841  0.5489 -0.2882
 3779TIP3    H132752   3.359   0.077   3.153  0.0985  1.2232 -0.2887
 3779TIP3    H232753   3.229   0.038   3.085  0.4055  0.3718 -0.3930
 3780TIP3   OH232754   5.881   0.336   6.421  0.4304 -0.3767 -0.4070
 3780TIP3    H132755   5.904   0.266   6.483 -1.4008 -1.3983 -0.8121
 3780TIP3    H232756   5.964   0.361   6.382  1.1153 -2.7001 -0.6005
 3781TIP3   OH232757   4.349   0.862   3.827 -0.2580 -0.0119  0.4014
 3781TIP3    H132758   4.389   0.896   3.907  1.4385 -2.2233  0.5929
 3781TIP3    H232759   4.281   0.802   3.857 -0.6155  0.2634  0.1503
 3782TIP3   OH232760   1.077   5.806   1.251 -0.3689  0.6461 -0.0198
 3782TIP3    H132761   0.988   5.839   1.263 -0.9325 -0.8194  0.0180
 3782TIP3    H232762   1.066   5.723   1.205  0.8567 -0.3353  1.3658
 3783TIP3   OH232763   2.400   1.491  14.282  0.3059  0.3317  0.1568
 3783TIP3    H132764   2.490   1.497  14.251  0.6706  0.0385  1.1178
 3783TIP3    H232765   2.350   1.547  14.223  1.2558  1.1727  0.1277
 3784TIP3   OH232766   6.263   5.226   2.329 -0.5026  0.2812 -0.1287
 3784TIP3    H132767   6.279   5.220   2.423  0.0675 -0.3792 -0.2559
 3784TIP3    H232768   6.222   5.311   2.316  0.1330  0.7044  0.6203
 3785TIP3   OH232769   6.579   1.910  15.455 -0.0026 -0.3616 -0.0068
 3785TIP3    H132770   6.611   1.820  15.458 -1.0605 -0.7631 -0.1932
 3785TIP3    H232771   6.516   1.915  15.527 -1.5038 -0.4122 -1.2588
 3786TIP3   OH232772   1.805   3.754  14.929 -0.3906  0.4727  0.0356
 3786TIP3    H132773   1.827   3.686  14.993 -0.8582 -0.3004 -0.6144
 3786TIP3    H232774   1.889   3.779  14.891  0.0921  1.9239  1.8794
 3787TIP3   OH232775   3.543   1.091  16.493  0.7156  0.2038 -0.0378
 3787TIP3    H132776   3.506   1.075  16.580 -0.5108 -1.6962 -0.8605
 3787TIP3    H232777   3.519   1.182  16.474 -0.7018  0.0373  0.8055
 3788TIP3   OH232778   4.786   4.547   5.230 -0.1784  0.6478 -0.5705
 3788TIP3    H132779   4.876   4.542   5.263 -0.4421  0.9261  0.1871
 3788TIP3    H232780   4.737   4.593   5.297 -0.7566  1.0972 -1.2827
 3789TIP3   OH232781   2.509   4.428  14.353  0.4158 -0.1540 -0.1937
 3789TIP3    H132782   2.456   4.352  14.379  0.5175 -0.3887 -0.6610
 3789TIP3    H232783   2.449   4.502  14.359  0.5683 -0.1156  1.1994
 3790TIP3   OH232784   2.343   2.867   3.705 -0.2386 -0.4303 -0.0048
 3790TIP3    H132785   2.263   2.831   3.742 -0.2206 -0.9230 -0.4268
 3790TIP3    H232786   2.317   2.951   3.668 -0.8956 -1.2040 -1.3928
 3791TIP3   OH232787   5.864   5.689  17.142  0.2091 -0.5953  0.9395
 3791TIP3    H132788   5.814   5.771  17.146  1.0488  0.0153 -0.3440
 3791TIP3    H232789   5.884   5.679  17.049  2.0516 -1.0835  1.3593
 3792TIP3   OH232790   3.623   3.726  14.249  0.1787  0.6767 -0.1730
 3792TIP3    H132791   3.659   3.767  14.328  1.0188  0.7280 -0.5677
 3792TIP3    H232792   3.588   3.799  14.198  1.7391  0.9482 -0.9099
 3793TIP3   OH232793   1.725   4.876   3.196  0.6963  0.0003 -0.1763
 3793TIP3    H132794   1.666   4.845   3.127  0.2987 -0.2907  0.2924
 3793TIP3    H232795   1.668   4.894   3.271  1.1174  0.3722  0.0628
 3794TIP3   OH232796   2.106   4.783  15.352  0.5125 -0.2182 -0.1193
 3794TIP3    H132797   2.054   4.860  15.374  1.8917  0.5074  0.6953
 3794TIP3    H232798   2.062   4.746  15.275 -1.5103  0.0415  0.8306
 3795TIP3   OH232799   3.095   6.588   0.058 -0.1282 -0.2663 -0.3240
 3795TIP3    H132800   3.014   6.639   0.067  0.4778  0.5974  0.4502
 3795TIP3    H232801   3.155   6.627   0.122  1.1290 -0.4412 -1.3621
 3796TIP3   OH232802   0.689   3.319   3.139 -0.0665  0.1053  0.1034
 3796TIP3    H132803   0.760   3.329   3.202  0.1635 -1.5954  0.1755
 3796TIP3    H232804   0.733   3.304   3.056 -0.2837 -1.2306  0.1943
 3797TIP3   OH232805   5.518   2.890  17.206 -0.2720  0.1173  0.3780
 3797TIP3    H132806   5.557   2.958  17.152 -0.4594  1.1738  1.5421
 3797TIP3    H232807   5.574   2.884  17.283  1.2208 -2.8558 -0.7927
 3798TIP3   OH232808   2.148   1.445   3.168  0.0628 -0.1962  0.6511
 3798TIP3    H132809   2.230   1.456   3.216  0.8118 -1.5390 -0.2356
 3798TIP3    H232810   2.081   1.436   3.236  0.7812  0.0405  1.4075
 3799TIP3   OH232811   4.559   4.746  11.915 -0.1169 -0.3875  0.0106
 3799TIP3    H132812   4.583   4.803  11.841 -0.2494  0.0165  0.2762
 3799TIP3    H232813   4.507   4.676  11.875  2.6344 -2.1158 -0.8377
 3800TIP3   OH232814   6.770   0.076   5.687  0.2616 -0.2389  0.1254
 3800TIP3    H132815   6.795  -0.004   5.733  0.6325 -0.8813 -1.1585
 3800TIP3    H232816   6.757   0.049   5.596  0.6567  1.2071 -0.3876
 3801TIP3   OH232817   4.031   1.780   5.333 -0.0270 -0.3403 -0.0639
 3801TIP3    H132818   4.014   1.735   5.415  1.6740 -0.6052  0.1862
 3801TIP3    H232819   4.013   1.715   5.265 -1.4273 -0.1216  0.0821
 3802TIP3   OH232820   6.687   3.341   1.232 -0.1389  0.8469  0.1692
 3802TIP3    H132821   6.634   3.283   1.287  0.6508  0.6886  0.7688
 3802TIP3    H232822   6.752   3.284   1.192 -0.7879  0.9256 -1.0869
 3803TIP3   OH232823   5.001   0.748   4.101  0.0339 -0.3538  0.6831
 3803TIP3    H132824   5.042   0.753   4.014 -1.7594  2.3675 -0.1590
 3803TIP3    H232825   5.072   0.765   4.162  1.1189 -1.1694 -0.2980
 3804TIP3   OH232826   1.672   0.995  12.097  0.1230  0.1516  0.4626
 3804TIP3    H132827   1.695   0.927  12.161  1.7200 -1.3387 -1.5565
 3804TIP3    H232828   1.754   1.044  12.085 -0.4151  1.0128  0.2304
 3805TIP3   OH232829   3.146   3.520  11.574 -0.0705 -0.4455 -0.0176
 3805TIP3    H132830   3.062   3.491  11.610 -0.4951 -1.4055 -1.6710
 3805TIP3    H232831   3.194   3.554  11.650 -1.8420 -0.1041  1.0019
 3806TIP3   OH232832   1.428   3.612   3.568 -0.0104 -0.9015 -0.5671
 3806TIP3    H132833   1.499   3.614   3.633 -0.6695  1.0698  0.1622
 3806TIP3    H232834   1.349   3.593   3.619 -0.1860 -2.1225 -1.2382
 3807TIP3   OH232835   1.492   1.740  13.028  0.0096  0.0126  0.1400
 3807TIP3    H132836   1.454   1.697  13.104 -0.9133 -0.7965 -0.7427
 3807TIP3    H232837   1.459   1.690  12.953  2.3572 -0.3658 -0.7353
 3808TIP3   OH232838   1.364   0.659   3.103  0.2147 -0.1281  0.6875
 3808TIP3    H132839   1.347   0.628   3.014  0.2690 -1.0690  0.9961
 3808TIP3    H232840   1.446   0.617   3.127 -0.9348 -1.7321  2.0124
 3809TIP3   OH232841   0.734   6.531   3.947  0.5267 -0.2645 -0.3833
 3809TIP3    H132842   0.729   6.436   3.939 -0.2828 -0.3831  1.2358
 3809TIP3    H232843   0.723   6.562   3.857  0.9196 -1.6938 -0.9603
 3810TIP3   OH232844   2.802   3.801  17.215  0.1487  0.2251 -0.1121
 3810TIP3    H132845   2.793   3.708  17.197 -0.4872 -0.4453  3.0450
 3810TIP3    H232846   2.897   3.816  17.216  0.2931 -0.6535  0.4098
 3811TIP3   OH232847   4.688   0.286   5.328  0.1540  0.2145 -0.7162
 3811TIP3    H132848   4.609   0.333   5.302  0.5404  1.4766  0.2382
 3811TIP3    H232849   4.675   0.266   5.421  0.3582 -0.8670 -0.9064
 3812TIP3   OH232850   5.101   1.988  15.554 -0.3586  0.1114  0.1557
 3812TIP3    H132851   5.138   1.910  15.513  1.2993  1.5367 -1.2723
 3812TIP3    H232852   5.083   1.962  15.644  1.8018 -1.4373  0.2247
 3813TIP3   OH232853   2.132   3.798  14.097  0.2865 -0.5500  0.2083
 3813TIP3    H132854   2.093   3.810  14.184  4.1453  0.1058  2.0375
 3813TIP3    H232855   2.114   3.706  14.076 -2.8060 -0.1169  0.4607
 3814TIP3   OH232856   4.547   3.334   5.770 -0.1228 -0.3956 -0.2316
 3814TIP3    H132857   4.612   3.333   5.700  1.0974 -0.0095  0.8469
 3814TIP3    H232858   4.595   3.368   5.846 -2.0043  1.4341  0.2242
 3815TIP3   OH232859   5.071   0.554  12.028 -0.1786  0.0397 -0.1326
 3815TIP3    H132860   5.125   0.487  12.070  2.4558  0.4230 -2.6376
 3815TIP3    H232861   5.082   0.632  12.082  2.1889  0.2132 -0.7873
 3816TIP3   OH232862   1.640   6.524   7.137  0.0411 -0.5591  0.3085
 3816TIP3    H132863   1.705   6.470   7.093 -0.1637 -1.1531  0.7282
 3816TIP3    H232864   1.617   6.590   7.072  1.2596 -0.1654  0.2523
 3817TIP3   OH232865   2.152   2.622   1.837 -0.7576 -0.0236  0.3334
 3817TIP3    H132866   2.130   2.663   1.754 -1.0470 -1.0318 -0.1013
 3817TIP3    H232867   2.096   2.545   1.843  0.0708 -0.6156  0.9115
 3818TIP3   OH232868   5.994   2.769  11.459  0.1047  0.3065 -0.1027
 3818TIP3    H132869   6.030   2.849  11.498 -0.1717  1.6347 -2.4019
 3818TIP3    H232870   6.058   2.701  11.480 -0.1600  0.8047  2.8195
 3819TIP3   OH232871   3.448   6.138  12.869  0.1248  0.1639 -0.4322
 3819TIP3    H132872   3.359   6.110  12.849  0.2989 -0.0330 -0.9359
 3819TIP3    H232873   3.498   6.120  12.789  0.6222  0.2433 -0.1448
 3820TIP3   OH232874   2.960   5.696  17.219  0.3457  0.3351 -0.5234
 3820TIP3    H132875   2.995   5.616  17.181  1.0132  0.6869 -0.6816
 3820TIP3    H232876   3.037   5.753  17.230  0.1355  0.3365  1.1489
 3821TIP3   OH232877   3.748   5.887  15.000 -0.0238 -0.3600  0.1224
 3821TIP3    H132878   3.787   5.855  14.919 -2.0816  0.6508 -1.3505
 3821TIP3    H232879   3.790   5.971  15.016  0.4232 -0.5846  0.1608
 3822TIP3   OH232880   3.202   3.852   2.097  0.3692  0.3651 -0.5400
 3822TIP3    H132881   3.133   3.794   2.130  0.7638  1.0283  1.6178
 3822TIP3    H232882   3.249   3.800   2.032 -0.6108 -0.9717 -0.2076
 3823TIP3   OH232883   5.219   3.609   4.983 -0.0385  0.5770  0.0329
 3823TIP3    H132884   5.204   3.648   4.897  0.2531 -0.5494 -0.5359
 3823TIP3    H232885   5.131   3.591   5.016 -0.1226 -0.1817 -0.5899
 3824TIP3   OH232886   0.721   0.713   3.339 -0.4781  0.1862 -0.1586
 3824TIP3    H132887   0.811   0.723   3.308 -0.3622 -2.0991 -0.7233
 3824TIP3    H232888   0.691   0.803   3.355  2.4094  0.9484  1.6576
 3825TIP3   OH232889   2.039   4.331   5.718  0.0555  0.3606 -0.2208
 3825TIP3    H132890   2.109   4.384   5.678  0.9898 -2.2615 -2.3475
 3825TIP3    H232891   1.987   4.300   5.644 -0.7755 -1.2332  0.9652
 3826TIP3   OH232892   2.506   3.914   1.700 -0.0929 -0.0137 -0.3123
 3826TIP3    H132893   2.582   3.958   1.737  0.1654  1.7377 -2.6857
 3826TIP3    H232894   2.443   3.909   1.772  0.9869  1.6532  0.7998
 3827TIP3   OH232895   1.192   0.076  14.833 -0.4134  0.0602  0.0887
 3827TIP3    H132896   1.253   0.092  14.905 -0.4966  0.1839  0.1312
 3827TIP3    H232897   1.231   0.121  14.758  0.6607 -1.6293 -0.4283
 3828TIP3   OH232898   1.603   1.136   4.306  0.4711 -0.3691  0.6225
 3828TIP3    H132899   1.550   1.117   4.228  0.6139 -2.1690  0.9238
 3828TIP3    H232900   1.563   1.083   4.375  3.5331 -3.1299  0.5228
 3829TIP3   OH232901   1.965   1.598   1.469 -0.4090 -0.5198 -0.0231
 3829TIP3    H132902   2.053   1.578   1.438 -0.7540 -2.3041  0.0279
 3829TIP3    H232903   1.978   1.653   1.546  0.7498 -2.0260  0.8967
 3830TIP3   OH232904   5.990   5.309   0.565 -0.1516  0.0919 -0.1729
 3830TIP3    H132905   6.053   5.299   0.636  0.7803  2.0085 -0.6667
 3830TIP3    H232906   5.947   5.393   0.583 -1.7727 -0.6560 -0.4591
 3831TIP3   OH232907   4.036   3.525   0.374  0.1844 -0.6040  0.0033
 3831TIP3    H132908   3.976   3.585   0.329  1.1150 -1.0394 -1.9099
 3831TIP3    H232909   4.023   3.545   0.467 -1.2076  0.9386 -0.4562
 3832TIP3   OH232910   3.063   0.512  15.785 -0.7612  0.2006 -0.1366
 3832TIP3    H132911   3.069   0.449  15.712  1.6189 -1.2736  1.1853
 3832TIP3    H232912   3.154   0.536  15.802 -1.3907  1.5447  1.5022
 3833TIP3   OH232913   1.964   3.342  16.398  0.5727  0.3011  0.2720
 3833TIP3    H132914   1.949   3.248  16.405 -0.5115  0.4932  0.8513
 3833TIP3    H232915   1.901   3.371  16.332  1.4768  0.5053 -0.5163
 3834TIP3   OH232916   2.162   2.112   2.011 -0.8384 -0.3422  0.6777
 3834TIP3    H132917   2.164   2.095   2.105 -0.4629 -1.6035  0.4601
 3834TIP3    H232918   2.234   2.059   1.976 -0.7343  0.4150 -0.2750
 3835TIP3   OH232919   0.209   2.514  16.235 -0.0214  0.2138  0.3436
 3835TIP3    H132920   0.136   2.513  16.298  0.0021  1.3219  0.4179
 3835TIP3    H232921   0.241   2.605  16.238  1.8869 -0.4308  0.9163
 3836TIP3   OH232922   5.542   4.027   4.968 -0.4932 -0.5205  0.1336
 3836TIP3    H132923   5.615   4.076   5.007 -0.1942 -1.0006  0.1883
 3836TIP3    H232924   5.535   4.062   4.879  0.7758 -1.4828 -0.3734
 3837TIP3   OH232925   6.129   0.709  16.185  0.1622  0.1563  0.2997
 3837TIP3    H132926   6.051   0.757  16.156  0.7367 -0.2539 -2.1511
 3837TIP3    H232927   6.195   0.777  16.199  0.8719  0.2469 -2.8311
 3838TIP3   OH232928   0.113   0.444   1.840 -0.4173 -0.2362  0.1881
 3838TIP3    H132929   0.192   0.498   1.844 -0.0828 -0.6396 -0.7885
 3838TIP3    H232930   0.142   0.358   1.871 -0.7799 -0.0615  1.0408
 3839TIP3   OH232931   0.653   0.932   5.819  0.0137  0.4030  0.1259
 3839TIP3    H132932   0.741   0.958   5.845  0.0437 -0.2600  0.7249
 3839TIP3    H232933   0.605   0.925   5.901 -0.6836  1.0297 -0.2144
 3840TIP3   OH232934   3.311   1.857   3.559 -0.0679 -0.5129  0.6176
 3840TIP3    H132935   3.280   1.775   3.520 -1.7093  0.1028  0.5259
 3840TIP3    H232936   3.333   1.913   3.485  0.9022 -0.8064  0.6770
 3841TIP3   OH232937   5.992   2.196  16.196  0.5601  0.3104 -0.2186
 3841TIP3    H132938   5.983   2.119  16.252  0.5384  1.4327  1.3931
 3841TIP3    H232939   6.087   2.212  16.192  0.7473 -0.9247 -2.2268
 3842TIP3   OH232940   4.655   4.839  12.311  0.3424 -0.1928  0.6953
 3842TIP3    H132941   4.681   4.794  12.230 -3.2089 -0.4927 -0.4769
 3842TIP3    H232942   4.657   4.771  12.378 -0.3513 -0.9743 -0.0350
 3843TIP3   OH232943   4.027   5.314   3.402 -0.1786 -0.1271 -0.4807
 3843TIP3    H132944   4.090   5.289   3.470 -0.8305 -0.8046 -0.1068
 3843TIP3    H232945   4.079   5.363   3.338  0.6271 -0.2450  0.0648
 3844TIP3   OH232946   4.790   4.996  11.350 -0.0899  0.4396 -0.5570
 3844TIP3    H132947   4.703   4.961  11.331 -1.0567  2.0377  0.7148
 3844TIP3    H232948   4.793   5.079  11.303  0.3285  0.8885  0.2445
 3845TIP3   OH232949   3.548   3.187  16.432  0.0555  0.0143  0.6512
 3845TIP3    H132950   3.570   3.248  16.502 -0.7858 -1.0080  1.8346
 3845TIP3    H232951   3.453   3.183  16.431  0.0766 -0.6254 -0.0029
 3846TIP3   OH232952   0.375   3.651   2.791 -0.2856 -0.3673 -0.0664
 3846TIP3    H132953   0.424   3.570   2.807  0.1574  0.0567  0.8230
 3846TIP3    H232954   0.429   3.720   2.830 -0.4309  0.4277 -1.2071
 3847TIP3   OH232955   1.139   6.233   6.235  0.0539  0.0097 -0.5930
 3847TIP3    H132956   1.166   6.215   6.325 -0.4961  0.9960 -0.2147
 3847TIP3    H232957   1.148   6.149   6.190 -0.0344 -0.5914  0.4765
 3848TIP3   OH232958   4.126   1.262   5.156 -0.0212  0.2487 -0.2595
 3848TIP3    H132959   4.146   1.178   5.196 -0.5007  0.4622  0.4451
 3848TIP3    H232960   4.031   1.263   5.149 -0.3152  2.0425  2.7328
 3849TIP3   OH232961   1.997   4.290   2.083 -0.7099 -0.3777 -0.0606
 3849TIP3    H132962   1.974   4.225   2.151  0.6692  0.3337  1.1468
 3849TIP3    H232963   1.942   4.267   2.008 -2.3895 -1.1287  1.3318
 3850TIP3   OH232964   5.992   4.440  13.254  0.0056 -0.1575 -0.3812
 3850TIP3    H132965   6.088   4.445  13.248  0.0548 -0.0565  0.3844
 3850TIP3    H232966   5.974   4.447  13.347 -0.7091 -0.9414 -0.4528
 3851TIP3   OH232967   3.787   5.463   3.367  0.2756 -0.3148  0.0054
 3851TIP3    H132968   3.785   5.492   3.276  2.1744 -0.2598 -0.0557
 3851TIP3    H232969   3.859   5.401   3.371  0.4893 -0.0135  1.5554
 3852TIP3   OH232970   2.397   1.428   4.110  0.1028 -0.0450 -0.4675
 3852TIP3    H132971   2.416   1.502   4.052 -2.3707  0.7794 -0.3421
 3852TIP3    H232972   2.400   1.352   4.053  0.0697  0.4755 -1.1778
 3853TIP3   OH232973   0.176   5.559  12.737  0.2235  1.2621 -0.2883
 3853TIP3    H132974   0.162   5.595  12.824 -2.0303 -0.8273  0.3534
 3853TIP3    H232975   0.116   5.609  12.681  0.3300  1.4020 -0.2777
 3854TIP3   OH232976   0.104   0.112  11.365 -0.2563  0.8547 -0.0283
 3854TIP3    H132977   0.064   0.159  11.293 -2.0158 -1.1406 -0.4550
 3854TIP3    H232978   0.188   0.082  11.330 -0.5923  0.8653 -0.8711
 3855TIP3   OH232979   1.847   0.229  16.502 -0.2261 -0.4552  0.1944
 3855TIP3    H132980   1.937   0.225  16.534 -0.0892 -0.4120 -0.1815
 3855TIP3    H232981   1.800   0.277  16.569  0.5887  1.9339 -0.8445
 3856TIP3   OH232982   1.974   4.991  13.431  1.1430 -0.1368 -0.0400
 3856TIP3    H132983   1.935   4.906  13.452  1.2864 -0.3944 -0.7731
 3856TIP3    H232984   2.017   5.019  13.512 -0.1969 -0.0414  0.6650
 3857TIP3   OH232985   4.043   0.429   3.880  0.5499 -0.2791 -0.5445
 3857TIP3    H132986   3.985   0.449   3.954  0.9579  0.0717 -0.3147
 3857TIP3    H232987   3.985   0.396   3.812 -0.0837  1.2411 -0.7691
 3858TIP3   OH232988   4.652   5.204   4.497  0.0610 -0.4455  0.2608
 3858TIP3    H132989   4.657   5.132   4.561  1.0328 -2.0620 -1.5362
 3858TIP3    H232990   4.741   5.211   4.462 -0.3330  0.7495 -0.5737
 3859TIP3   OH232991   0.420   3.943   5.285 -0.3037 -0.3446  0.1414
 3859TIP3    H132992   0.474   3.928   5.363  1.4545  4.2331  0.1101
 3859TIP3    H232993   0.331   3.922   5.313  0.4051  0.1516  3.0626
 3860TIP3   OH232994   3.709   4.096   2.913 -0.4560  0.1023  0.3955
 3860TIP3    H132995   3.645   4.162   2.939 -0.0006  0.7350 -0.0616
 3860TIP3    H232996   3.681   4.070   2.825 -0.1439  0.3164  0.2300
 3861TIP3   OH232997   4.741   5.672   4.208  0.0787  0.4474 -0.4426
 3861TIP3    H132998   4.648   5.651   4.212  0.2848 -0.3279  0.6932
 3861TIP3    H232999   4.747   5.760   4.247 -0.1683  0.4584 -0.4282
 3862TIP3   OH233000   5.774   0.499   1.168 -0.0909 -0.4310  0.1585
 3862TIP3    H133001   5.734   0.579   1.202  0.1393  0.2912 -1.2027
 3862TIP3    H233002   5.711   0.430   1.186 -0.8086  0.2571  0.3076
 3863TIP3   OH233003   2.290   5.982   0.458 -0.2207 -0.2682  0.2158
 3863TIP3    H133004   2.291   5.931   0.377 -1.2601 -1.4472  0.9075
 3863TIP3    H233005   2.219   6.044   0.445  0.1637  0.1139 -0.0958
 3864TIP3   OH233006   0.806   0.775  16.711  0.4265 -0.3991  0.4593
 3864TIP3    H133007   0.863   0.710  16.753 -2.3387 -2.1603  1.7585
 3864TIP3    H233008   0.795   0.743  16.622  0.0490 -1.0625  0.7387
 3865TIP3   OH233009   5.593   4.748  11.646  0.1950 -0.8739  0.0551
 3865TIP3    H133010   5.629   4.816  11.703  1.2528 -0.4528 -1.0677
 3865TIP3    H233011   5.509   4.784  11.617  1.3444  0.6404 -1.6179
 3866TIP3   OH233012   6.528   3.501   2.166 -0.2353  0.5357 -0.2224
 3866TIP3    H133013   6.463   3.523   2.100 -1.7577 -1.3613  0.5483
 3866TIP3    H233014   6.489   3.532   2.248  0.6142  0.8743  0.0617
 3867TIP3   OH233015   0.890   4.365   5.864 -0.8971  0.3921  0.2533
 3867TIP3    H133016   0.955   4.330   5.804  0.1005  2.5037  0.0153
 3867TIP3    H233017   0.806   4.355   5.819 -0.5293 -0.7411 -0.1939
 3868TIP3   OH233018   6.343   3.733  17.265 -0.0188  0.0468  0.4681
 3868TIP3    H133019   6.340   3.639  17.250  0.1653 -0.2306  1.9894
 3868TIP3    H233020   6.402   3.743  17.340  2.6903  1.6389 -1.6767
 3869TIP3   OH233021   6.685   6.614  16.971 -0.5286 -0.3264 -0.1393
 3869TIP3    H133022   6.698   6.556  16.896 -0.1740 -0.5753  0.1129
 3869TIP3    H233023   6.654   6.696  16.932  1.2854  0.1317 -0.7317
 3870TIP3   OH233024   6.731   3.182  15.056 -0.0200 -0.0032  1.1003
 3870TIP3    H133025   6.636   3.184  15.058 -0.1695 -1.8632 -0.4273
 3870TIP3    H233026   6.758   3.269  15.083 -2.1610  0.6585  1.2757
 3871TIP3   OH233027   1.408   6.021   6.403 -0.2853  0.0783  0.4305
 3871TIP3    H133028   1.456   6.054   6.479 -0.3268 -0.8156  0.8500
 3871TIP3    H233029   1.317   6.045   6.419 -0.5140 -1.3217  1.3482
 3872TIP3   OH233030   5.256   0.935   2.102  0.1648  0.2315 -0.1720
 3872TIP3    H133031   5.322   0.904   2.040 -1.8540  0.4338 -2.6057
 3872TIP3    H233032   5.265   1.030   2.101 -1.6144  0.4538 -2.4175
 3873TIP3   OH233033   1.554   3.186   5.549 -0.3787  0.8997 -0.1720
 3873TIP3    H133034   1.623   3.250   5.567  1.2711 -0.6452 -0.7646
 3873TIP3    H233035   1.587   3.104   5.586 -2.2758  0.2795  0.2289
 3874TIP3   OH233036   5.520   5.506   3.372  0.2889  0.7820 -0.3592
 3874TIP3    H133037   5.479   5.535   3.453 -2.4077 -2.5474 -0.3237
 3874TIP3    H233038   5.458   5.532   3.303 -0.2040 -1.1349 -0.6960
 3875TIP3   OH233039   5.817   4.637   5.200  0.0374 -0.4735 -0.0850
 3875TIP3    H133040   5.750   4.689   5.244  1.1689  1.1159 -0.1412
 3875TIP3    H233041   5.774   4.554   5.181 -1.3127 -0.2131  1.5792
 3876TIP3   OH233042   2.918   4.874  13.272 -0.0669  0.0969  0.0677
 3876TIP3    H133043   2.933   4.848  13.363  0.8826  0.2998 -0.0228
 3876TIP3    H233044   2.991   4.932  13.251 -0.6377  0.5753 -0.6230
 3877TIP3   OH233045   6.511   6.124   5.996  0.1841 -0.2773 -0.3505
 3877TIP3    H133046   6.513   6.181   6.073  0.2618 -0.9197  0.1385
 3877TIP3    H233047   6.584   6.153   5.942  0.8907 -0.5879  0.4039
 3878TIP3   OH233048   0.628   3.564   0.244  0.1216 -0.1303 -0.2147
 3878TIP3    H133049   0.579   3.540   0.165 -0.3169  0.8087 -0.2430
 3878TIP3    H233050   0.716   3.585   0.213  0.3610 -1.1629 -0.2559
 3879TIP3   OH233051   0.585   3.598  14.367 -0.5197  0.6503 -0.3530
 3879TIP3    H133052   0.576   3.682  14.321 -0.5760  1.0397  0.3486
 3879TIP3    H233053   0.673   3.601  14.406 -0.2497  0.0807 -0.9036
 3880TIP3   OH233054   4.695   1.590  12.990  0.2632  0.1243  0.3650
 3880TIP3    H133055   4.752   1.667  12.992  0.8064 -0.1999 -1.2182
 3880TIP3    H233056   4.625   1.614  12.930 -0.3730 -0.1040  1.0022
 3881TIP3   OH233057   4.061   6.109  17.316  0.2588  0.0551 -0.4912
 3881TIP3    H133058   4.116   6.079  17.243 -0.2190  0.3183 -0.9702
 3881TIP3    H233059   4.123   6.148  17.378  0.6052  0.4835 -1.0916
 3882TIP3   OH233060   5.602   2.881   1.967  0.1652 -0.0280  0.0730
 3882TIP3    H133061   5.608   2.852   2.058 -1.7984 -0.9135 -0.0204
 3882TIP3    H233062   5.688   2.919   1.947  1.1338 -1.2146  1.8045
 3883TIP3   OH233063   2.357   2.694   5.311 -0.2494 -0.0812 -0.2170
 3883TIP3    H133064   2.397   2.609   5.295 -0.3270  0.2018 -2.2477
 3883TIP3    H233065   2.279   2.695   5.255 -2.3632 -0.0388  2.5082
 3884TIP3   OH233066   2.158   5.679   3.229 -0.5543  0.1667 -0.1279
 3884TIP3    H133067   2.135   5.719   3.145 -1.0986 -0.6517 -0.3828
 3884TIP3    H233068   2.173   5.587   3.209  1.6554  0.3768  0.2745
 3885TIP3   OH233069   4.120   3.219   5.665  0.2679 -0.0410  0.1564
 3885TIP3    H133070   4.067   3.257   5.594 -0.9969 -1.1309  0.4938
 3885TIP3    H233071   4.084   3.132   5.678 -1.6923  1.1506  4.2629
 3886TIP3   OH233072   0.911   2.218  14.545  0.0957  0.0108  0.3049
 3886TIP3    H133073   0.837   2.278  14.532 -1.3551 -2.2302 -3.3938
 3886TIP3    H233074   0.885   2.163  14.618 -0.9552  0.5271  0.3403
 3887TIP3   OH233075   2.196   5.851   4.341 -0.2837 -0.0121 -0.2407
 3887TIP3    H133076   2.269   5.792   4.320 -1.3552 -0.8118 -1.9003
 3887TIP3    H233077   2.144   5.854   4.262 -2.8142 -0.5117  1.3037
 3888TIP3   OH233078   0.431   4.313  14.142 -0.4068  0.4552  0.0810
 3888TIP3    H133079   0.507   4.348  14.187 -0.5149  2.4384 -1.1832
 3888TIP3    H233080   0.463   4.288  14.055 -1.0565  0.6328 -0.2165
 3889TIP3   OH233081   3.314   2.749   1.174 -0.4863 -0.3446 -0.0282
 3889TIP3    H133082   3.318   2.665   1.219  0.6877 -0.2424  0.0921
 3889TIP3    H233083   3.352   2.812   1.235 -0.8202  0.1774 -0.3407
 3890TIP3   OH233084   2.792   1.677  12.108 -0.4243 -0.2049 -0.3114
 3890TIP3    H133085   2.787   1.594  12.060  0.3691 -1.1879  1.1990
 3890TIP3    H233086   2.886   1.691  12.121 -0.5756 -1.1429  2.7304
 3891TIP3   OH233087   4.129   5.432  17.127 -0.7485 -0.1681 -0.1468
 3891TIP3    H133088   4.044   5.423  17.171 -1.4565  0.5320 -1.3132
 3891TIP3    H233089   4.125   5.366  17.057 -0.7687  0.5630 -0.8443
 3892TIP3   OH233090   5.788   0.221   3.021 -0.3107  0.4773 -0.0195
 3892TIP3    H133091   5.761   0.153   3.083 -0.5025  0.4230 -0.1620
 3892TIP3    H233092   5.708   0.246   2.976 -0.2555  0.8688  0.0988
 3893TIP3   OH233093   4.765   2.667   2.755  0.0508  0.2086 -0.0633
 3893TIP3    H133094   4.860   2.677   2.744  0.6892 -3.1842  1.3406
 3893TIP3    H233095   4.750   2.680   2.849 -0.9325  0.7885 -0.2840
 3894TIP3   OH233096   2.720   3.851   4.045  0.2992 -0.1398  0.4886
 3894TIP3    H133097   2.744   3.760   4.027 -0.4893 -0.5617  1.4630
 3894TIP3    H233098   2.792   3.884   4.099  0.2171 -0.4236  0.7728
 3895TIP3   OH233099   6.481   0.299  13.159  0.3151  0.4645  0.4142
 3895TIP3    H133100   6.517   0.286  13.247  0.9857  0.3496  0.1289
 3895TIP3    H233101   6.483   0.393  13.146 -0.0900  0.5075  0.6438
 3896TIP3   OH233102   1.972   4.924   0.770 -0.1290 -0.0678 -0.4060
 3896TIP3    H133103   1.937   4.913   0.858  1.9266  2.0591  0.7886
 3896TIP3    H233104   2.036   4.854   0.761 -0.7246 -0.6189 -0.4586
 3897TIP3   OH233105   3.791   3.578  17.290  0.0829 -0.2406 -0.4063
 3897TIP3    H133106   3.874   3.609  17.252 -0.6228 -0.0354 -1.8645
 3897TIP3    H233107   3.799   3.598  17.383  0.9262  1.5377 -0.7949
 3898TIP3   OH233108   1.262   1.097  13.369 -0.6350 -0.0449 -0.1327
 3898TIP3    H133109   1.297   1.017  13.407 -1.1153 -0.2848 -0.1879
 3898TIP3    H233110   1.248   1.155  13.444  1.0705  0.5485 -0.2197
 3899TIP3   OH233111   6.503   1.689  14.218  0.2499  0.2617 -0.1374
 3899TIP3    H133112   6.531   1.736  14.140  2.6545  0.6996  0.8951
 3899TIP3    H233113   6.449   1.752  14.266 -1.1535  0.0252 -1.3153
 3900TIP3   OH233114   0.430   3.744  12.591  0.1635 -0.2812  0.5559
 3900TIP3    H133115   0.381   3.803  12.648  0.0952  2.0206 -1.7374
 3900TIP3    H233116   0.375   3.733  12.514  1.3256 -1.2650 -0.1787
 3901TIP3   OH233117   6.271   1.040  10.996  0.1156  0.0940  0.1866
 3901TIP3    H133118   6.195   1.092  11.020 -0.8355 -0.6114 -1.1593
 3901TIP3    H233119   6.309   1.013  11.080 -1.4611 -0.0472  0.8860
 3902TIP3   OH233120   1.883   1.096   4.368  0.4371 -0.0876 -0.0523
 3902TIP3    H133121   1.951   1.144   4.321  0.8545  0.7087  1.2975
 3902TIP3    H233122   1.813   1.159   4.380 -0.5726 -0.9079 -1.4337
 3903TIP3   OH233123   5.586   1.280  11.339  0.3131 -0.1424 -0.6652
 3903TIP3    H133124   5.545   1.343  11.398 -1.6138 -0.7169 -1.3277
 3903TIP3    H233125   5.680   1.289  11.356 -0.0794  0.9975  1.1462
 3904TIP3   OH233126   5.977   1.866  16.980 -0.2803  0.1174  0.0758
 3904TIP3    H133127   5.972   1.781  16.936  0.2019  0.5317 -0.8051
 3904TIP3    H233128   6.068   1.871  17.011  0.6979  1.6211 -2.6719
 3905TIP3   OH233129   3.123   5.523   3.316  0.2990 -0.8912  0.2604
 3905TIP3    H133130   3.216   5.547   3.322  0.4805 -1.2009 -1.0509
 3905TIP3    H233131   3.116   5.444   3.369  0.5484 -0.2516  1.2665
 3906TIP3   OH233132   5.775   4.418  15.638  0.0021 -0.4275  1.0127
 3906TIP3    H133133   5.681   4.422  15.620  0.1513 -2.5069 -0.5759
 3906TIP3    H233134   5.791   4.491  15.697 -2.1550  1.5399 -0.6600
 3907TIP3   OH233135   6.530   4.885   4.223  0.0108  0.6494  0.0064
 3907TIP3    H133136   6.601   4.839   4.178 -2.5768 -1.9858 -1.7386
 3907TIP3    H233137   6.523   4.969   4.178 -0.7067 -0.8124 -2.8301
 3908TIP3   OH233138   4.638   3.740   6.108 -0.0778 -0.2716  0.0175
 3908TIP3    H133139   4.702   3.670   6.097 -0.0565 -0.3563  0.6113
 3908TIP3    H233140   4.691   3.817   6.131 -0.1983 -0.4339  0.9024
 3909TIP3   OH233141   5.371   3.932   1.532  0.4364 -0.2449 -0.2889
 3909TIP3    H133142   5.423   3.890   1.464  0.8344 -0.6074  0.2387
 3909TIP3    H233143   5.283   3.938   1.495  1.0947  1.5818 -1.7262
 3910TIP3   OH233144   3.519   2.129  12.122  0.5654 -0.0592  0.1040
 3910TIP3    H133145   3.482   2.173  12.045 -0.0075 -0.8306 -0.0674
 3910TIP3    H233146   3.527   2.038  12.097 -2.4423 -0.9748  1.8763
 3911TIP3   OH233147   5.741   0.179  11.536 -0.1519 -0.6922  0.5512
 3911TIP3    H133148   5.736   0.247  11.469 -1.6370 -1.7085 -0.4062
 3911TIP3    H233149   5.697   0.217  11.612 -1.0222 -0.5812  0.0039
 3912TIP3   OH233150   3.899   0.615  17.138 -0.2955 -0.4314 -0.1143
 3912TIP3    H133151   3.804   0.630  17.134 -0.5711 -1.3943  1.7172
 3912TIP3    H233152   3.916   0.548  17.073 -0.9081 -0.3916 -0.3214
 3913TIP3   OH233153   0.305   1.770   5.205  0.3169 -0.1030 -1.0808
 3913TIP3    H133154   0.252   1.848   5.222  0.0251 -0.7173  1.0207
 3913TIP3    H233155   0.241   1.700   5.195  0.6613 -0.6710  0.4870
 3914TIP3   OH233156   3.367   6.671  15.443  0.2066 -0.0905  0.2315
 3914TIP3    H133157   3.391   6.600  15.383  0.8457  0.2428  0.0807
 3914TIP3    H233158   3.381   6.635  15.530  1.7873  0.2483  0.1479
 3915TIP3   OH233159   0.509   1.292   3.815  1.2491 -0.1151 -0.4043
 3915TIP3    H133160   0.589   1.269   3.862  1.3407  1.2682  0.1768
 3915TIP3    H233161   0.438   1.261   3.871  1.3764  0.5117  0.1249
 3916TIP3   OH233162   3.020   2.684   5.398 -0.2391 -0.5206  0.0870
 3916TIP3    H133163   2.932   2.648   5.408 -0.1285 -0.0678  3.7929
 3916TIP3    H233164   3.006   2.777   5.378 -0.6781 -0.1104  2.1521
 3917TIP3   OH233165   0.101   6.507   4.609 -0.4347 -0.4605  0.1397
 3917TIP3    H133166   0.144   6.548   4.685 -0.3486 -1.9856  0.9715
 3917TIP3    H233167   0.173   6.475   4.555 -0.4933 -0.9812  0.3596
 3918TIP3   OH233168   2.244   5.478   5.270  0.8125  0.4734 -0.3951
 3918TIP3    H133169   2.276   5.388   5.268 -1.0167 -0.3544  2.3478
 3918TIP3    H233170   2.169   5.477   5.210 -0.0001 -0.2122  0.6073
 3919TIP3   OH233171   4.146   1.015   1.797  0.4593 -0.2116  0.0883
 3919TIP3    H133172   4.193   1.084   1.750  0.1031 -0.1545 -0.1858
 3919TIP3    H233173   4.207   0.988   1.866  0.2587  1.0128  0.7842
 3920TIP3   OH233174   5.675   0.367  15.654 -0.0341 -0.1570 -0.1675
 3920TIP3    H133175   5.639   0.375  15.742  0.6343  0.5179  0.0640
 3920TIP3    H233176   5.655   0.451  15.612 -0.1645 -0.3949 -0.5901
 3921TIP3   OH233177   3.868   1.201   3.682  0.5972  0.1487 -0.4241
 3921TIP3    H133178   3.942   1.228   3.737  0.8788  0.1313 -0.7859
 3921TIP3    H233179   3.878   1.255   3.603  1.2141 -1.0675 -1.1986
 3922TIP3   OH233180   1.522   1.480  13.663 -0.1672  0.4838 -0.1251
 3922TIP3    H133181   1.450   1.435  13.708 -0.5016 -0.2847 -1.3900
 3922TIP3    H233182   1.572   1.410  13.621  2.9159  0.6649  2.7587
 3923TIP3   OH233183   0.117   4.415   2.910 -0.1309  0.4370 -0.3989
 3923TIP3    H133184   0.185   4.383   2.969 -1.9929 -0.6370  1.2821
 3923TIP3    H233185   0.109   4.347   2.843 -1.6454 -1.0439  1.1863
 3924TIP3   OH233186   4.302   3.213   0.724 -0.0156  0.1840  0.6903
 3924TIP3    H133187   4.216   3.222   0.764  0.3203  0.3577  1.3827
 3924TIP3    H233188   4.335   3.303   0.716 -0.0149  0.1420  0.1579
 3925TIP3   OH233189   4.912   2.141  15.164 -0.0995  0.2681 -0.0215
 3925TIP3    H133190   4.897   2.111  15.253  0.3107 -0.4147 -0.1648
 3925TIP3    H233191   4.947   2.230  15.173 -1.6053  0.8339  0.4088
 3926TIP3   OH233192   4.861   6.519  14.965  1.0310 -0.1316 -0.3885
 3926TIP3    H133193   4.812   6.529  14.883 -2.3887  0.8212  1.5436
 3926TIP3    H233194   4.888   6.428  14.966 -0.1889 -0.5648 -1.9231
 3927TIP3   OH233195   4.931   2.858   3.903 -0.5940 -0.0197 -0.4645
 3927TIP3    H133196   4.919   2.794   3.973  0.9881 -0.6527 -0.7346
 3927TIP3    H233197   4.842   2.885   3.880 -1.1628 -0.2610  1.3378
 3928TIP3   OH233198   3.639   1.229  11.844  0.2789  0.1113 -0.0991
 3928TIP3    H133199   3.688   1.211  11.925 -1.7920  0.6344  1.3512
 3928TIP3    H233200   3.645   1.147  11.794  1.2208 -0.3783  0.7706
 3929TIP3   OH233201   5.121   4.083   5.290 -0.2787  0.4699  0.4082
 3929TIP3    H133202   5.027   4.087   5.302 -0.5410 -0.7299 -1.0081
 3929TIP3    H233203   5.135   4.105   5.197  0.3436 -3.8437 -0.7301
 3930TIP3   OH233204   6.092   0.383  15.540  0.1175 -0.4800  0.6947
 3930TIP3    H133205   6.074   0.474  15.563  0.0827 -0.5816  1.0738
 3930TIP3    H233206   6.162   0.388  15.475 -0.7115 -0.1194 -0.1904
 3931TIP3   OH233207   3.264   1.349   3.223  0.2556 -1.0214 -0.3276
 3931TIP3    H133208   3.326   1.414   3.192 -0.3298  0.3736  1.2711
 3931TIP3    H233209   3.187   1.360   3.167  0.4519 -0.9063 -0.5768
 3932TIP3   OH233210   2.108   0.900  14.281 -0.1230  0.2886 -0.4077
 3932TIP3    H133211   2.046   0.866  14.217  1.3208 -1.3833 -1.0027
 3932TIP3    H233212   2.159   0.964  14.233 -0.0116  0.1164 -0.5220
 3933TIP3   OH233213   5.132   6.160  11.530  0.0273 -0.5765  0.2676
 3933TIP3    H133214   5.091   6.158  11.444  0.7871 -1.5748 -0.0836
 3933TIP3    H233215   5.225   6.144  11.513  0.6907  2.0017  1.0010
 3934TIP3   OH233216   4.832   1.163   3.916 -0.5501 -0.1803 -0.4973
 3934TIP3    H133217   4.889   1.224   3.962 -0.9966 -0.6884  0.7972
 3934TIP3    H233218   4.870   1.077   3.933 -0.3187 -0.3276 -1.7103
 3935TIP3   OH233219   0.840   0.505  14.190 -0.0243 -0.7404  0.0139
 3935TIP3    H133220   0.760   0.498  14.138 -0.4384  0.5437  0.4392
 3935TIP3    H233221   0.811   0.494  14.281  0.0792  0.8741  0.2693
 3936TIP3   OH233222   5.654   5.708   1.380 -0.1957 -0.6043  0.5870
 3936TIP3    H133223   5.726   5.692   1.318 -0.2015 -0.4269  0.5323
 3936TIP3    H233224   5.579   5.665   1.341  0.2066 -2.0686  1.3724
 3937TIP3   OH233225   6.612   4.388  14.889  0.0847  0.4697  0.1901
 3937TIP3    H133226   6.584   4.402  14.980  1.7899  2.1096  0.5147
 3937TIP3    H233227   6.617   4.293  14.880 -0.0273  0.2798  1.8454
 3938TIP3   OH233228   1.738   3.277  12.834 -0.1164  0.1138 -0.2498
 3938TIP3    H133229   1.718   3.370  12.834  1.0194  0.4391 -2.7500
 3938TIP3    H233230   1.759   3.257  12.742 -2.6401 -3.1082 -0.3142
 3939TIP3   OH233231   2.191   2.675  16.960  0.7972  0.1563  0.1474
 3939TIP3    H133232   2.264   2.624  16.996  1.0385  0.5757  0.2564
 3939TIP3    H233233   2.210   2.682  16.867 -0.0070 -1.2314 -0.1551
 3940TIP3   OH233234   4.266   1.614  13.035 -0.5364 -0.1653 -0.0230
 3940TIP3    H133235   4.318   1.534  13.025 -0.1109  0.0260  0.6091
 3940TIP3    H233236   4.177   1.583  13.054 -0.1769 -0.4900  1.1703
 3941TIP3   OH233237   1.868   0.505   3.086 -1.0251 -0.0897 -0.2557
 3941TIP3    H133238   1.836   0.417   3.068  1.9556 -0.8178 -2.7192
 3941TIP3    H233239   1.897   0.502   3.177 -2.4896 -1.0906  0.2132
 3942TIP3   OH233240   4.409   4.916  17.085 -0.5035 -0.3932 -1.0062
 3942TIP3    H133241   4.448   4.831  17.105 -1.4727 -0.2580  1.8409
 3942TIP3    H233242   4.324   4.894  17.045 -0.7771 -0.7932 -0.2269
 3943TIP3   OH233243   1.169   2.259   3.278  0.1215  0.1658 -0.1709
 3943TIP3    H133244   1.191   2.352   3.278 -0.5350  0.3762  2.0385
 3943TIP3    H233245   1.122   2.246   3.360 -0.7449 -1.9130 -0.9425
 3944TIP3   OH233246   0.002   5.269   3.368 -0.2747  0.2728  0.1923
 3944TIP3    H133247  -0.003   5.267   3.464  0.5941 -2.0470  0.2481
 3944TIP3    H233248   0.072   5.209   3.346 -1.1395 -0.0426 -1.9546
 3945TIP3   OH233249   0.589   6.682  15.530  0.1019 -0.5021 -0.0959
 3945TIP3    H133250   0.655   6.631  15.577  0.5806 -0.4448 -0.6963
 3945TIP3    H233251   0.568   6.629  15.453 -0.2706 -0.3365 -0.1126
 3946TIP3   OH233252   1.754   0.905  14.707 -0.0649 -0.8657 -0.2060
 3946TIP3    H133253   1.832   0.909  14.762  0.1537 -0.3191 -0.5565
 3946TIP3    H233254   1.771   0.965  14.635 -1.0626 -0.2508  0.0434
 3947TIP3   OH233255   3.887   1.165   2.305  0.4243  0.0775  0.2788
 3947TIP3    H133256   3.835   1.233   2.263  0.8542 -0.8968 -1.9694
 3947TIP3    H233257   3.977   1.199   2.304  0.4058  0.1315  0.5620
 3948TIP3   OH233258   4.486   4.154   4.407  0.2721 -0.1127 -0.5420
 3948TIP3    H133259   4.480   4.174   4.500  0.7024  0.5017 -0.6395
 3948TIP3    H233260   4.485   4.059   4.403  1.7704 -0.1804  0.2099
 3949TIP3   OH233261   5.804   3.897  16.696 -0.2141  0.1318  0.1664
 3949TIP3    H133262   5.882   3.909  16.749  1.3657  0.7508 -2.1566
 3949TIP3    H233263   5.767   3.985  16.686 -1.1331 -0.1282  1.0705
 3950TIP3   OH233264   4.501   3.530  15.316  0.3021 -0.1834 -0.3291
 3950TIP3    H133265   4.502   3.570  15.229 -3.4760  2.2000  0.5311
 3950TIP3    H233266   4.555   3.588  15.369 -1.0766  1.0133 -0.1801
 3951TIP3   OH233267   3.967   5.240   1.959  0.3262 -0.0442  0.3196
 3951TIP3    H133268   3.932   5.167   2.010 -1.5401 -0.4577 -1.4190
 3951TIP3    H233269   4.050   5.207   1.924  0.1903 -0.8262  0.7098
 3952TIP3   OH233270   3.107   3.536   2.655 -0.3470  0.1791  0.2348
 3952TIP3    H133271   3.202   3.526   2.666 -0.3682  0.6941  0.9809
 3952TIP3    H233272   3.089   3.503   2.567  0.5309  0.1145  0.0731
 3953TIP3   OH233273   2.123   5.415  13.106  0.4224 -0.0122  0.2014
 3953TIP3    H133274   2.190   5.434  13.171 -0.5632 -0.3764  1.3446
 3953TIP3    H233275   2.068   5.349  13.146 -0.7169  0.3778 -0.6621
 3954TIP3   OH233276   5.490   1.830   4.424  0.7700  0.3190  0.2901
 3954TIP3    H133277   5.551   1.891   4.383  0.1375  1.6531  1.2562
 3954TIP3    H233278   5.407   1.843   4.378  0.9508 -0.8322 -0.4089
 3955TIP3   OH233279   3.472   2.013  11.452  0.1151 -0.1986 -0.4814
 3955TIP3    H133280   3.436   1.925  11.454  0.8326 -0.6157 -2.7539
 3955TIP3    H233281   3.400   2.069  11.483 -0.6208 -1.4730  0.1915
 3956TIP3   OH233282   0.908   2.151  13.802  0.0998  0.3985  0.0255
 3956TIP3    H133283   0.843   2.167  13.871  0.2409 -2.2568  0.8707
 3956TIP3    H233284   0.860   2.162  13.720 -1.1182 -0.3289  0.6202
 3957TIP3   OH233285   3.757   2.795   4.887 -0.0182  0.1193 -0.5315
 3957TIP3    H133286   3.774   2.717   4.939 -0.5764 -0.3698 -1.0671
 3957TIP3    H233287   3.666   2.817   4.906  0.1987  0.7763 -0.2144
 3958TIP3   OH233288   5.240   5.608   2.725  0.5444 -0.3590 -0.2958
 3958TIP3    H133289   5.321   5.658   2.716  0.9115 -0.5560  1.4032
 3958TIP3    H233290   5.224   5.571   2.638  1.9632  0.1571 -0.8118
 3959TIP3   OH233291   2.296   0.898  14.486  0.4078 -0.3485 -0.1186
 3959TIP3    H133292   2.353   0.968  14.452 -0.1042  0.5695  0.8360
 3959TIP3    H233293   2.223   0.895  14.424  0.2187  0.2828  0.0608
 3960TIP3   OH233294   0.310   2.095  13.001 -0.1162 -0.7202 -0.4617
 3960TIP3    H133295   0.350   2.135  13.079  0.9603 -1.5376 -0.5731
 3960TIP3    H233296   0.300   2.168  12.940 -2.6489  0.3233  1.0261
 3961TIP3   OH233297   6.338   0.534   5.162  0.2166 -0.0907 -0.0810
 3961TIP3    H133298   6.255   0.547   5.116 -0.3877  0.2111  1.0443
 3961TIP3    H233299   6.376   0.622   5.169  1.1079 -0.3457 -1.4125
 3962TIP3   OH233300   6.055   5.338  16.197  0.0171  0.4226  0.7766
 3962TIP3    H133301   6.133   5.284  16.191 -0.4274 -0.2770  1.0659
 3962TIP3    H233302   6.035   5.362  16.107 -0.6997 -1.2785  0.4330
 3963TIP3   OH233303   0.429   1.853   0.671  0.5622 -0.1543 -0.1276
 3963TIP3    H133304   0.398   1.765   0.693  1.8441 -1.5645 -3.4217
 3963TIP3    H233305   0.513   1.839   0.628  0.3176  2.5745 -1.7023
 3964TIP3   OH233306   2.050   5.707  13.341  0.0647 -0.4348  0.1295
 3964TIP3    H133307   1.979   5.670  13.289 -0.5894 -2.5204  2.3178
 3964TIP3    H233308   2.124   5.647  13.327  0.5238  0.1322  0.0624
 3965TIP3   OH233309   3.176   3.083   2.293 -0.2246 -0.8051 -0.7808
 3965TIP3    H133310   3.080   3.092   2.294 -0.0802  1.2381 -1.0207
 3965TIP3    H233311   3.202   3.113   2.207  0.6545 -1.2461 -0.6739
 3966TIP3   OH233312   3.428   1.019  14.224 -0.0675  0.0101  0.0100
 3966TIP3    H133313   3.413   0.982  14.311 -1.1727  0.2253 -0.0733
 3966TIP3    H233314   3.509   1.069  14.233  0.5893 -1.1184  0.5314
 3967TIP3   OH233315   6.339   3.488  13.089  0.4903  0.1045 -0.4532
 3967TIP3    H133316   6.354   3.545  13.165 -0.3092  0.0452 -0.2427
 3967TIP3    H233317   6.247   3.503  13.066  0.6500 -0.0905 -1.2371
 3968TIP3   OH233318   4.876   6.515   5.228 -1.1176  0.4136 -0.2256
 3968TIP3    H133319   4.927   6.568   5.289  0.9649 -0.9585 -0.6671
 3968TIP3    H233320   4.785   6.530   5.253 -0.4746  2.1861  1.2675
 3969TIP3   OH233321   4.928   6.218  11.937 -0.0406  0.5116  0.4269
 3969TIP3    H133322   4.986   6.232  11.862 -0.9297 -2.2973 -0.9391
 3969TIP3    H233323   4.876   6.297  11.943 -1.7257 -0.0500 -3.6866
 3970TIP3   OH233324   2.421   5.338   3.871 -0.1792  0.7254  0.0293
 3970TIP3    H133325   2.370   5.406   3.915  0.5534 -0.0714  2.2233
 3970TIP3    H233326   2.510   5.372   3.867  0.0848  0.1270  0.6557
 3971TIP3   OH233327   3.592   1.684  14.330 -0.1681  0.2146 -0.1763
 3971TIP3    H133328   3.506   1.702  14.368 -0.3417 -1.3491  0.2233
 3971TIP3    H233329   3.620   1.768  14.295 -0.4102  1.5587  2.5908
 3972TIP3   OH233330   0.201   5.790   5.795  0.3808 -0.0920  0.3381
 3972TIP3    H133331   0.275   5.756   5.846  1.5421  1.3192 -0.3408
 3972TIP3    H233332   0.147   5.713   5.778  1.2296 -1.0152  1.5907
 3973TIP3   OH233333   3.574   4.418   6.089 -0.0285 -0.6066 -0.1706
 3973TIP3    H133334   3.669   4.418   6.074  0.0313 -0.2562  0.1864
 3973TIP3    H233335   3.548   4.510   6.078 -0.2950 -0.6710 -0.0871
 3974TIP3   OH233336   5.111   1.969   4.429 -0.1825  0.2770 -0.0089
 3974TIP3    H133337   5.161   1.934   4.355 -1.5059 -1.3193 -0.2145
 3974TIP3    H233338   5.021   1.941   4.412 -0.4801 -0.3901  2.3425
 3975TIP3   OH233339   6.519   3.235   1.797  0.3443 -0.8116  0.9102
 3975TIP3    H133340   6.573   3.163   1.830  0.1108 -1.0014  0.8834
 3975TIP3    H233341   6.522   3.224   1.702 -0.1590 -1.1346  0.9263
 3976TIP3   OH233342   4.395   0.924   3.141  0.2108 -0.2574  0.4071
 3976TIP3    H133343   4.317   0.926   3.196  1.4034  1.7270  2.1666
 3976TIP3    H233344   4.369   0.970   3.061 -0.4009  0.5619  1.0536
 3977TIP3   OH233345   4.402   5.431   3.624 -0.4333 -0.2204  0.0299
 3977TIP3    H133346   4.445   5.516   3.635  0.8934 -0.6333 -1.6660
 3977TIP3    H233347   4.310   5.453   3.609 -0.9344  0.6894  3.4386
 3978TIP3   OH233348   4.119   0.115  16.811 -0.4279 -0.3796 -0.3304
 3978TIP3    H133349   4.211   0.118  16.839  0.2510 -1.6313 -2.2422
 3978TIP3    H233350   4.111   0.185  16.746 -0.3858 -1.2752 -1.3191
 3979TIP3   OH233351   4.894   5.458  15.072 -0.1814 -0.0945  0.5933
 3979TIP3    H133352   4.878   5.510  15.150  2.1676  0.6422  0.6780
 3979TIP3    H233353   4.951   5.387  15.101 -0.0721 -0.3764 -0.2718
 3980TIP3   OH233354   1.507   3.147  16.134  0.4835  0.2400  0.5694
 3980TIP3    H133355   1.449   3.212  16.173 -0.4390 -1.4687  2.2360
 3980TIP3    H233356   1.505   3.165  16.040 -0.4873  1.9794  0.8961
 3981TIP3   OH233357   2.854   1.213   1.285 -0.9165 -0.2687 -0.2748
 3981TIP3    H133358   2.884   1.243   1.371 -1.0702  0.3034 -0.4169
 3981TIP3    H233359   2.894   1.126   1.275 -1.7168 -0.7987  0.8214
 3982TIP3   OH233360   0.040   0.723  14.322 -0.0504  0.0836 -0.5014
 3982TIP3    H133361   0.028   0.690  14.411 -2.2100 -1.2521 -1.1961
 3982TIP3    H233362   0.067   0.646  14.272  2.4313  1.0851 -0.8359
 3983TIP3   OH233363   5.007   2.153  12.017 -1.2109  0.1155 -0.2005
 3983TIP3    H133364   4.976   2.238  11.985 -0.7553  1.0712  1.7245
 3983TIP3    H233365   4.978   2.150  12.109  1.2852 -0.4781  0.6469
 3984TIP3   OH233366   0.798   3.893  15.461 -0.3158 -0.7430  0.1767
 3984TIP3    H133367   0.861   3.960  15.488 -0.0016 -1.4627  1.3140
 3984TIP3    H233368   0.846   3.810  15.469 -1.6515 -1.4179  2.0537
 3985TIP3   OH233369   2.511   3.149  14.877  0.2733  0.0242 -0.1510
 3985TIP3    H133370   2.420   3.165  14.852 -0.1555 -0.9263  0.7267
 3985TIP3    H233371   2.520   3.054  14.878  1.5429  0.1037 -1.0758
 3986TIP3   OH233372   4.047   3.634  13.976  0.2247 -0.1935  0.2308
 3986TIP3    H133373   4.022   3.615  13.885 -1.3120 -1.7160  0.9270
 3986TIP3    H233374   3.978   3.692  14.008  1.2064  1.0311  0.2156
 3987TIP3   OH233375   5.366   1.970  14.360 -0.1579  0.0207 -1.3872
 3987TIP3    H133376   5.418   1.909  14.412  0.2619  1.2753 -0.2431
 3987TIP3    H233377   5.284   1.924  14.343  0.2434 -0.9491 -0.7837
 3988TIP3   OH233378   2.429   0.289   1.163  0.1576 -0.2119 -0.1671
 3988TIP3    H133379   2.373   0.270   1.088 -1.1041 -0.1782  0.7315
 3988TIP3    H233380   2.432   0.206   1.212 -0.0798  0.1031  0.3976
 3989TIP3   OH233381   3.460   1.367  16.428  0.5634  0.9536 -0.3089
 3989TIP3    H133382   3.439   1.457  16.401 -0.1736  0.8809 -0.0027
 3989TIP3    H233383   3.401   1.349  16.501  0.7091  0.2170 -0.3632
 3990TIP3   OH233384   4.549   2.352   6.338 -0.3290  0.1955  0.2060
 3990TIP3    H133385   4.580   2.434   6.376 -0.6092  2.0241 -3.0927
 3990TIP3    H233386   4.455   2.364   6.326 -0.8345 -1.6391  1.7974
 3991TIP3   OH233387   4.207   2.343  11.391  0.1355  0.5040 -0.3994
 3991TIP3    H133388   4.211   2.422  11.338 -0.9768  0.8369 -0.0062
 3991TIP3    H233389   4.275   2.355  11.457  1.7890 -0.0759 -1.9052
 3992TIP3   OH233390   0.979   1.271   5.825  0.0578  0.2791  0.3831
 3992TIP3    H133391   0.990   1.222   5.744  1.1320 -0.5493  1.0149
 3992TIP3    H233392   1.068   1.288   5.856 -0.3328  0.9103  1.2077
 3993TIP3   OH233393   2.665   4.591  15.771 -0.0082  0.4202 -0.3650
 3993TIP3    H133394   2.721   4.626  15.702 -1.2244 -0.3155 -1.7837
 3993TIP3    H233395   2.726   4.563  15.840  1.2728  0.5808 -1.3961
 3994TIP3   OH233396   4.771   3.796  10.599  0.4418 -0.1443  0.0253
 3994TIP3    H133397   4.813   3.856  10.538  1.1272  1.1268  1.6610
 3994TIP3    H233398   4.691   3.768  10.554  0.4797  1.4139 -1.1022
 3995TIP3   OH233399   6.657   4.283   5.754 -0.8253  0.0560  0.2131
 3995TIP3    H133400   6.620   4.229   5.824 -0.5571 -0.8723 -0.3361
 3995TIP3    H233401   6.584   4.296   5.693 -0.6785 -0.3996 -0.0651
 3996TIP3   OH233402   5.934   3.323   1.935 -0.2590 -0.2951  0.1712
 3996TIP3    H133403   5.936   3.387   2.006 -1.0219  1.1837 -1.0728
 3996TIP3    H233404   6.025   3.318   1.905 -0.2081  0.3131  0.2010
 3997TIP3   OH233405   6.400   4.606   2.736  0.2464  0.7362 -0.0776
 3997TIP3    H133406   6.463   4.534   2.733 -0.9056 -0.2820 -0.7940
 3997TIP3    H233407   6.441   4.676   2.686  0.6256 -0.0685 -0.9154
 3998TIP3   OH233408   3.294   4.115  10.902 -0.1305 -0.4550  0.4346
 3998TIP3    H133409   3.237   4.041  10.924 -0.5038 -0.2818  0.0281
 3998TIP3    H233410   3.290   4.122  10.807 -0.5914  0.4966  0.5205
 3999TIP3   OH233411   5.277   4.139   5.786  0.2065 -0.5286 -0.0300
 3999TIP3    H133412   5.233   4.207   5.735 -1.1819  0.0255  1.7694
 3999TIP3    H233413   5.358   4.120   5.738 -0.0768  1.3455 -1.3358
 4000TIP3   OH233414   1.028   1.677  11.963 -0.1892 -0.5847  0.3798
 4000TIP3    H133415   0.962   1.739  11.931  2.5772  1.8868 -1.0392
 4000TIP3    H233416   1.034   1.695  12.057 -0.5566  0.1458  0.2708
 4001TIP3   OH233417   3.277   3.310  12.802  0.4489  0.0796 -0.5129
 4001TIP3    H133418   3.284   3.287  12.710  2.6483  1.6341 -0.8081
 4001TIP3    H233419   3.311   3.234  12.849 -1.1638 -0.9287 -0.9099
 4002TIP3   OH233420   2.636   6.550  11.911  0.0511 -0.1214 -0.2915
 4002TIP3    H133421   2.611   6.485  11.977  0.3357 -0.9116 -0.9492
 4002TIP3    H233422   2.715   6.590  11.946  0.6937 -1.1427 -0.5389
 4003TIP3   OH233423   3.643   5.953  13.624 -0.6024  0.2129  0.4201
 4003TIP3    H133424   3.593   5.966  13.544  0.7416 -0.3354 -0.5358
 4003TIP3    H233425   3.605   5.874  13.663  0.7602 -1.4023 -1.3413
 4004TIP3   OH233426   3.550   2.761   4.523 -0.2150  0.3483  0.0922
 4004TIP3    H133427   3.638   2.754   4.560 -0.7260  0.3900  1.3822
 4004TIP3    H233428   3.564   2.784   4.432  1.0901  1.6306  0.5804
 4005TIP3   OH233429   1.545   4.771   5.753 -0.2837 -0.1477 -0.0343
 4005TIP3    H133430   1.468   4.815   5.789 -0.8479 -0.6891 -0.5321
 4005TIP3    H233431   1.602   4.756   5.828 -1.7887 -1.9966  0.8399
 4006TIP3   OH233432   3.759   2.368  11.081 -0.2061 -0.8187  0.2575
 4006TIP3    H133433   3.701   2.396  11.152 -1.2124  1.5913 -1.3794
 4006TIP3    H233434   3.761   2.442  11.021  2.7806 -1.7065 -0.9316
 4007TIP3   OH233435   6.775   1.075   3.744  0.2793  0.0268  0.1853
 4007TIP3    H133436   6.686   1.051   3.769 -0.2222  1.4813 -0.0838
 4007TIP3    H233437   6.767   1.104   3.653  1.3896 -1.5987 -0.4695
 4008TIP3   OH233438   1.662   1.128  15.844  0.2886 -0.2530 -0.1997
 4008TIP3    H133439   1.628   1.101  15.929 -1.4380  1.6351 -0.1887
 4008TIP3    H233440   1.744   1.174  15.864 -0.6124  1.0946  0.6409
 4009TIP3   OH233441   0.192   3.353  15.338 -0.3548 -0.4575  0.8406
 4009TIP3    H133442   0.232   3.266  15.339 -0.7226 -0.6374  1.9884
 4009TIP3    H233443   0.145   3.358  15.421 -1.3514  0.3780  0.2494
 4010TIP3   OH233444   2.660   4.045   0.939  0.8500 -0.9586  0.5909
 4010TIP3    H133445   2.605   3.967   0.942 -0.7749  0.1488  1.5045
 4010TIP3    H233446   2.670   4.071   1.031 -0.1854  0.8805  0.2467
 4011TIP3   OH233447   6.438   1.977   0.108  0.0978 -0.2594  0.2840
 4011TIP3    H133448   6.502   2.042   0.138 -0.6305  0.3327  0.6012
 4011TIP3    H233449   6.357   2.001   0.154 -0.1016 -1.6244  0.6934
 4012TIP3   OH233450   1.881   1.264   3.310  0.3642  0.5261 -0.1007
 4012TIP3    H133451   1.949   1.219   3.359  0.9061 -0.0401 -1.3254
 4012TIP3    H233452   1.800   1.243   3.356  0.6807 -1.1933 -0.2577
 4013TIP3   OH233453   5.326   6.339   4.111 -0.5681  0.7133 -0.1523
 4013TIP3    H133454   5.391   6.354   4.042 -0.3110 -2.3519 -0.6853
 4013TIP3    H233455   5.375   6.300   4.183 -1.4423  0.6174  0.4005
 4014TIP3   OH233456   2.448   2.532  14.058  0.6695 -0.1504  0.5771
 4014TIP3    H133457   2.522   2.531  13.997 -1.2737 -0.1439 -1.9431
 4014TIP3    H233458   2.410   2.619  14.049 -0.4909 -0.6231  0.7531
 4015TIP3   OH233459   2.255   6.091   4.055 -0.6136 -0.0824  0.0783
 4015TIP3    H133460   2.307   6.068   3.978 -0.6339  3.5478 -1.1809
 4015TIP3    H233461   2.185   6.025   4.056 -0.1432 -0.7412 -2.5202
 4016TIP3   OH233462   0.383   4.393   5.750 -0.1448  0.4835 -0.2753
 4016TIP3    H133463   0.287   4.398   5.747 -0.1636  1.0528  0.6940
 4016TIP3    H233464   0.402   4.300   5.759 -0.6410  0.4161  0.1510
 4017TIP3   OH233465   2.568   0.641  16.416 -0.4818 -0.2540  0.0415
 4017TIP3    H133466   2.522   0.573  16.366 -0.6215 -0.3443  0.2938
 4017TIP3    H233467   2.527   0.640  16.502  0.1194 -0.4771  0.3370
 4018TIP3   OH233468   0.254   5.996  10.585 -0.7015 -0.4111 -0.0732
 4018TIP3    H133469   0.225   6.067  10.528  0.9037 -0.0692 -0.5149
 4018TIP3    H233470   0.327   5.955  10.538 -0.2416 -1.0169  1.1105
 4019TIP3   OH233471   0.204   0.998   2.914 -0.1269 -0.2748  0.1227
 4019TIP3    H133472   0.291   0.960   2.910 -0.0098  0.1210 -1.5619
 4019TIP3    H233473   0.200   1.058   2.840 -1.0300  1.4591  1.4898
 4020TIP3   OH233474   4.631   2.017  14.797  0.3479 -0.0855  0.3938
 4020TIP3    H133475   4.716   1.986  14.764 -0.3741 -1.3913 -0.3521
 4020TIP3    H233476   4.646   2.033  14.890  0.9676 -2.1887  0.7197
 4021TIP3   OH233477   1.340   0.102   6.005 -0.1528  0.1354 -0.6774
 4021TIP3    H133478   1.341   0.101   6.100 -4.7674 -0.3670 -0.4370
 4021TIP3    H233479   1.379   0.186   5.981  0.1225  0.7350  1.6550
 4022TIP3   OH233480   6.760   0.908   0.571 -0.5718 -0.3627 -0.1182
 4022TIP3    H133481   6.764   0.990   0.620 -1.9039 -1.6480  2.3693
 4022TIP3    H233482   6.829   0.853   0.610  1.1420 -0.0919 -2.5864
 4023TIP3   OH233483   6.366   4.464  14.775  0.1268  0.1280  0.0395
 4023TIP3    H133484   6.444   4.441  14.825  0.7570  1.6742 -0.1710
 4023TIP3    H233485   6.358   4.396  14.708  0.8082 -0.4917  0.5801
 4024TIP3   OH233486   5.357   1.452   2.019 -0.0797 -0.6566  0.3327
 4024TIP3    H133487   5.413   1.497   2.083  0.5079 -2.6041  1.2900
 4024TIP3    H233488   5.308   1.388   2.071 -0.3421 -1.6107 -1.0284
 4025TIP3   OH233489   3.055   0.024  13.924  0.1428 -0.5629 -0.1415
 4025TIP3    H133490   3.093  -0.063  13.914 -0.8871 -1.0300 -0.1877
 4025TIP3    H233491   2.974   0.020  13.873 -1.0262 -0.2998  1.6347
 4026TIP3   OH233492   1.361   6.372   2.293 -0.1798  0.1249  0.2162
 4026TIP3    H133493   1.279   6.324   2.287 -0.1123 -0.2209  1.8033
 4026TIP3    H233494   1.338   6.462   2.267 -0.8941 -0.1233 -0.0309
 4027TIP3   OH233495   1.955   0.571   6.205  0.2223 -0.1741 -0.0338
 4027TIP3    H133496   1.977   0.567   6.112 -0.9782  1.2097 -0.4052
 4027TIP3    H233497   2.032   0.534   6.249  1.2620  0.1508 -1.5092
 4028TIP3   OH233498   4.337   3.311  13.016 -0.3647 -0.2847 -0.3440
 4028TIP3    H133499   4.323   3.398  12.979  0.0237 -0.1538 -0.1924
 4028TIP3    H233500   4.286   3.253  12.961  0.7172 -0.1824 -1.4869
 4029TIP3   OH233501   5.726   1.274  14.023  0.0752  0.3280 -0.3190
 4029TIP3    H133502   5.722   1.370  14.021  4.6807  0.9109  2.7979
 4029TIP3    H233503   5.780   1.251  13.947  0.1706  0.4037 -0.2755
 4030TIP3   OH233504   0.710   1.106  12.989  0.5321  0.1830  0.2702
 4030TIP3    H133505   0.647   1.112  12.917 -0.9484 -1.3132  1.3533
 4030TIP3    H233506   0.766   1.033  12.966  0.4259  0.0725  0.3611
 4031TIP3   OH233507   3.786   1.055  16.293 -0.4763  0.8542 -0.2820
 4031TIP3    H133508   3.826   1.037  16.378  0.9950  1.6457 -0.7795
 4031TIP3    H233509   3.705   1.003  16.294  0.7504 -1.1721  0.5904
 4032TIP3   OH233510   3.174   6.009  15.642 -0.1251  0.2462  0.3510
 4032TIP3    H133511   3.111   5.940  15.662  0.9279 -0.8398  0.0696
 4032TIP3    H233512   3.123   6.076  15.596 -2.2797  2.0375  4.7603
 4033TIP3   OH233513   0.663   1.266  12.694  0.2369 -0.0531  0.2187
 4033TIP3    H133514   0.720   1.191  12.677 -0.5788 -0.9622  1.2994
 4033TIP3    H233515   0.701   1.338  12.643  2.5571 -0.5016  1.1846
 4034TIP3   OH233516   4.177   3.625  13.372  0.4139  0.3243 -0.5709
 4034TIP3    H133517   4.229   3.644  13.293  0.5646  1.0802 -0.2998
 4034TIP3    H233518   4.157   3.712  13.409 -2.1261  0.1461 -1.3400
 4035TIP3   OH233519   3.554   2.963   4.011  0.2251 -0.3434  0.1179
 4035TIP3    H133520   3.535   3.039   4.065  1.0114  0.6409 -0.9515
 4035TIP3    H233521   3.511   2.980   3.928  1.5996 -0.3647 -0.6362
 4036TIP3   OH233522   2.101   3.159  10.237 -0.5356  0.7204 -0.0739
 4036TIP3    H133523   2.064   3.238  10.198 -0.9794 -0.2431 -1.6912
 4036TIP3    H233524   2.171   3.191  10.294  1.1152  2.2199 -2.7042
 4037TIP3   OH233525   0.799   6.075  16.357  0.3539  0.3816  0.4072
 4037TIP3    H133526   0.766   6.155  16.398 -0.9912 -1.0296  2.2672
 4037TIP3    H233527   0.854   6.034  16.424 -1.2485 -1.5936  0.6242
 4038TIP3   OH233528   4.118   0.827   5.650  0.3255 -0.2063  0.0620
 4038TIP3    H133529   4.118   0.744   5.601 -2.2984 -0.6708  0.6603
 4038TIP3    H233530   4.061   0.885   5.599 -1.6396 -0.3693  1.9169
 4039TIP3   OH233531   1.534   4.548   6.270  0.1550  0.1126 -0.0543
 4039TIP3    H133532   1.511   4.482   6.205  0.7307 -0.0503 -0.1007
 4039TIP3    H233533   1.538   4.500   6.353 -1.7244  0.5268  0.3352
 4040TIP3   OH233534   5.135   2.950  17.318  0.3661 -1.0512 -0.5767
 4040TIP3    H133535   5.159   2.993  17.236  0.1491 -0.1625 -0.1881
 4040TIP3    H233536   5.155   2.858  17.304  0.3724 -0.9014 -1.6087
 4041TIP3   OH233537   1.227   2.981   1.970 -0.2252  0.1028  0.5317
 4041TIP3    H133538   1.243   3.040   1.897  0.4246 -0.1222  0.4851
 4041TIP3    H233539   1.262   3.027   2.047 -0.8914  0.3324  0.7066
 4042TIP3   OH233540   4.631   6.064  13.929  0.1749  0.0855  0.3227
 4042TIP3    H133541   4.639   6.040  14.022 -0.4915 -0.4906  0.2441
 4042TIP3    H233542   4.701   6.016  13.886 -0.1713 -0.4871  0.3887
 4043TIP3   OH233543   3.942   0.798   0.800  0.4859  0.1712 -0.6592
 4043TIP3    H133544   4.026   0.753   0.792  0.5584  0.1582  0.1084
 4043TIP3    H233545   3.876   0.732   0.777  0.4184 -1.1365  2.8128
 4044TIP3   OH233546   2.654   6.281  16.149  0.0647  0.0050  0.3794
 4044TIP3    H133547   2.702   6.363  16.142 -0.7077  0.3994 -0.6415
 4044TIP3    H233548   2.716   6.214  16.120  0.8291  0.1634  1.6077
 4045TIP3   OH233549   1.215   3.602   5.964 -0.6140  0.3873 -0.1791
 4045TIP3    H133550   1.168   3.664   5.908 -1.2328 -0.3034 -0.4377
 4045TIP3    H233551   1.206   3.518   5.920  0.1078  0.0846  0.2355
 4046TIP3   OH233552   4.597   5.716   4.747 -0.4861 -0.0722 -0.1304
 4046TIP3    H133553   4.605   5.805   4.714 -0.6015  0.1624  0.4629
 4046TIP3    H233554   4.683   5.676   4.731 -0.1211  0.4527  0.4723
 4047TIP3   OH233555   3.695   3.067  11.224 -0.2973 -0.3970  0.0301
 4047TIP3    H133556   3.687   3.137  11.159  0.3289 -1.7182 -1.5147
 4047TIP3    H233557   3.768   3.096  11.280  0.8864 -0.4317 -1.4360
 4048TIP3   OH233558   1.694   4.046  13.028 -0.2275  0.3901 -0.9067
 4048TIP3    H133559   1.786   4.019  13.024 -0.7016 -1.4963 -0.2673
 4048TIP3    H233560   1.665   4.043  12.937 -1.0787 -4.8402 -0.8134
 4049TIP3   OH233561   3.857   5.680  15.810  0.1340  0.1717  0.7946
 4049TIP3    H133562   3.768   5.648  15.824 -0.5797  1.3074 -0.7685
 4049TIP3    H233563   3.854   5.772  15.839  0.3841  0.6259 -0.5482
 4050TIP3   OH233564   4.486   5.027  13.959  0.1555  0.5526 -0.3410
 4050TIP3    H133565   4.533   5.021  13.875  1.5636  2.1912  0.2767
 4050TIP3    H233566   4.555   5.034  14.025 -0.9556  0.4057  0.8781
 4051TIP3   OH233567   5.890   0.320   0.017  0.3518 -0.4337 -0.0926
 4051TIP3    H133568   5.877   0.226   0.005  0.5582 -0.4173 -0.4801
 4051TIP3    H233569   5.984   0.333   0.004  0.2860 -0.1419 -0.2983
 4052TIP3   OH233570   0.403   3.217   2.595 -0.2676 -0.2832 -0.3085
 4052TIP3    H133571   0.412   3.258   2.509 -0.4646 -2.1910 -1.3037
 4052TIP3    H233572   0.316   3.244   2.626 -1.2700 -1.5712 -1.8759
 4053TIP3   OH233573   0.091   5.991   5.966 -0.4353 -0.5524  0.1976
 4053TIP3    H133574   0.054   5.960   5.883 -1.3275 -1.3714  0.8710
 4053TIP3    H233575   0.176   5.947   5.972 -0.8354 -1.3562  0.2036
 4054TIP3   OH233576   3.190   4.096  15.669 -0.2797  0.0292 -0.3349
 4054TIP3    H133577   3.235   4.044  15.736  0.8564 -0.6865 -1.6078
 4054TIP3    H233578   3.259   4.124  15.609 -1.2068  1.0425 -0.9701
 4055TIP3   OH233579   2.322   4.549   6.605  0.3356  0.2369 -0.0380
 4055TIP3    H133580   2.282   4.529   6.690  0.3893 -0.6566 -0.2103
 4055TIP3    H233581   2.247   4.560   6.546  0.2774  1.5043  0.2444
 4056TIP3   OH233582   1.892   3.052   2.113 -0.7490 -0.1536 -0.4531
 4056TIP3    H133583   1.912   3.028   2.022 -0.4845 -1.5406 -0.0492
 4056TIP3    H233584   1.825   3.120   2.106  0.2484  0.7430 -1.7152
 4057TIP3   OH233585   0.794   6.398  17.092 -0.0827 -0.5331 -0.2790
 4057TIP3    H133586   0.823   6.480  17.053  1.2981 -0.7362  0.2295
 4057TIP3    H233587   0.704   6.414  17.118 -0.6866 -0.0389 -2.4900
 4058TIP3   OH233588   0.915   2.945   2.419  0.4823 -0.1068  0.2590
 4058TIP3    H133589   0.825   2.974   2.433  1.2390  1.6616  2.1427
 4058TIP3    H233590   0.937   2.896   2.498  0.6348 -2.1810 -1.0083
 4059TIP3   OH233591   1.165   2.859  13.072 -0.1418  0.7045 -0.4984
 4059TIP3    H133592   1.178   2.785  13.013  2.6431  1.3362 -0.8431
 4059TIP3    H233593   1.081   2.896  13.047 -1.5601 -2.2037 -0.3845
 4060TIP3   OH233594   1.172   4.787  15.208 -0.1948 -0.4616  0.0474
 4060TIP3    H133595   1.133   4.788  15.296 -1.2273 -1.9366 -0.3526
 4060TIP3    H233596   1.260   4.820  15.221  0.5053 -2.8059  2.1112
 4061TIP3   OH233597   5.914   4.569   2.778 -0.0634  0.5145 -0.2250
 4061TIP3    H133598   5.969   4.505   2.823 -0.5823  0.1868 -0.0501
 4061TIP3    H233599   5.851   4.598   2.845  0.6457  1.7873 -0.0780
 4062TIP3   OH233600   3.549   1.943   0.279  0.3276  0.2079 -0.1703
 4062TIP3    H133601   3.621   1.952   0.342 -0.0483 -0.1341  0.3178
 4062TIP3    H233602   3.470   1.959   0.331  0.0532  0.6625 -0.7212
 4063TIP3   OH233603   4.908   1.902  13.597 -0.9235 -0.0994  0.1756
 4063TIP3    H133604   4.926   1.868  13.509 -0.0106 -0.5928  0.5360
 4063TIP3    H233605   4.994   1.906  13.639 -1.4319 -0.6265  1.3238
 4064TIP3   OH233606   1.584   0.371   6.112 -0.4882  0.5057  0.6056
 4064TIP3    H133607   1.626   0.285   6.113  0.6130  1.0143  0.7726
 4064TIP3    H233608   1.611   0.412   6.195  0.6374  1.7242 -0.3065
 4065TIP3   OH233609   2.923   1.036  11.348  0.2034  0.0190 -0.5519
 4065TIP3    H133610   2.993   1.076  11.400  0.4181 -0.4621 -0.4659
 4065TIP3    H233611   2.937   1.068  11.259 -0.4080  1.1798 -0.2591
 4066TIP3   OH233612   5.061   4.705  13.992  0.6228 -0.0386 -0.3480
 4066TIP3    H133613   5.124   4.680  13.924 -0.3760 -0.7514 -1.0385
 4066TIP3    H233614   4.996   4.758  13.947 -2.0472 -3.4009 -0.9080
 4067TIP3   OH233615   5.517   6.185   2.002  0.0076 -0.1170 -0.1811
 4067TIP3    H133616   5.531   6.251   2.070 -1.3877 -0.5506  0.5601
 4067TIP3    H233617   5.554   6.225   1.923 -0.4681  1.4106  0.3236
 4068TIP3   OH233618   3.138   4.358  11.364  0.6912 -0.6305  0.0878
 4068TIP3    H133619   3.065   4.300  11.341  2.7617 -3.5285  0.1983
 4068TIP3    H233620   3.104   4.413  11.435 -1.4875 -1.6069 -0.1210
 4069TIP3   OH233621   4.585   3.574   3.268  0.2559 -0.1179  0.1297
 4069TIP3    H133622   4.621   3.493   3.233  1.4836 -0.1669  1.4120
 4069TIP3    H233623   4.499   3.582   3.227  0.3876 -1.7074 -0.5245
 4070TIP3   OH233624   0.892   4.681  16.097 -0.3610  0.4155 -0.0464
 4070TIP3    H133625   0.827   4.690  16.167  0.1364  1.8530  0.2718
 4070TIP3    H233626   0.898   4.587  16.082 -0.9086  0.1075  1.4492
 4071TIP3   OH233627   1.635   3.585   0.240 -0.2628  0.1931  0.2884
 4071TIP3    H133628   1.686   3.565   0.162  0.8315  1.6712  0.5958
 4071TIP3    H233629   1.564   3.521   0.239  2.4480 -3.0964  0.7181
 4072TIP3   OH233630   0.333   6.494   1.708  0.7281  0.6562 -0.4560
 4072TIP3    H133631   0.321   6.549   1.631  0.1837 -0.2938 -1.0765
 4072TIP3    H233632   0.420   6.517   1.741  1.2205  0.6529 -1.6970
 4073TIP3   OH233633   5.205   4.623  16.541  1.0012  0.3770  0.5855
 4073TIP3    H133634   5.239   4.558  16.603 -1.7220 -0.2724  1.5007
 4073TIP3    H233635   5.209   4.579  16.456  1.1740 -0.1790  0.8736
 4074TIP3   OH233636   3.048   6.451   4.079  0.1488 -0.2046 -0.0813
 4074TIP3    H133637   3.047   6.355   4.078  1.7108 -0.2439  0.0696
 4074TIP3    H233638   3.021   6.476   3.990  0.2825 -0.7938 -0.2929
 4075TIP3   OH233639   2.266   2.416   2.476 -0.4644  0.3938 -0.4600
 4075TIP3    H133640   2.212   2.345   2.441 -0.8869  1.0275 -1.1087
 4075TIP3    H233641   2.207   2.491   2.483 -0.4104  0.3181  1.6084
 4076TIP3   OH233642   1.245   6.258   0.498 -0.1538 -0.3757  0.3096
 4076TIP3    H133643   1.228   6.342   0.540  0.3454 -0.7186  1.2383
 4076TIP3    H233644   1.328   6.229   0.536 -0.8284 -1.7597  0.7925
 4077TIP3   OH233645   3.465   0.707  15.199 -0.0166  0.1950  0.1369
 4077TIP3    H133646   3.405   0.641  15.165  1.6753 -1.8400  0.8646
 4077TIP3    H233647   3.420   0.743  15.275 -2.2751  2.1999 -1.9724
 4078TIP3   OH233648   0.101   0.056   0.379  0.1410 -0.4225 -0.3050
 4078TIP3    H133649   0.153   0.023   0.306 -0.6745  0.4896 -1.3373
 4078TIP3    H233650   0.133   0.008   0.455  1.7929 -0.5788 -1.0636
 4079TIP3   OH233651   1.579   2.823  12.972 -0.0739 -0.2207 -0.3212
 4079TIP3    H133652   1.551   2.907  13.009  0.2790  0.1749 -0.9409
 4079TIP3    H233653   1.644   2.846  12.906 -0.0143 -0.9818 -0.5368
 4080TIP3   OH233654   6.358   4.917   5.850 -0.2644  0.2624 -0.1864
 4080TIP3    H133655   6.263   4.906   5.846 -0.2311 -0.0915  0.0136
 4080TIP3    H233656   6.370   5.000   5.896 -0.5098  1.1281 -1.6176
 4081TIP3   OH233657   0.315   5.860   3.440 -0.3936 -0.0022  0.0112
 4081TIP3    H133658   0.311   5.899   3.528 -0.5151 -2.4095  1.1506
 4081TIP3    H233659   0.408   5.846   3.424 -0.4496 -0.7959  0.3532
 4082TIP3   OH233660   5.209   3.338  11.363  0.4293  1.2838 -0.6642
 4082TIP3    H133661   5.127   3.342  11.413  1.6561  0.1622  1.5689
 4082TIP3    H233662   5.261   3.412  11.396  0.3249  2.0604 -2.1486
 4083TIP3   OH233663   6.295   2.626   4.671  0.3218  0.9790  0.2017
 4083TIP3    H133664   6.289   2.692   4.602  1.0094  0.4613 -0.3801
 4083TIP3    H233665   6.389   2.618   4.688  0.3588 -0.6433 -0.5524
 4084TIP3   OH233666   2.960   2.985  15.196 -0.2737 -0.3794 -0.3182
 4084TIP3    H133667   2.911   2.911  15.232  0.7657 -0.2009  1.5739
 4084TIP3    H233668   2.895   3.056  15.189 -0.5429 -0.4537  1.1672
 4085TIP3   OH233669   1.115   4.418   4.420  0.2352  0.1689  0.4388
 4085TIP3    H133670   1.206   4.423   4.449  0.2336 -0.4775  0.5695
 4085TIP3    H233671   1.077   4.502   4.445  0.7888  0.4345  0.4060
 4086TIP3   OH233672   5.119   4.257  11.574  0.5203 -0.1966 -0.4090
 4086TIP3    H133673   5.192   4.237  11.515  0.9841 -0.1920  0.1556
 4086TIP3    H233674   5.108   4.178  11.626  1.2941  0.4114  0.7194
 4087TIP3   OH233675   3.266   6.060   3.277  0.3087 -0.1369  0.0314
 4087TIP3    H133676   3.274   5.968   3.299  1.8520 -0.2831 -1.0018
 4087TIP3    H233677   3.320   6.105   3.342 -1.9514  0.2820  1.7358
 4088TIP3   OH233678   3.896   2.928  13.434 -0.4933  0.6664 -0.3766
 4088TIP3    H133679   3.865   2.954  13.520  0.6502  2.6824 -0.5092
 4088TIP3    H233680   3.923   2.837  13.445 -1.1012  0.6404  1.1709
 4089TIP3   OH233681   3.808   1.668   3.124  0.2840  0.4384 -0.1930
 4089TIP3    H133682   3.829   1.575   3.118  2.0357  0.7288  0.6174
 4089TIP3    H233683   3.718   1.675   3.092 -0.2166 -1.6441  0.6012
 4090TIP3   OH233684   1.277   1.891   3.088  0.6383 -0.6273  0.2628
 4090TIP3    H133685   1.354   1.836   3.099  2.0192  1.4484  1.6019
 4090TIP3    H233686   1.274   1.910   2.994  2.1991 -0.1454  0.2964
 4091TIP3   OH233687   4.250   4.663  11.036  0.3003  0.6836  0.5849
 4091TIP3    H133688   4.337   4.697  11.014  1.0704 -0.5219  1.5868
 4091TIP3    H233689   4.262   4.568  11.035 -1.0322  0.5056  0.6868
 4092TIP3   OH233690   5.977   3.603   2.417 -0.0186  0.2294  0.2599
 4092TIP3    H133691   6.004   3.527   2.469 -0.9822  0.3269  0.9186
 4092TIP3    H233692   5.973   3.570   2.327  1.2071 -0.0592  0.2964
 4093TIP3   OH233693   3.077   5.644  12.579 -0.1349  0.5667  0.2656
 4093TIP3    H133694   3.001   5.642  12.637  0.1459  0.6242  0.6391
 4093TIP3    H233695   3.040   5.637  12.490 -0.6174  1.2362  0.4084
 4094TIP3   OH233696   2.716   3.998   6.191 -0.1285  0.0001 -0.5106
 4094TIP3    H133697   2.620   3.988   6.193 -0.0569 -1.4426 -2.0774
 4094TIP3    H233698   2.730   4.092   6.191 -1.5075  0.2471  0.7621
 4095TIP3   OH233699   2.948   2.711   3.997 -0.3785 -0.3014 -0.5206
 4095TIP3    H133700   2.890   2.668   4.060 -0.3979  1.2856  0.6019
 4095TIP3    H233701   2.893   2.775   3.953 -0.2408 -1.0538 -1.8435
 4096TIP3   OH233702   5.639   3.064  17.029 -0.4026  0.0684  0.1586
 4096TIP3    H133703   5.727   3.102  17.031 -0.0577 -0.5964 -1.3487
 4096TIP3    H233704   5.634   3.018  16.946 -2.4232  0.6353 -0.0940
 4097TIP3   OH233705   3.334   4.961  16.558 -0.3874  0.2921  0.0631
 4097TIP3    H133706   3.340   5.055  16.542 -0.2564 -0.0054 -1.8598
 4097TIP3    H233707   3.252   4.949  16.606  0.0470  1.4565  1.1385
 4098TIP3   OH233708   6.398   0.166  13.685  0.3497 -0.0659 -0.6418
 4098TIP3    H133709   6.425   0.116  13.763  1.5604  0.3359 -0.7924
 4098TIP3    H233710   6.434   0.253  13.699 -1.6245  0.7768 -0.4558
 4099TIP3   OH233711   5.737   1.378  16.862 -0.2160 -0.5022 -0.3252
 4099TIP3    H133712   5.705   1.302  16.912 -1.0067 -0.7921 -1.2205
 4099TIP3    H233713   5.755   1.445  16.928 -0.8373 -1.0095  0.3779
 4100TIP3   OH233714   1.286   6.694  16.953 -0.6729 -0.2219 -0.0415
 4100TIP3    H133715   1.252   6.645  17.028 -0.4506 -1.4963 -0.7494
 4100TIP3    H233716   1.242   6.779  16.958 -1.5078 -0.6886  0.8964
 4101TIP3   OH233717   2.838   0.844   5.821 -0.4968 -0.0571 -0.4323
 4101TIP3    H133718   2.887   0.764   5.836  1.8012  0.7935 -2.7334
 4101TIP3    H233719   2.766   0.819   5.763 -0.9289 -0.7205  0.3593
 4102TIP3   OH233720   0.202   5.523  14.039  0.5337  0.3428  0.2687
 4102TIP3    H133721   0.266   5.564  14.098  2.6143 -0.2054 -1.4861
 4102TIP3    H233722   0.166   5.595  13.989  0.0144  0.6169  1.0181
 4103TIP3   OH233723   0.896   1.528   4.282  0.8425 -0.4882 -0.1757
 4103TIP3    H133724   0.903   1.490   4.370  1.2148  1.8935  0.9129
 4103TIP3    H233725   0.803   1.549   4.272  1.0041  0.5184  0.2760
 4104TIP3   OH233726   2.909   2.625  16.676  0.8483  0.4884 -0.1499
 4104TIP3    H133727   2.896   2.669  16.760 -0.8423  0.3234 -0.3042
 4104TIP3    H233728   2.933   2.535  16.700 -1.0475  0.0380  0.1936
 4105TIP3   OH233729   5.195   1.172  14.947  0.5153 -0.8294  0.2126
 4105TIP3    H133730   5.202   1.099  15.009 -0.5457 -1.0192  0.1290
 4105TIP3    H233731   5.263   1.233  14.975 -0.4144 -0.5640  2.0686
 4106TIP3   OH233732   5.763   2.586  14.637 -0.1549 -0.1984  0.3545
 4106TIP3    H133733   5.774   2.644  14.713  0.7537  1.6481 -1.0968
 4106TIP3    H233734   5.675   2.604  14.605  0.6722  1.7112 -1.0449
 4107TIP3   OH233735   3.518   6.020  12.603  0.0062 -0.0002  0.3012
 4107TIP3    H133736   3.590   6.027  12.541  0.6893  1.0702  1.1624
 4107TIP3    H233737   3.458   5.957  12.564  2.2906 -2.4118  0.4206
 4108TIP3   OH233738   0.199   1.725   4.568  0.2565 -0.0821 -0.8737
 4108TIP3    H133739   0.208   1.813   4.534 -0.9478  0.2514 -0.3936
 4108TIP3    H233740   0.286   1.702   4.601  0.4301  1.1619 -0.4415
 4109TIP3   OH233741   3.812   3.930  14.764 -0.1541 -0.5939  0.2837
 4109TIP3    H133742   3.824   3.877  14.686  1.3636 -0.3769  0.3309
 4109TIP3    H233743   3.878   3.999  14.756 -2.0355  1.2784  0.2420
 4110TIP3   OH233744   1.934   0.896   6.139 -0.4009 -0.4909 -0.7689
 4110TIP3    H133745   1.901   0.985   6.153  0.2903 -0.2674 -0.5237
 4110TIP3    H233746   1.977   0.900   6.054  1.7092  0.0609  0.2527
 4111TIP3   OH233747   0.915   2.546   4.071 -0.3288 -0.5500 -0.3969
 4111TIP3    H133748   0.987   2.486   4.055  0.5707  0.2952  0.3538
 4111TIP3    H233749   0.907   2.548   4.167 -0.5986  0.2180 -0.4288
 4112TIP3   OH233750   5.211   2.197  14.992 -0.6880 -0.0991  0.5291
 4112TIP3    H133751   5.166   2.143  15.056 -1.0856  0.6307  0.8832
 4112TIP3    H233752   5.294   2.221  15.035 -0.3927 -0.6476  0.2649
 4113TIP3   OH233753   2.638   2.424   3.034 -0.3197 -0.4262  0.1556
 4113TIP3    H133754   2.656   2.360   2.965 -0.6170  0.9035 -1.2151
 4113TIP3    H233755   2.697   2.497   3.015  0.4701 -0.5227  2.0666
 4114TIP3   OH233756   3.724   5.016   4.413  0.2674  0.4110 -0.1212
 4114TIP3    H133757   3.647   4.964   4.437  0.2633  0.5263  0.1151
 4114TIP3    H233758   3.698   5.106   4.432  0.4365  0.4572 -0.1110
 4115TIP3   OH233759   5.685   6.664  14.571  0.4448  0.5168 -0.4842
 4115TIP3    H133760   5.668   6.670  14.477  1.2355  0.1033 -0.6660
 4115TIP3    H233761   5.771   6.622  14.577 -0.5696 -1.5845  0.4843
 4116TIP3   OH233762   0.206   2.677  15.687 -0.1496  0.1621 -0.1804
 4116TIP3    H133763   0.161   2.612  15.633 -2.2487 -0.0806  1.7015
 4116TIP3    H233764   0.236   2.627  15.764 -0.3107  1.0922  0.4994
 4117TIP3   OH233765   0.049   0.569  13.695  0.2353 -0.3410  0.5745
 4117TIP3    H133766  -0.039   0.533  13.682 -0.1932  0.3527  1.4162
 4117TIP3    H233767   0.076   0.598  13.608 -1.1844  1.1984  0.5869
 4118TIP3   OH233768   3.333   0.640   0.888 -0.0226  0.8460 -0.1300
 4118TIP3    H133769   3.310   0.712   0.946  1.5391  0.4681  1.0254
 4118TIP3    H233770   3.380   0.578   0.944  1.4698  0.4134 -1.7756
 4119TIP3   OH233771   0.980   3.269  16.322  0.4621  0.2446 -0.6970
 4119TIP3    H133772   0.908   3.333  16.323 -0.7660 -1.0728 -1.2564
 4119TIP3    H233773   1.045   3.306  16.381 -0.9153  1.2296  0.2861
 4120TIP3   OH233774   4.821   4.873  15.222  0.4605  0.1238 -0.1381
 4120TIP3    H133775   4.895   4.839  15.273  0.4162 -0.2441 -0.3126
 4120TIP3    H233776   4.806   4.961  15.256  1.7643  0.6837 -0.9179
 4121TIP3   OH233777   4.419   1.360   2.489 -0.1070  0.2278 -0.2898
 4121TIP3    H133778   4.374   1.296   2.545 -2.0230  0.7962 -1.1044
 4121TIP3    H233779   4.380   1.444   2.512  0.2433  0.6926 -1.3237
 4122TIP3   OH233780   6.601   5.130  16.818 -0.0281  0.8731 -0.0283
 4122TIP3    H133781   6.561   5.157  16.735  1.0746 -2.2824 -1.7672
 4122TIP3    H233782   6.634   5.042  16.801  0.3869  0.1190  3.7847
 4123TIP3   OH233783   1.059   6.771  12.666 -0.0552  0.1140 -0.1284
 4123TIP3    H133784   1.075   6.865  12.674  1.9469 -0.1781 -0.1923
 4123TIP3    H233785   1.085   6.735  12.751  0.5256 -0.5355 -0.5753
 4124TIP3   OH233786   4.105   3.772  12.259 -0.1553 -0.7026 -0.1160
 4124TIP3    H133787   4.196   3.779  12.231  0.8965  0.8412  3.1690
 4124TIP3    H233788   4.057   3.833  12.202  1.2731  0.0647 -0.5407
 4125TIP3   OH233789   0.247   2.797   5.803  0.1898 -0.4981 -0.9497
 4125TIP3    H133790   0.252   2.869   5.867 -2.8977  3.3561 -4.4551
 4125TIP3    H233791   0.161   2.757   5.819 -0.3945  0.1781 -2.2567
 4126TIP3   OH233792   2.812   0.294   3.173  0.1673  0.1077  0.5863
 4126TIP3    H133793   2.778   0.237   3.104  0.6509 -0.1149  0.5307
 4126TIP3    H233794   2.753   0.281   3.247 -0.1259  0.0570  0.3468
 4127TIP3   OH233795   3.329   4.631   2.135 -0.3690  0.2675 -0.0307
 4127TIP3    H133796   3.421   4.604   2.138 -0.5935 -0.5227 -0.0621
 4127TIP3    H233797   3.280   4.553   2.162 -1.0324  0.6717 -0.0476
 4128TIP3   OH233798   2.261   3.457  15.252  0.2025 -0.3580  0.6035
 4128TIP3    H133799   2.231   3.543  15.282  1.2750  0.0181  0.6448
 4128TIP3    H233800   2.348   3.447  15.291  0.6049 -0.9187 -0.4000
 4129TIP3   OH233801   6.621   1.217   4.243 -0.4477 -0.0130 -0.4340
 4129TIP3    H133802   6.706   1.211   4.286 -0.7911 -1.2211  0.1249
 4129TIP3    H233803   6.558   1.230   4.314 -0.9869 -1.7344 -0.5344
 4130TIP3   OH233804   3.049   6.022  16.022 -0.3297 -0.0785 -0.4504
 4130TIP3    H133805   3.076   6.002  16.111 -0.3139 -0.4200 -0.5295
 4130TIP3    H233806   3.108   5.971  15.966 -0.1441  0.3657 -0.6672
 4131TIP3   OH233807   3.189   6.541  14.476 -0.0071  0.0371 -0.0578
 4131TIP3    H133808   3.174   6.452  14.509  1.5955 -0.3895 -0.4350
 4131TIP3    H233809   3.195   6.595  14.555  0.1500 -0.3761  0.2167
 4132TIP3   OH233810   2.445   2.609  17.023 -0.7919 -0.0471  0.2401
 4132TIP3    H133811   2.514   2.653  17.073 -1.8196  1.5295  0.3655
 4132TIP3    H233812   2.449   2.649  16.936 -0.7436 -0.8464 -0.1285
 4133TIP3   OH233813   6.434   4.739  11.477  0.2421  0.2711  0.1590
 4133TIP3    H133814   6.355   4.694  11.447 -0.7161  1.4125  0.8370
 4133TIP3    H233815   6.474   4.679  11.539 -0.5650  0.0100  0.4413
 4134TIP3   OH233816   4.874   0.928  16.735 -0.2054 -0.0433 -0.1882
 4134TIP3    H133817   4.951   0.950  16.787 -0.8985 -0.2428  0.9432
 4134TIP3    H233818   4.910   0.884  16.658  0.7980 -0.5093  0.5163
 4135TIP3   OH233819   0.684   5.225   0.518  0.7792  0.1670  0.4664
 4135TIP3    H133820   0.738   5.161   0.565 -1.0832 -2.2426 -0.4558
 4135TIP3    H233821   0.610   5.174   0.484 -0.8909  2.8605 -0.2757
 4136TIP3   OH233822   6.339   3.716  15.774  0.1616 -0.2145  0.1963
 4136TIP3    H133823   6.417   3.756  15.814 -0.1289  0.5063  0.0563
 4136TIP3    H233824   6.277   3.707  15.846 -0.2458  0.7961 -0.0057
 4137TIP3   OH233825   2.010   4.899   1.675 -0.1195  0.5111 -0.2377
 4137TIP3    H133826   2.038   4.813   1.707 -0.2807  1.1554  1.8169
 4137TIP3    H233827   2.092   4.948   1.665 -0.1514  1.2110  2.1564
 4138TIP3   OH233828   3.087   0.349  15.579  0.4500 -0.6566  0.1784
 4138TIP3    H133829   3.165   0.376  15.532  1.0129 -1.7805  0.4277
 4138TIP3    H233830   3.015   0.392  15.532  1.0758 -0.8905 -1.0488
 4139TIP3   OH233831   4.138   2.040  13.530  0.5078 -0.4911  0.3110
 4139TIP3    H133832   4.129   2.041  13.434 -1.3880 -1.2193  0.4469
 4139TIP3    H233833   4.050   2.060  13.563  0.5239 -2.7233  1.8916
 4140TIP3   OH233834   4.739   4.427   1.689  0.2629  0.2951 -0.2689
 4140TIP3    H133835   4.651   4.401   1.719  1.1191  0.0299  2.2302
 4140TIP3    H233836   4.789   4.438   1.770  2.3637  1.1239 -1.6221
 4141TIP3   OH233837   3.770   4.237   3.631 -0.0700 -0.3751  0.0723
 4141TIP3    H133838   3.841   4.297   3.653 -0.4798  0.2244 -0.1913
 4141TIP3    H233839   3.748   4.194   3.713  0.3335 -0.2724  0.2337
 4142TIP3   OH233840   0.965   0.203  13.546  0.0315  0.4052 -0.0298
 4142TIP3    H133841   0.870   0.189  13.543  0.3580 -2.1740 -0.3815
 4142TIP3    H233842   0.975   0.299  13.547 -2.5275  0.7928 -1.6121
 4143TIP3   OH233843   1.999   0.234  12.235 -0.0647  0.3094  0.3395
 4143TIP3    H133844   2.009   0.274  12.321  0.2759 -0.9637  0.9177
 4143TIP3    H233845   1.992   0.140  12.253  2.3476 -0.2289 -1.1557
 4144TIP3   OH233846   1.077   1.394  10.735  0.1481 -0.7019  0.4826
 4144TIP3    H133847   1.150   1.342  10.768 -0.2662 -1.9514 -0.4928
 4144TIP3    H233848   1.004   1.333  10.731 -1.4261  0.8206  2.7919
 4145TIP3   OH233849   4.605   4.665  13.005  0.2995  0.0806 -0.6491
 4145TIP3    H133850   4.591   4.679  13.099  3.0164  0.1749 -0.1662
 4145TIP3    H233851   4.584   4.573  12.991 -0.5320  0.1638 -0.0500
 4146TIP3   OH233852   3.124   0.235  11.802 -0.8478  0.6761  0.7179
 4146TIP3    H133853   3.051   0.176  11.820 -2.0595  1.0797 -2.2832
 4146TIP3    H233854   3.083   0.319  11.783  0.4938  1.2690  0.3427
 4147TIP3   OH233855   4.116   1.403  11.323  0.2742 -0.3202  0.3316
 4147TIP3    H133856   4.084   1.330  11.375  2.0479 -0.7432  0.8660
 4147TIP3    H233857   4.199   1.373  11.287  0.1676  0.7935 -0.9175
 4148TIP3   OH233858   5.844   6.340   0.832  0.1751  0.0442  0.6310
 4148TIP3    H133859   5.818   6.277   0.764 -0.4758 -0.1181  1.0201
 4148TIP3    H233860   5.830   6.426   0.792  1.7179 -0.0422 -0.1481
 4149TIP3   OH233861   5.747   6.550   4.985 -0.2215 -0.2851 -0.4296
 4149TIP3    H133862   5.690   6.478   5.010 -0.1734 -0.4009 -0.6504
 4149TIP3    H233863   5.831   6.509   4.967  0.3864  0.0700  1.4281
 4150TIP3   OH233864   1.860   3.515  12.018  0.2170 -0.2391  0.3553
 4150TIP3    H133865   1.908   3.504  12.100 -1.4379 -1.3398  1.2417
 4150TIP3    H233866   1.817   3.431  12.003  0.9854 -0.2900 -2.0204
 4151TIP3   OH233867   3.282   0.130  15.345  0.7796  0.1935 -0.7853
 4151TIP3    H133868   3.318   0.042  15.354 -0.2113 -0.1059  0.4409
 4151TIP3    H233869   3.188   0.120  15.359  0.5606  1.3652 -1.2354
 4152TIP3   OH233870   2.969   5.083   1.151  0.1565 -0.6201 -0.3722
 4152TIP3    H133871   2.921   5.068   1.233  0.3451 -0.5612 -0.2522
 4152TIP3    H233872   3.061   5.079   1.176  0.2541 -2.2853 -0.8698
 4153TIP3   OH233873   2.823   4.840   4.782 -0.4827  0.2209 -0.1630
 4153TIP3    H133874   2.914   4.837   4.752 -0.8252 -0.3203 -1.1956
 4153TIP3    H233875   2.823   4.793   4.865  0.2280  0.4528 -0.0243
 4154TIP3   OH233876   4.725   2.058   3.200  0.0928  0.0040  0.5558
 4154TIP3    H133877   4.681   1.995   3.142  0.1256 -1.3585  1.9623
 4154TIP3    H233878   4.785   2.106   3.142  0.1293 -1.3047 -0.5419
 4155TIP3   OH233879   0.162   3.144   0.291 -0.7343 -0.3296 -0.0331
 4155TIP3    H133880   0.075   3.161   0.326 -0.7317 -1.6895  0.6821
 4155TIP3    H233881   0.222   3.180   0.356 -0.7484 -0.9275  0.3114
 4156TIP3   OH233882   5.834   1.381  12.070 -0.3443  0.3561 -0.8736
 4156TIP3    H133883   5.784   1.432  12.134 -0.1529  1.2743 -1.4290
 4156TIP3    H233884   5.794   1.294  12.071 -1.5773  0.9148 -0.9005
 4157TIP3   OH233885   4.204   2.974  13.688 -0.1200 -0.3846 -0.1367
 4157TIP3    H133886   4.213   3.057  13.735 -1.8680 -0.2561  0.0264
 4157TIP3    H233887   4.153   2.996  13.610 -1.8803 -1.5205  0.6313
 4158TIP3   OH233888   2.475   5.881  16.209  0.3577 -0.0625 -0.1689
 4158TIP3    H133889   2.549   5.840  16.253 -0.2455 -1.7663 -0.6301
 4158TIP3    H233890   2.493   5.868  16.115  0.7668  1.9342 -0.4115
 4159TIP3   OH233891   1.214   3.539  12.953 -0.9646  0.0424  0.2069
 4159TIP3    H133892   1.233   3.562  12.862  2.4361 -0.4201  0.6568
 4159TIP3    H233893   1.167   3.455  12.947 -2.0441  0.6953 -1.0904
 4160TIP3   OH233894   5.268   5.518   2.425 -0.5012  0.4925  0.4761
 4160TIP3    H133895   5.271   5.443   2.483  1.2375 -1.3465 -1.8184
 4160TIP3    H233896   5.327   5.582   2.465  1.8312 -1.3029  0.1399
 4161TIP3   OH233897   1.400   0.367   6.519  0.5869 -0.3420  0.0588
 4161TIP3    H133898   1.314   0.331   6.537  0.0828 -0.1901 -1.7965
 4161TIP3    H233899   1.459   0.292   6.523  0.0618 -0.7953 -0.5362
 4162TIP3   OH233900   3.747   5.135   3.757  0.1714 -0.9738  0.1926
 4162TIP3    H133901   3.794   5.102   3.834  1.0125  0.9203  0.5319
 4162TIP3    H233902   3.812   5.138   3.688 -0.0015 -0.4929  0.0439
 4163TIP3   OH233903   0.597   2.291   4.529 -0.9492  0.0244 -0.0280
 4163TIP3    H133904   0.632   2.380   4.539 -0.1482 -0.3928  1.1245
 4163TIP3    H233905   0.564   2.269   4.616  0.8109 -1.5919  0.2902
 4164TIP3   OH233906   6.673   0.472  10.618 -0.6341  0.1001 -0.3877
 4164TIP3    H133907   6.630   0.552  10.647  0.7205  0.1203  1.8135
 4164TIP3    H233908   6.735   0.501  10.551 -1.5034  0.5806 -0.9965
 4165TIP3   OH233909   2.435   0.268  15.238 -0.2076 -0.0228 -0.6702
 4165TIP3    H133910   2.380   0.243  15.313  0.3725  1.9580  0.4939
 4165TIP3    H233911   2.445   0.187  15.188  0.4713 -1.7772  2.0879
 4166TIP3   OH233912   4.476   0.039   5.830 -0.4142 -0.0573  0.0191
 4166TIP3    H133913   4.529  -0.006   5.764 -0.8442 -2.2010  1.0679
 4166TIP3    H233914   4.540   0.080   5.888  0.0541 -0.7891  0.0336
 4167TIP3   OH233915   1.825   4.152   1.888  0.2072 -0.2224 -0.2061
 4167TIP3    H133916   1.754   4.197   1.842  0.6400 -0.3387 -1.0047
 4167TIP3    H233917   1.795   4.061   1.893  0.6205 -0.4376 -1.2485
 4168TIP3   OH233918   0.741   5.703  13.824  0.3521 -0.1244  0.1309
 4168TIP3    H133919   0.743   5.664  13.736 -1.7656 -0.2275  0.0775
 4168TIP3    H233920   0.772   5.793  13.811 -1.5040  0.3947 -1.0774
 4169TIP3   OH233921   1.594   1.935   5.549 -0.8119  0.0190 -0.0557
 4169TIP3    H133922   1.656   1.865   5.526 -0.4186  0.8547 -1.7519
 4169TIP3    H233923   1.574   1.977   5.465 -0.7030  2.2181  0.9419
 4170TIP3   OH233924   6.131   4.189   0.170  0.1457 -0.0774 -0.1229
 4170TIP3    H133925   6.220   4.212   0.143  1.0317 -0.8681  1.9482
 4170TIP3    H233926   6.114   4.105   0.127  1.5184 -1.3052  1.6369
 4171TIP3   OH233927   3.006   1.986  13.437 -0.0508  0.2546  0.2710
 4171TIP3    H133928   3.052   2.040  13.502  0.0821  0.3605  0.0907
 4171TIP3    H233929   2.984   2.048  13.366  1.0076 -0.1338 -0.4106
 4172TIP3   OH233930   1.605   0.704   2.570  0.2184 -0.0936 -0.2648
 4172TIP3    H133931   1.564   0.623   2.537  1.1845 -2.2644  3.2990
 4172TIP3    H233932   1.545   0.736   2.637  0.4584  1.5374 -0.7838
 4173TIP3   OH233933   4.114   2.282   2.816 -0.2744  0.2349 -0.1329
 4173TIP3    H133934   4.060   2.355   2.785 -0.6094 -0.2612 -0.7547
 4173TIP3    H233935   4.172   2.321   2.881 -0.7704  0.9600 -0.1087
 4174TIP3   OH233936   2.860   0.371  12.045 -0.1193  0.3243  0.4664
 4174TIP3    H133937   2.903   0.348  11.963 -0.6062 -3.3835  1.0573
 4174TIP3    H233938   2.922   0.430  12.089  1.6068 -0.1613 -1.2036
 4175TIP3   OH233939   0.281   5.659  12.056  0.1264  0.4071 -0.1660
 4175TIP3    H133940   0.242   5.739  12.020  1.5751  1.1656 -0.1261
 4175TIP3    H233941   0.262   5.592  11.990 -1.5834  0.6284  0.0534
 4176TIP3   OH233942   2.467   2.889  13.731  0.6742  0.2775  0.1199
 4176TIP3    H133943   2.534   2.873  13.797  0.7402  0.6680  0.1516
 4176TIP3    H233944   2.516   2.909  13.651  0.5979  0.3232  0.0838
 4177TIP3   OH233945   4.409   2.426  14.066  0.5356  0.0508  0.0037
 4177TIP3    H133946   4.387   2.342  14.027 -0.2849  1.4450 -2.8342
 4177TIP3    H233947   4.467   2.468  14.002  1.2932  1.4858  1.5418
 4178TIP3   OH233948   0.065   5.291  17.292 -0.0712  0.3364 -0.1006
 4178TIP3    H133949   0.048   5.197  17.292 -1.4902  0.5094 -2.0787
 4178TIP3    H233950  -0.022   5.331  17.286  0.5677  1.6947 -0.9195
 4179TIP3   OH233951   4.560   3.547  11.132 -0.0171  0.8272  0.2544
 4179TIP3    H133952   4.567   3.555  11.227  0.9812  1.8002  0.1284
 4179TIP3    H233953   4.649   3.527  11.103 -0.8762 -3.1838 -0.2279
 4180TIP3   OH233954   2.450   1.661   1.998 -0.2821 -0.3230 -0.1863
 4180TIP3    H133955   2.394   1.668   1.921 -0.5112 -0.9557 -0.0851
 4180TIP3    H233956   2.434   1.741   2.047 -0.4513 -0.1090 -0.5833
 4181TIP3   OH233957   2.542   5.716   4.498 -0.6963  0.2120 -0.3575
 4181TIP3    H133958   2.511   5.635   4.538 -0.6699  0.1329 -0.4951
 4181TIP3    H233959   2.615   5.744   4.552  0.9821 -1.2328 -1.7713
 4182TIP3   OH233960   2.519   3.954  14.057  0.7526 -0.1360 -0.1407
 4182TIP3    H133961   2.473   3.984  14.136  3.6975 -0.3245  1.8333
 4182TIP3    H233962   2.500   3.860  14.052 -1.0739  0.2372 -0.9149
 4183TIP3   OH233963   5.881   5.095   2.056  0.2706 -0.5327  0.0207
 4183TIP3    H133964   5.798   5.112   2.011  0.6683  2.3156  0.2134
 4183TIP3    H233965   5.884   5.159   2.126  1.7890 -1.8865  1.2772
 4184TIP3   OH233966   1.125   0.947  11.708  0.3860  0.0453 -0.2657
 4184TIP3    H133967   1.179   0.995  11.645  1.4094 -0.3482  0.2831
 4184TIP3    H233968   1.181   0.876  11.737  0.1492  0.5311  1.4957
 4185TIP3   OH233969   3.882   6.292  17.188 -0.0041  0.0665  0.5993
 4185TIP3    H133970   3.931   6.227  17.239  0.8234 -0.1834 -0.4850
 4185TIP3    H233971   3.890   6.373  17.239  1.8015  0.1010  0.3063
 4186TIP3   OH233972   2.272   4.901   1.470  0.0713  0.2714 -0.7355
 4186TIP3    H133973   2.364   4.876   1.469  0.1298  0.4842 -0.6293
 4186TIP3    H233974   2.259   4.940   1.557 -0.9242 -2.8544  0.6762
 4187TIP3   OH233975   6.473   6.562   3.485  0.0681 -0.3509 -0.2199
 4187TIP3    H133976   6.491   6.625   3.555 -0.7591 -2.0293  1.6007
 4187TIP3    H233977   6.496   6.608   3.405  0.6701  1.8111  1.1130
 4188TIP3   OH233978   3.386   2.480  11.487  0.0430  0.1789 -0.3627
 4188TIP3    H133979   3.381   2.425  11.565  2.6380 -1.0711 -0.9532
 4188TIP3    H233980   3.327   2.438  11.424 -2.5356  1.5363  1.0050
 4189TIP3   OH233981   3.042   0.858   0.241 -0.7081 -0.1562 -0.5285
 4189TIP3    H133982   3.137   0.874   0.243 -0.2062 -2.6885  1.9832
 4189TIP3    H233983   3.028   0.813   0.158  0.3214  0.0240 -0.8215
 4190TIP3   OH233984   4.848   0.808  11.890 -0.1472  0.1470  0.2980
 4190TIP3    H133985   4.935   0.778  11.865 -0.0850 -1.2243  1.9828
 4190TIP3    H233986   4.799   0.728  11.907 -1.3830  0.9228  0.5027
 4191TIP3   OH233987   2.910   5.700  15.885 -0.3647 -0.1592  0.3096
 4191TIP3    H133988   2.902   5.773  15.823 -1.1245  0.1901  0.8004
 4191TIP3    H233989   2.866   5.732  15.964  0.3535 -0.7027  0.9385
 4192TIP3   OH233990   0.700   1.459   2.457  0.0991  0.0148  0.2276
 4192TIP3    H133991   0.679   1.377   2.502  1.2776 -0.6128 -0.3206
 4192TIP3    H233992   0.689   1.439   2.364 -1.7306  1.1269  0.1532
 4193TIP3   OH233993   3.929   2.742   5.992  0.5765 -0.0296 -0.0355
 4193TIP3    H133994   3.877   2.821   5.976 -1.4723 -1.2490  0.2781
 4193TIP3    H233995   3.901   2.680   5.924  0.3938 -1.2684  1.1237
 4194TIP3   OH233996   3.818   6.700   1.224 -0.5121  0.0534  0.6629
 4194TIP3    H133997   3.794   6.622   1.274 -0.1558 -0.8877 -0.5980
 4194TIP3    H233998   3.756   6.767   1.252 -1.7682 -1.0878  0.6833
 4195TIP3   OH233999   5.610   2.528   1.142 -0.3057 -0.1884 -0.7350
 4195TIP3    H134000   5.642   2.612   1.111 -2.4353  0.9566  0.0194
 4195TIP3    H234001   5.529   2.548   1.189 -1.2662 -2.7230 -1.1432
 4196TIP3   OH234002   3.261   6.245   4.304 -0.1806 -0.3807 -0.3063
 4196TIP3    H134003   3.263   6.272   4.212  0.1282 -1.4940 -0.6433
 4196TIP3    H234004   3.168   6.234   4.323 -0.3935  1.7863  0.1333
 4197TIP3   OH234005   1.934   6.390   4.536 -0.9211  0.0293  0.5050
 4197TIP3    H134006   1.867   6.346   4.588 -0.7422 -1.1507 -0.2149
 4197TIP3    H234007   2.014   6.383   4.589 -0.5698 -1.8334 -0.1979
 4198TIP3   OH234008   5.229   5.560  17.257  0.1412 -0.6191 -0.5058
 4198TIP3    H134009   5.275   5.643  17.255  0.3426 -0.7351 -1.8361
 4198TIP3    H234010   5.256   5.516  17.176 -0.3801 -1.7408 -0.0886
 4199TIP3   OH234011   4.738   2.803  16.313 -0.0829  0.3642  0.0856
 4199TIP3    H134012   4.747   2.745  16.389 -1.5001  0.5677  0.4322
 4199TIP3    H234013   4.644   2.809  16.299  0.0924  1.7346 -0.6124
 4200TIP3   OH234014   4.263   3.992  12.714 -0.0897 -0.5635  0.0986
 4200TIP3    H134015   4.309   3.954  12.789  0.8112  1.0727  0.4246
 4200TIP3    H234016   4.232   3.917  12.664  2.6732 -1.7905  0.0524
 4201TIP3   OH234017   3.366   2.313  15.789  0.4799 -0.5989  0.3745
 4201TIP3    H134018   3.337   2.383  15.847 -1.1768 -0.6272 -0.3730
 4201TIP3    H234019   3.414   2.357  15.719  0.1271 -0.3026  0.3222
 4202TIP3   OH234020   4.166   0.198  13.349 -0.3954 -0.8075  0.2081
 4202TIP3    H134021   4.244   0.155  13.383 -1.4052 -0.3118  3.4817
 4202TIP3    H234022   4.093   0.156  13.394 -1.7086  1.3647  0.2799
 4203TIP3   OH234023   3.652   0.228   1.962  0.3656  0.6634 -0.0791
 4203TIP3    H134024   3.672   0.293   1.894 -0.8337 -0.7242 -1.8622
 4203TIP3    H234025   3.710   0.155   1.943 -0.3910  0.0298  0.0030
 4204TIP3   OH234026   5.807   4.166  13.992  0.6791 -0.2425 -0.4406
 4204TIP3    H134027   5.788   4.075  14.018  1.8476 -0.0046  1.3831
 4204TIP3    H234028   5.769   4.173  13.904 -0.5722 -2.1045 -0.1296
 4205TIP3   OH234029   2.040   3.991  13.655  0.3210 -0.1379  0.9234
 4205TIP3    H134030   2.106   3.941  13.703  0.1484  0.1623  1.4755
 4205TIP3    H234031   1.960   3.940  13.663 -0.3994  1.2418  3.3301
 4206TIP3   OH234032   4.481   2.472   0.423 -0.3889 -0.0855  0.1366
 4206TIP3    H134033   4.435   2.417   0.360 -2.1313  1.3894  0.0448
 4206TIP3    H234034   4.481   2.560   0.384  2.2908  0.0789  0.2799
 4207TIP3   OH234035   2.041   6.028   2.139 -0.1309  0.7574 -0.5534
 4207TIP3    H134036   1.975   6.089   2.172 -0.0937  1.0994 -1.0934
 4207TIP3    H234037   2.092   6.004   2.216 -0.8058  0.5862 -0.1501
 4208TIP3   OH234038   3.439   0.942   4.767 -0.3033 -0.2473 -0.0595
 4208TIP3    H134039   3.517   0.992   4.793 -1.0861  2.0980 -1.8591
 4208TIP3    H234040   3.379   1.008   4.734 -1.7675 -2.3448 -1.8200
 4209TIP3   OH234041   6.493   6.524   0.359  0.0492  0.4084  0.0673
 4209TIP3    H134042   6.546   6.603   0.362  1.2123 -0.3338 -0.0392
 4209TIP3    H234043   6.448   6.528   0.274  1.0728  0.3664 -0.4966
 4210TIP3   OH234044   0.145   1.394  13.501 -0.4096  0.2830 -0.1169
 4210TIP3    H134045   0.119   1.485  13.485 -0.6989  0.2641  0.2522
 4210TIP3    H234046   0.231   1.387  13.460 -0.5649  0.6077 -0.5101
 4211TIP3   OH234047   2.637   6.359   0.080  0.0643 -0.1243 -0.4522
 4211TIP3    H134048   2.547   6.388   0.065 -0.1257  0.0412  0.9093
 4211TIP3    H234049   2.654   6.378   0.172  0.4795 -2.8020  0.1302
 4212TIP3   OH234050   6.679   3.185  10.767 -0.4021 -0.2541 -0.3327
 4212TIP3    H134051   6.761   3.186  10.718  0.2930  1.0141  0.7716
 4212TIP3    H234052   6.615   3.224  10.707  0.4972  1.5562 -0.1996
 4213TIP3   OH234053   5.679   1.755   0.362 -0.3885  0.1554  0.5859
 4213TIP3    H134054   5.593   1.749   0.405 -1.2796  2.1857 -0.7992
 4213TIP3    H234055   5.703   1.847   0.368  1.0211 -0.1222 -0.3470
 4214TIP3   OH234056   4.246   2.792  17.223  0.1850 -0.5019 -0.3843
 4214TIP3    H134057   4.285   2.769  17.139  2.0461 -1.0829  0.5674
 4214TIP3    H234058   4.165   2.742  17.226 -0.7517  0.7836 -2.4699
 4215TIP3   OH234059   2.893   3.028   0.584  0.1565  0.0105 -0.4621
 4215TIP3    H134060   2.822   3.090   0.575  1.4018  1.1225 -4.2659
 4215TIP3    H234061   2.890   2.976   0.504  2.6560 -0.9510 -0.0220
 4216TIP3   OH234062   1.515   0.328  13.957 -0.1989 -0.1469  0.3789
 4216TIP3    H134063   1.457   0.257  13.928  1.0756 -1.7858  1.6197
 4216TIP3    H234064   1.578   0.338  13.886 -0.5478 -0.0510  0.0792
 4217TIP3   OH234065   6.587   0.348  12.759 -0.3521 -0.1641 -0.1234
 4217TIP3    H134066   6.679   0.328  12.777 -0.1008  0.0401 -1.0920
 4217TIP3    H234067   6.537   0.279  12.803  0.3054 -0.7106 -0.2235
 4218TIP3   OH234068   3.316   5.987  15.291 -0.1800  0.0447 -0.1204
 4218TIP3    H134069   3.357   6.022  15.212 -0.6844  0.8426 -0.0404
 4218TIP3    H234070   3.290   5.898  15.268  3.5197 -1.3528  0.4782
 4219TIP3   OH234071   6.021   0.092   4.412  0.3897 -0.0669  0.0223
 4219TIP3    H134072   5.944   0.125   4.459  0.7057 -2.0114  2.0886
 4219TIP3    H234073   6.078   0.168   4.403 -0.9357  0.9932  0.1648
 4220TIP3   OH234074   0.043   1.438   0.043  0.6886 -0.2031 -0.0484
 4220TIP3    H134075  -0.002   1.465   0.123 -0.5415 -1.4052 -0.2955
 4220TIP3    H234076   0.125   1.487   0.044  0.7925 -0.3338  2.0439
 4221TIP3   OH234077   5.259   6.489   1.086  0.1651 -0.6006  0.1068
 4221TIP3    H134078   5.331   6.494   1.149  0.6933  0.2573 -0.5456
 4221TIP3    H234079   5.227   6.579   1.079 -0.7070 -0.9061  0.0754
 4222TIP3   OH234080   1.988   2.195  11.364 -0.2322  0.2414 -0.0923
 4222TIP3    H134081   2.066   2.207  11.310  0.4460  1.5249  1.1042
 4222TIP3    H234082   2.011   2.124  11.424 -0.5403 -0.3659 -0.6801
 4223TIP3   OH234083   5.978   6.650  16.782  0.0207  0.0134  0.0738
 4223TIP3    H134084   5.962   6.589  16.710  1.1467  0.9480 -1.0040
 4223TIP3    H234085   6.074   6.657  16.787  0.0706 -1.2474  2.7330
 4224TIP3   OH234086   2.970   2.219   4.007 -0.4006  0.3220  0.4147
 4224TIP3    H134087   2.922   2.175   3.936  0.9205 -2.6366  1.1855
 4224TIP3    H234088   3.060   2.223   3.976  0.1899 -0.9877  1.8419
 4225TIP3   OH234089   5.792   5.246   2.854  0.4431 -0.5984 -0.0510
 4225TIP3    H134090   5.726   5.290   2.801 -1.1775 -2.4333  0.3315
 4225TIP3    H234091   5.875   5.285   2.826 -0.7261  1.3890 -0.9306
 4226TIP3   OH234092   3.348   4.978  15.461  0.4792  0.6850  0.4380
 4226TIP3    H134093   3.262   4.937  15.460  0.5643  0.4844 -1.8378
 4226TIP3    H234094   3.365   5.001  15.370  3.3754 -0.4094  0.6234
 4227TIP3   OH234095   2.401   0.152   5.723 -0.5291  0.1789  0.6659
 4227TIP3    H134096   2.383   0.219   5.789  2.3627  0.4967  1.2370
 4227TIP3    H234097   2.341   0.174   5.651 -1.5204  1.7388  1.8879
 4228TIP3   OH234098   2.446   4.581   3.999  0.2422 -0.4446 -0.0411
 4228TIP3    H134099   2.508   4.654   4.002 -0.9268  0.5522  0.4850
 4228TIP3    H234100   2.454   4.539   4.085  1.2437 -1.2702 -0.4983
 4229TIP3   OH234101   2.087   6.637   0.105 -0.2587 -0.2376 -0.2139
 4229TIP3    H134102   2.153   6.693   0.146  0.4053  0.0575 -1.6181
 4229TIP3    H234103   2.049   6.587   0.177  0.3297  0.7968  0.8391
 4230TIP3   OH234104   0.454   3.428   3.213 -0.2195 -0.1824  0.5796
 4230TIP3    H134105   0.473   3.401   3.302 -0.4100 -1.1778  0.3281
 4230TIP3    H234106   0.523   3.389   3.160 -1.1636 -1.2186  0.0622
 4231TIP3   OH234107   5.196   5.376   6.488 -0.1420 -0.1502  0.1610
 4231TIP3    H134108   5.235   5.336   6.410 -0.5066 -0.1357 -0.0327
 4231TIP3    H234109   5.252   5.450   6.508 -0.1616 -0.0324 -0.2108
 4232TIP3   OH234110   4.436   3.254   2.693 -0.1921  0.0910 -0.5894
 4232TIP3    H134111   4.357   3.307   2.696  0.0631  0.4570 -0.2303
 4232TIP3    H234112   4.414   3.175   2.742 -0.2713  0.2909 -0.2957
 4233TIP3   OH234113   3.485   6.430  11.952  0.0835 -0.4903  0.4459
 4233TIP3    H134114   3.391   6.413  11.954  0.4375 -2.7301  0.0990
 4233TIP3    H234115   3.507   6.450  12.043 -0.3791 -2.1822  0.9515
 4234TIP3   OH234116   3.989   0.699   0.426 -0.5594  0.1953 -0.0104
 4234TIP3    H134117   3.900   0.723   0.450  0.3088  2.2233  1.6312
 4234TIP3    H234118   4.039   0.780   0.439  1.4529 -0.7725 -1.2492
 4235TIP3   OH234119   0.008   2.285   4.049 -0.0801 -0.1893 -0.4895
 4235TIP3    H134120  -0.077   2.283   4.092 -0.2454  0.2751 -0.7978
 4235TIP3    H234121   0.048   2.201   4.071 -0.6336 -0.4240 -0.3803
 4236TIP3   OH234122   2.398   5.652   4.275 -0.3680  0.0665  0.2426
 4236TIP3    H134123   2.394   5.557   4.273 -1.0750 -0.0534  2.8266
 4236TIP3    H234124   2.443   5.672   4.357 -0.5344  1.9610 -0.0869
 4237TIP3   OH234125   3.275   6.641   4.399  0.4026 -0.0137 -0.3816
 4237TIP3    H134126   3.342   6.595   4.349  1.3762  2.0478 -1.1283
 4237TIP3    H234127   3.195   6.589   4.388  0.9932 -0.5282 -2.6993
 4238TIP3   OH234128   2.098   6.778   5.874  0.0906  0.0650  0.6019
 4238TIP3    H134129   2.098   6.702   5.932  1.8162 -0.5504 -0.1132
 4238TIP3    H234130   2.033   6.758   5.808  0.3392 -0.6876  0.5729
 4239TIP3   OH234131   1.333   1.376  13.352 -0.3357  0.2573  0.0646
 4239TIP3    H134132   1.325   1.310  13.284 -0.7156 -0.3098  0.6472
 4239TIP3    H234133   1.418   1.357  13.393 -0.2901  0.3474  0.0125
 4240TIP3   OH234134   1.489   4.358  13.935 -0.7202  0.6729  0.2602
 4240TIP3    H134135   1.565   4.318  13.976 -0.3794 -0.2286 -1.1871
 4240TIP3    H234136   1.523   4.402  13.857 -1.6399  0.4221 -0.3063
 4241TIP3   OH234137   3.386   3.355  13.336 -0.6398 -0.3422 -0.1091
 4241TIP3    H134138   3.373   3.396  13.422  1.4657  0.3551 -0.0717
 4241TIP3    H234139   3.427   3.424  13.283 -3.0538 -0.3120 -2.1425
 4242TIP3   OH234140   4.448   1.445  15.827 -0.4759  0.0384 -0.6523
 4242TIP3    H134141   4.479   1.359  15.796 -1.2362 -0.0265 -1.2742
 4242TIP3    H234142   4.391   1.425  15.902  0.6773  0.1337  0.2756
 4243TIP3   OH234143   3.400   1.890   6.060 -0.5704  0.4410 -0.2851
 4243TIP3    H134144   3.317   1.937   6.063 -1.0987 -0.4784 -0.1349
 4243TIP3    H234145   3.393   1.823   6.128 -0.8625 -1.5043 -2.1281
 4244TIP3   OH234146   4.216   0.902  14.368 -0.1244 -0.2488  1.3175
 4244TIP3    H134147   4.289   0.953  14.332  1.4150 -2.7537  0.6333
 4244TIP3    H234148   4.146   0.912  14.304  0.4444  0.2941  0.7646
 4245TIP3   OH234149   6.702   4.743  10.485 -0.0329 -0.1678 -0.6102
 4245TIP3    H134150   6.758   4.676  10.446  0.9807  0.9151 -1.0824
 4245TIP3    H234151   6.617   4.731  10.442  0.4490 -0.4356 -1.5203
 4246TIP3   OH234152   3.356   5.266   5.234  0.3433  0.1838  0.4889
 4246TIP3    H134153   3.410   5.319   5.175  0.9842  0.3469  1.2046
 4246TIP3    H234154   3.418   5.224   5.293 -0.2263 -0.6966  0.4794
 4247TIP3   OH234155   1.496   3.466   5.289 -0.2088 -0.0105 -0.1665
 4247TIP3    H134156   1.505   3.371   5.298  0.9036  0.2869  2.5513
 4247TIP3    H234157   1.403   3.483   5.307 -0.3309 -0.5290 -0.2943
 4248TIP3   OH234158   1.334   4.591   5.173 -0.2026  0.2569 -0.0621
 4248TIP3    H134159   1.258   4.550   5.214  0.5847 -1.7403 -0.4676
 4248TIP3    H234160   1.406   4.529   5.188  1.2182  1.7680 -0.2436
 4249TIP3   OH234161   4.122   1.997  16.845 -0.0574  0.3512 -0.2146
 4249TIP3    H134162   4.178   1.994  16.767 -0.6407  1.7030 -0.7136
 4249TIP3    H234163   4.047   1.941  16.823  0.9072 -1.2044  0.3308
 4250TIP3   OH234164   2.194   2.590  15.201  0.3845 -0.1650  0.7102
 4250TIP3    H134165   2.137   2.520  15.169 -0.1497 -0.2336  1.7857
 4250TIP3    H234166   2.141   2.669  15.193  0.1006 -0.2403  1.7866
 4251TIP3   OH234167   1.990   4.496  16.590 -0.2527  0.0716 -0.3334
 4251TIP3    H134168   1.989   4.453  16.504  0.4921 -1.8247  0.5596
 4251TIP3    H234169   2.028   4.431  16.649  0.2876  1.7491  1.2389
 4252TIP3   OH234170   3.663   5.779   6.182 -0.0949 -0.1007  0.0476
 4252TIP3    H134171   3.598   5.713   6.160  0.2213 -0.2690 -0.3993
 4252TIP3    H234172   3.711   5.742   6.256  0.0441 -0.3525 -0.1654
 4253TIP3   OH234173   5.473   4.498   2.032  0.2160  0.3451 -0.9171
 4253TIP3    H134174   5.512   4.512   1.945 -1.2096 -1.9983 -2.0441
 4253TIP3    H234175   5.508   4.413   2.060 -1.4147 -0.2051 -0.4526
 4254TIP3   OH234176   3.701   6.336  13.893 -0.3112  0.4705 -0.1247
 4254TIP3    H134177   3.782   6.370  13.852 -0.0999 -0.3695 -0.4251
 4254TIP3    H234178   3.637   6.407  13.881  0.2309  0.9336 -0.3612
 4255TIP3   OH234179   4.760   5.320  12.889 -0.0237  0.4789  0.0837
 4255TIP3    H134180   4.693   5.313  12.821 -0.9770  0.9041  0.9664
 4255TIP3    H234181   4.753   5.237  12.938 -0.2979  0.7651  0.5313
 4256TIP3   OH234182   6.376   6.396  11.174 -0.2427  1.0336  0.0775
 4256TIP3    H134183   6.469   6.374  11.172 -0.5770 -0.4247 -0.1556
 4256TIP3    H234184   6.357   6.432  11.087 -0.1305  0.2676 -0.2710
 4257TIP3   OH234185   3.906   3.783  11.998  0.1234  0.3863 -0.5185
 4257TIP3    H134186   3.911   3.865  11.949 -0.4169  2.0235  1.9786
 4257TIP3    H234187   3.814   3.774  12.022  0.5847  0.5982  1.5864
 4258TIP3   OH234188   6.251   1.559   2.269  0.4437  0.6285  0.4032
 4258TIP3    H134189   6.204   1.634   2.235 -2.0390 -1.2236 -0.5513
 4258TIP3    H234190   6.284   1.513   2.192  2.2698  0.8808  0.9824
 4259TIP3   OH234191   1.626   6.081  11.275  0.4808 -0.1028 -0.0040
 4259TIP3    H134192   1.559   6.119  11.332  1.7472 -0.1022  1.5221
 4259TIP3    H234193   1.582   6.074  11.190 -1.4252 -0.0321  0.9161
 4260TIP3   OH234194   0.345   1.448   4.406 -0.1029 -0.3386  0.1550
 4260TIP3    H134195   0.258   1.488   4.398  0.2675  0.6599  0.9176
 4260TIP3    H234196   0.385   1.493   4.480  0.5858 -1.7049  0.6443
 4261TIP3   OH234197   0.663   6.691  15.105  0.4972 -0.5162  0.1527
 4261TIP3    H134198   0.703   6.777  15.113 -0.7312 -0.0147  1.3361
 4261TIP3    H234199   0.660   6.673  15.011  0.1606  1.0334 -0.1484
 4262TIP3   OH234200   5.519   0.213   4.220  1.0914 -0.5734 -0.2623
 4262TIP3    H134201   5.503   0.273   4.293  1.0147 -1.2542  0.2983
 4262TIP3    H234202   5.575   0.262   4.160  0.9884  0.0697  0.1564
 4263TIP3   OH234203   2.327   3.197  15.471 -0.2052  0.5163 -0.6673
 4263TIP3    H134204   2.289   3.119  15.431 -1.9831  0.2964  1.2200
 4263TIP3    H234205   2.386   3.232  15.405 -3.3379  0.5663 -3.7726
 4264TIP3   OH234206   0.636   4.406  11.571  0.3702 -0.0791 -0.3954
 4264TIP3    H134207   0.642   4.311  11.558  1.1984 -0.2725  1.1032
 4264TIP3    H234208   0.718   4.440  11.535 -0.3173  0.1952 -1.7451
 4265TIP3   OH234209   2.902   0.170   2.786  0.4312  0.0533 -0.0362
 4265TIP3    H134210   2.992   0.191   2.812  0.4677 -0.0607 -0.0727
 4265TIP3    H234211   2.859   0.144   2.868 -0.1131  2.0110  0.3511
 4266TIP3   OH234212   0.092   2.826  12.911  0.7299  0.3192  0.2055
 4266TIP3    H134213   0.034   2.902  12.919  1.0774  0.6298 -0.1411
 4266TIP3    H234214   0.034   2.750  12.913  0.0455  0.6760 -2.4420
 4267TIP3   OH234215   4.539   4.013   0.235  0.1972  0.6301 -0.0647
 4267TIP3    H134216   4.478   3.965   0.180 -0.7779 -0.7064  2.0498
 4267TIP3    H234217   4.502   4.101   0.241  0.2955  0.7914 -1.4158
 4268TIP3   OH234218   1.571   3.491  16.304  0.9927  0.5043 -0.0546
 4268TIP3    H134219   1.640   3.439  16.262  0.6181 -0.2392  0.2231
 4268TIP3    H234220   1.611   3.576  16.319  1.1487  0.7946 -1.9036
 4269TIP3   OH234221   6.723   0.809  13.344  0.0623  0.0247 -0.0161
 4269TIP3    H134222   6.693   0.803  13.253 -0.0838 -1.8978  0.1234
 4269TIP3    H234223   6.801   0.865  13.340 -0.5454  0.8404 -1.1428
 4270TIP3   OH234224   4.025   6.575   1.787 -0.1568  0.3836  0.3963
 4270TIP3    H134225   3.987   6.548   1.704 -0.8643  0.6119  0.6347
 4270TIP3    H234226   4.037   6.494   1.836  1.8923  0.0467 -0.5638
 4271TIP3   OH234227   0.996   3.849  16.092  0.1085  0.1286  0.3671
 4271TIP3    H134228   1.088   3.838  16.068  0.2204  1.3582  0.1246
 4271TIP3    H234229   0.993   3.934  16.137 -0.9629  0.2953  0.0214
 4272TIP3   OH234230   1.464   0.925   6.547  0.3569 -0.8186 -1.0304
 4272TIP3    H134231   1.457   1.014   6.512  1.0248  0.6373  2.1640
 4272TIP3    H234232   1.377   0.905   6.580  0.5144 -0.7997 -0.5930
 4273TIP3   OH234233   3.958   4.518   4.545 -0.2762  0.0768 -0.2265
 4273TIP3    H134234   3.975   4.540   4.453  1.8798  3.2088  0.7694
 4273TIP3    H234235   3.890   4.579   4.573 -1.3183 -1.2169  0.2056
 4274TIP3   OH234236   2.915   1.899   3.163 -0.2445 -0.3450 -0.2894
 4274TIP3    H134237   2.883   1.986   3.138  1.2174  0.6718  1.1873
 4274TIP3    H234238   2.905   1.896   3.258  4.4696  0.3873  0.4657
 4275TIP3   OH234239   6.250   6.359  16.197  0.2751 -0.3588  0.4423
 4275TIP3    H134240   6.201   6.429  16.240 -1.0371 -0.1615 -1.3018
 4275TIP3    H234241   6.285   6.307  16.270 -0.3720  0.9643  1.7539
 4276TIP3   OH234242   4.620   4.462   3.227  0.2996  0.1633 -0.4377
 4276TIP3    H134243   4.609   4.528   3.296  1.5330 -0.1575  0.0843
 4276TIP3    H234244   4.701   4.486   3.184  0.7299 -0.9615 -0.2914
 4277TIP3   OH234245   2.544   5.999  16.867 -0.0761  0.3833 -0.6958
 4277TIP3    H134246   2.462   5.954  16.889 -0.6336  1.5055 -0.4330
 4277TIP3    H234247   2.538   6.015  16.773  1.4055 -2.5929 -1.4103
 4278TIP3   OH234248   6.235   5.519   1.006 -0.1973 -0.0645 -0.0615
 4278TIP3    H134249   6.300   5.450   0.993 -0.0273  0.2267 -0.7785
 4278TIP3    H234250   6.215   5.515   1.100  0.9806 -0.0307  0.2005
 4279TIP3   OH234251   0.344   6.757  11.233 -0.2144  0.1463 -0.8132
 4279TIP3    H134252   0.363   6.697  11.161 -0.7966 -0.9119 -0.0957
 4279TIP3    H234253   0.407   6.733  11.302  1.1594  1.9389 -1.3579
 4280TIP3   OH234254   2.432   1.622  11.369 -0.0119  0.1071  0.1097
 4280TIP3    H134255   2.469   1.534  11.367 -0.7146 -0.1968  0.2145
 4280TIP3    H234256   2.399   1.633  11.458 -0.2661  0.3376 -0.0108
 4281TIP3   OH234257   0.189   1.903  15.727  0.5259 -0.5197  0.4904
 4281TIP3    H134258   0.182   1.890  15.822 -2.3982 -1.2403  0.2662
 4281TIP3    H234259   0.140   1.983  15.710  2.2104  0.4082 -0.3383
 4282TIP3   OH234260   1.656   5.767   3.729 -0.2936  0.1682  0.4136
 4282TIP3    H134261   1.575   5.736   3.770 -0.0806 -0.9320  0.0148
 4282TIP3    H234262   1.638   5.764   3.635 -0.4175  1.7064  0.3541
 4283TIP3   OH234263   2.062   2.317  13.924  0.2079 -0.0649 -0.0356
 4283TIP3    H134264   2.076   2.374  13.999 -0.1727 -1.2205  0.9475
 4283TIP3    H234265   1.973   2.337  13.895  0.4483  0.5648 -0.3453
 4284TIP3   OH234266   4.426   3.261   6.109 -0.6208  0.9307 -0.4771
 4284TIP3    H134267   4.393   3.310   6.034  1.4148  2.0179 -0.7131
 4284TIP3    H234268   4.349   3.248   6.165 -1.4564  3.3521 -0.9714
 4285TIP3   OH234269   3.941   0.374  16.104  0.1477 -0.3383  0.5271
 4285TIP3    H134270   3.967   0.282  16.099 -2.5377 -1.2494  1.5105
 4285TIP3    H234271   3.873   0.376  16.171 -0.7403  2.1507 -0.3437
 4286TIP3   OH234272   2.322   3.912   3.572  0.1608  1.1925 -0.2978
 4286TIP3    H134273   2.344   3.909   3.665  0.0532  0.9794 -0.2808
 4286TIP3    H234274   2.237   3.869   3.565 -0.4957  2.4381 -0.2975
 4287TIP3   OH234275   1.675   1.242   1.174 -0.5973 -0.5233 -0.4463
 4287TIP3    H134276   1.762   1.277   1.158 -0.2530 -1.3065 -0.3225
 4287TIP3    H234277   1.664   1.174   1.107 -0.3331 -1.7627  0.7261
 4288TIP3   OH234278   6.117   2.833  13.915 -0.3414 -0.1157 -0.5374
 4288TIP3    H134279   6.207   2.856  13.895 -0.0110 -0.7956  0.1025
 4288TIP3    H234280   6.113   2.835  14.010 -1.5039  1.7092 -0.5757
 4289TIP3   OH234281   1.688   3.722  16.347 -0.4639  0.5046 -0.0461
 4289TIP3    H134282   1.683   3.800  16.403 -1.3590  0.4691 -0.0736
 4289TIP3    H234283   1.757   3.743  16.284 -0.6391  1.2384 -0.0007
 4290TIP3   OH234284   2.438   4.088  11.701 -0.8126 -0.1803 -0.5962
 4290TIP3    H134285   2.511   4.065  11.760 -0.7342 -0.0544 -0.6459
 4290TIP3    H234286   2.424   4.009  11.649  0.5328  0.3993 -1.8978
 4291TIP3   OH234287   6.445   3.435   2.687  0.5962  0.9829  0.6121
 4291TIP3    H134288   6.396   3.486   2.752 -1.3209 -0.4453  0.3762
 4291TIP3    H234289   6.395   3.354   2.677  0.3583  1.4115 -3.1818
 4292TIP3   OH234290   4.879   5.349   3.245  0.0370  0.5232  0.2632
 4292TIP3    H134291   4.956   5.401   3.223 -0.9975  2.1190  0.2943
 4292TIP3    H234292   4.905   5.299   3.323  1.0561  0.9528  0.2101
 4293TIP3   OH234293   2.418   4.351   3.061  0.6971  0.0163  0.7151
 4293TIP3    H134294   2.451   4.406   3.132 -0.8201  2.0435 -0.0675
 4293TIP3    H234295   2.329   4.327   3.088  0.4352  0.0568 -0.0933
 4294TIP3   OH234296   4.384   4.373  14.787  0.4637  1.0801 -0.3915
 4294TIP3    H134297   4.353   4.370  14.877 -0.0714  0.1849 -0.5934
 4294TIP3    H234298   4.471   4.412  14.793 -0.0769  2.2279  0.3585
 4295TIP3   OH234299   2.592   6.145   2.832  0.2031  0.3387  0.0469
 4295TIP3    H134300   2.626   6.058   2.809  1.7349  1.0263 -0.4012
 4295TIP3    H234301   2.497   6.137   2.821  0.4416 -0.8194 -1.6373
 4296TIP3   OH234302   1.403   3.865   0.770 -0.1091  0.6463  0.2564
 4296TIP3    H134303   1.336   3.912   0.819  0.4479  0.1877  1.4880
 4296TIP3    H234304   1.375   3.774   0.774 -0.8178  0.7418 -1.5346
 4297TIP3   OH234305   0.214   1.688  17.320  0.2256  0.2224 -0.4177
 4297TIP3    H134306   0.269   1.648  17.387 -1.9811  0.3821  1.6231
 4297TIP3    H234307   0.210   1.623  17.250 -0.3113 -1.5820  1.2041
 4298TIP3   OH234308   4.861   5.377  13.546 -0.3929 -0.0757  0.4674
 4298TIP3    H134309   4.819   5.454  13.507 -1.8085 -0.0368  1.9351
 4298TIP3    H234310   4.865   5.313  13.475  0.2604  1.1224 -0.6163
 4299TIP3   OH234311   6.223   3.252   1.661  0.3294 -0.2720  0.2804
 4299TIP3    H134312   6.303   3.265   1.610 -0.9614  0.3932 -1.6980
 4299TIP3    H234313   6.210   3.158   1.663  0.7117 -0.3382 -0.1477
 4300TIP3   OH234314   4.347   1.666  16.766  0.2357 -0.3718 -0.8677
 4300TIP3    H134315   4.394   1.670  16.683  0.1234  0.2595 -0.9092
 4300TIP3    H234316   4.273   1.725  16.754  1.3718  1.4223  0.3789
 4301TIP3   OH234317   3.411   5.190  13.569 -0.8188 -0.5286  0.4680
 4301TIP3    H134318   3.371   5.164  13.486 -0.5706 -2.4677  0.9054
 4301TIP3    H234319   3.494   5.142  13.572 -0.0336  0.8123  1.1060
 4302TIP3   OH234320   2.512   3.032   3.944  0.2547 -0.1004 -0.0195
 4302TIP3    H134321   2.491   3.124   3.960  1.1599  0.1425 -0.1891
 4302TIP3    H234322   2.430   2.994   3.912 -0.2896  0.5001  0.6337
 4303TIP3   OH234323   3.382   1.630  13.293  0.4971  0.0897  0.4590
 4303TIP3    H134324   3.458   1.614  13.348 -0.9363 -2.3685  1.9105
 4303TIP3    H234325   3.404   1.587  13.210  0.7074 -0.6558  0.8862
 4304TIP3   OH234326   5.258   1.489  12.318  0.3246 -0.2275  0.1991
 4304TIP3    H134327   5.321   1.541  12.368 -0.2083 -0.3521  1.0282
 4304TIP3    H234328   5.259   1.528  12.231  2.5567 -1.0995 -0.2345
 4305TIP3   OH234329   2.054   4.446  13.931 -0.3145  0.1353 -0.2532
 4305TIP3    H134330   2.023   4.356  13.918  2.4824 -1.5145  2.9374
 4305TIP3    H234331   1.986   4.487  13.985  0.1094 -1.4067  1.5387
 4306TIP3   OH234332   2.189   3.118   3.625  0.3056 -0.4877 -0.8201
 4306TIP3    H134333   2.201   3.201   3.671  0.2328 -0.5766 -0.6406
 4306TIP3    H234334   2.095   3.112   3.608  0.1939 -0.9124 -0.1117
 4307TIP3   OH234335   1.181   3.099   1.530  0.2356  0.6878  0.0745
 4307TIP3    H134336   1.211   3.101   1.621 -1.5453  0.9317  0.6996
 4307TIP3    H234337   1.224   3.174   1.489 -1.1642  2.3631  1.5039
 4308TIP3   OH234338   3.412   1.645  11.635 -0.3842  0.3235 -0.1359
 4308TIP3    H134339   3.455   1.730  11.644  3.5453 -1.4868  0.1718
 4308TIP3    H234340   3.426   1.619  11.544  2.8708 -1.8632  0.7793
 4309TIP3   OH234341   4.598   4.391  17.235  0.1823  0.2474  0.6758
 4309TIP3    H134342   4.580   4.314  17.180 -0.0492 -1.2168  2.6602
 4309TIP3    H234343   4.688   4.414  17.215 -0.3511  0.7304 -1.3793
 4310TIP3   OH234344   4.885   0.931   6.030  0.0355  0.2177 -0.1520
 4310TIP3    H134345   4.939   0.974   5.963  0.1154 -0.8332 -0.7771
 4310TIP3    H234346   4.906   0.838   6.022 -0.5714 -0.0150  0.7878
 4311TIP3   OH234347   5.556   5.912  12.124 -0.4300 -0.0934  0.1813
 4311TIP3    H134348   5.548   5.983  12.061  0.5605  1.0489  1.2915
 4311TIP3    H234349   5.484   5.852  12.102 -2.1625  1.9118  0.0781
 4312TIP3   OH234350   2.652   6.170   5.273  0.5118 -0.5651  0.4403
 4312TIP3    H134351   2.619   6.136   5.190 -0.9364 -0.5479  0.9692
 4312TIP3    H234352   2.573   6.194   5.322  1.3242 -0.5967  1.8295
 4313TIP3   OH234353   2.671   5.389   2.317  0.3682 -0.4363  0.4544
 4313TIP3    H134354   2.623   5.313   2.350  1.2356 -1.0042  0.4544
 4313TIP3    H234355   2.630   5.409   2.233 -0.6611 -0.1262  1.0148
 4314TIP3   OH234356   3.892   1.723  15.580  0.1736  0.0694  0.2347
 4314TIP3    H134357   3.869   1.781  15.508  2.2737 -1.4683 -1.8060
 4314TIP3    H234358   3.948   1.657  15.541 -0.3644 -2.1255  2.8806
 4315TIP3   OH234359   4.595   4.605   5.846  0.1366  0.5524  0.0041
 4315TIP3    H134360   4.510   4.562   5.853 -0.5156  1.0880 -3.0927
 4315TIP3    H234361   4.585   4.689   5.892 -0.6027  0.1111  0.6546
 4316TIP3   OH234362   0.286   4.094   5.562 -0.3609  0.5396 -0.6664
 4316TIP3    H134363   0.328   4.151   5.627 -2.3143 -0.1183  1.2770
 4316TIP3    H234364   0.238   4.030   5.614 -1.1089 -0.7011 -2.7995
 4317TIP3   OH234365   3.309   5.024  13.347 -0.0840  0.1842  0.6051
 4317TIP3    H134366   3.374   4.957  13.325 -0.2414 -0.1341  1.0870
 4317TIP3    H234367   3.246   5.021  13.276 -0.7711 -1.0602  1.2216
 4318TIP3   OH234368   0.998   5.217  13.403  0.0005 -0.2904 -0.5101
 4318TIP3    H134369   1.068   5.282  13.397 -0.4312  0.2610  0.1863
 4318TIP3    H234370   1.024   5.160  13.475 -0.1376 -0.2428 -0.4223
 4319TIP3   OH234371   1.268   0.208  14.270 -0.0183  0.2508 -0.1129
 4319TIP3    H134372   1.201   0.264  14.231  1.3803  1.4203 -0.9798
 4319TIP3    H234373   1.277   0.135  14.208  0.6704  0.9842 -0.9178
 4320TIP3   OH234374   1.237   4.992  13.186  0.6682 -0.2025 -0.6092
 4320TIP3    H134375   1.162   4.932  13.182  0.6018 -0.0772 -1.3056
 4320TIP3    H234376   1.273   4.978  13.273  2.2288 -3.1425 -1.5909
 4321TIP3   OH234377   0.432   1.974  13.411  0.3881  0.2235  0.2123
 4321TIP3    H134378   0.525   1.955  13.424 -0.1116 -2.5010  0.4101
 4321TIP3    H234379   0.394   1.967  13.499 -0.4844 -2.3317 -0.2597
 4322TIP3   OH234380   4.214   5.111  17.178 -0.2069  0.0132  0.1501
 4322TIP3    H134381   4.151   5.039  17.181  0.6371 -0.7356  0.6340
 4322TIP3    H234382   4.298   5.068  17.161  0.3219  0.8857  0.4859
 4323TIP3   OH234383   6.109   1.835   1.850 -0.1542  0.2265 -0.4191
 4323TIP3    H134384   6.034   1.889   1.823  1.6298  2.7154 -0.7024
 4323TIP3    H234385   6.181   1.897   1.860  1.4663 -1.8210  1.6260
 4324TIP3   OH234386   4.077   5.560  12.760  0.7161  0.3034 -0.0284
 4324TIP3    H134387   4.013   5.632  12.767  0.3019  0.0840 -1.3490
 4324TIP3    H234388   4.160   5.604  12.743  1.2660  0.6883  3.1090
 4325TIP3   OH234389   1.628   6.209  15.695 -0.4408  0.2372  0.2080
 4325TIP3    H134390   1.576   6.167  15.763  0.0359 -1.1727 -0.2733
 4325TIP3    H234391   1.673   6.281  15.740 -1.6536  0.5866  0.9326
 4326TIP3   OH234392   3.547   5.636   3.829 -0.0984 -0.0174  0.7655
 4326TIP3    H134393   3.546   5.711   3.769 -0.0397 -0.5106  0.1279
 4326TIP3    H234394   3.478   5.655   3.893 -2.2407 -0.7944 -1.1626
 4327TIP3   OH234395   3.084   1.490   1.959 -0.4452 -0.3937  0.4133
 4327TIP3    H134396   3.125   1.560   1.907 -0.3570 -0.2158  0.7202
 4327TIP3    H234397   3.001   1.528   1.989  0.3288  0.1667  1.9252
 4328TIP3   OH234398   3.855   6.384   5.414 -0.6347  0.0139 -0.0804
 4328TIP3    H134399   3.789   6.449   5.388 -2.1306 -1.4896 -0.2443
 4328TIP3    H234400   3.857   6.388   5.509 -1.2865 -0.2082 -0.0530
 4329TIP3   OH234401   0.570   4.194   3.697 -0.1224  0.5125 -0.2164
 4329TIP3    H134402   0.487   4.227   3.661 -0.4615 -0.5638 -0.4599
 4329TIP3    H234403   0.588   4.251   3.772 -0.7902  1.1101 -0.4975
 4330TIP3   OH234404   4.261   3.669  17.105  0.0987 -0.1176 -0.4834
 4330TIP3    H134405   4.244   3.575  17.102  1.0802 -0.2785 -2.2394
 4330TIP3    H234406   4.351   3.679  17.075  0.4855  1.3019  0.9791
 4331TIP3   OH234407   6.357   0.527   4.334 -0.4922  0.0288 -0.4676
 4331TIP3    H134408   6.360   0.504   4.241  0.4518 -0.7821 -0.2580
 4331TIP3    H234409   6.433   0.482   4.372 -1.2530 -0.2228  0.8172
 4332TIP3   OH234410   0.632   1.515   4.167  0.2903 -0.8479 -0.4014
 4332TIP3    H134411   0.575   1.579   4.125 -0.0760 -1.0858 -0.2796
 4332TIP3    H234412   0.663   1.459   4.095  2.6833  0.9778 -0.9089
 4333TIP3   OH234413   4.382   5.947  14.505  0.2928 -0.3080 -0.6083
 4333TIP3    H134414   4.357   6.023  14.559  1.8093  1.3857 -2.1562
 4333TIP3    H234415   4.302   5.923  14.459 -0.3554 -0.0565  0.3438
 4334TIP3   OH234416   5.881   5.313   5.899  0.0926  0.2306 -0.1601
 4334TIP3    H134417   5.952   5.352   5.849  0.5585  0.2050  0.4711
 4334TIP3    H234418   5.834   5.387   5.937 -0.9757  0.3153 -1.5510
 4335TIP3   OH234419   2.032   6.262   1.592  0.0667  0.1092  0.6131
 4335TIP3    H134420   2.012   6.348   1.556  2.2393  1.0391  1.4391
 4335TIP3    H234421   1.961   6.206   1.562  0.0405  1.5355 -2.2921
 4336TIP3   OH234422   2.292   5.436  16.082 -0.4934 -0.4504 -0.1145
 4336TIP3    H134423   2.228   5.483  16.136  0.2341  0.5449 -0.0894
 4336TIP3    H234424   2.377   5.459  16.121 -0.1048 -1.6783 -0.1984
 4337TIP3   OH234425   2.094   6.319   5.669  0.1616 -0.3519  0.1188
 4337TIP3    H134426   2.107   6.350   5.758 -0.7181  2.0159 -0.4979
 4337TIP3    H234427   2.175   6.344   5.623 -0.2967  0.5293 -0.2378
 4338TIP3   OH234428   2.202   6.735  15.535  0.5225 -0.2253 -0.0869
 4338TIP3    H134429   2.222   6.683  15.613 -1.8064 -0.0456  0.6845
 4338TIP3    H234430   2.202   6.671  15.463 -0.3651 -0.9571  0.5431
 4339TIP3   OH234431   0.822   4.284  13.983  0.0297 -0.1874 -0.6037
 4339TIP3    H134432   0.871   4.355  13.942  0.1166  0.7670  1.0700
 4339TIP3    H234433   0.739   4.281  13.935  0.5498  0.1378 -1.5506
 4340TIP3   OH234434   2.736   3.776   1.380  0.8200  0.2014  0.2196
 4340TIP3    H134435   2.830   3.781   1.363  0.9684  1.1484  1.2234
 4340TIP3    H234436   2.728   3.787   1.474 -0.4589  3.3065 -0.1539
 4341TIP3   OH234437   4.168   4.296  14.031  0.2186  0.1215 -0.3692
 4341TIP3    H134438   4.248   4.249  14.056 -0.8705 -1.1353  0.9340
 4341TIP3    H234439   4.191   4.389  14.041  0.9451 -0.2440  1.9945
 4342TIP3   OH234440   4.512   6.425  11.989  0.4322 -0.8838  0.2388
 4342TIP3    H134441   4.422   6.399  11.970  0.1842  0.4400 -0.5584
 4342TIP3    H234442   4.504   6.490  12.058  0.6852 -0.0918 -0.4653
 4343TIP3   OH234443   0.499   5.521   0.395  0.5662  0.6212  0.2415
 4343TIP3    H134444   0.504   5.597   0.336  1.7556 -0.9860 -1.8314
 4343TIP3    H234445   0.529   5.555   0.480 -0.2194  2.7542 -0.2648
 4344TIP3   OH234446   5.464   2.315   1.452  0.2885 -0.1739 -0.0478
 4344TIP3    H134447   5.521   2.391   1.442  1.1246 -0.9179 -1.2190
 4344TIP3    H234448   5.440   2.315   1.545  1.0695  0.9486  0.1746
 4345TIP3   OH234449   6.763   5.881  16.284  0.2474 -0.2420 -0.0449
 4345TIP3    H134450   6.746   5.863  16.376  0.0773 -1.7839 -0.3537
 4345TIP3    H234451   6.680   5.864  16.240  0.4430  0.0495 -0.5437
 4346TIP3   OH234452   5.231   5.083  11.663 -0.3291 -0.2601 -0.0552
 4346TIP3    H134453   5.185   5.139  11.726  0.5260  0.2064  0.1631
 4346TIP3    H234454   5.164   5.060  11.599 -1.0021 -0.0301  0.5499
 4347TIP3   OH234455   3.082   4.080  12.107  0.6458  0.4236 -0.5398
 4347TIP3    H134456   3.166   4.090  12.150 -0.3137  0.8746  1.3148
 4347TIP3    H234457   3.096   4.114  12.019  2.5215 -0.0063 -0.4529
 4348TIP3   OH234458   0.444   1.861   0.175 -0.0014 -0.0918  0.1551
 4348TIP3    H134459   0.508   1.805   0.132 -1.0705 -0.8330 -0.5136
 4348TIP3    H234460   0.426   1.930   0.111 -0.5190 -0.3915 -0.0340
 4349TIP3   OH234461   3.210   4.447   5.022 -0.0452  0.1522 -0.0200
 4349TIP3    H134462   3.287   4.418   4.972 -1.8824 -0.2666 -2.7977
 4349TIP3    H234463   3.137   4.399   4.985 -1.7632  0.8297  2.2714
 4350TIP3   OH234464   6.366   1.334   2.478  0.3410  0.2090  0.0709
 4350TIP3    H134465   6.307   1.379   2.418 -0.5056  0.7561  1.2938
 4350TIP3    H234466   6.386   1.251   2.434 -0.0149  0.7286 -1.0939
 4351TIP3   OH234467   3.279   5.180   0.888 -0.0608  0.3489 -0.3061
 4351TIP3    H134468   3.293   5.086   0.900  0.1286  0.6292  2.0651
 4351TIP3    H234469   3.209   5.185   0.823 -1.4234 -1.5133  0.8908
 4352TIP3   OH234470   4.226   3.335  10.903  0.1564 -0.1066 -0.0476
 4352TIP3    H134471   4.200   3.383  10.982  1.4121  0.9386 -0.2246
 4352TIP3    H234472   4.144   3.303  10.865 -0.4824 -0.5756  1.6300
 4353TIP3   OH234473   5.033   3.505   2.139 -0.3669 -0.3263 -0.0169
 4353TIP3    H134474   5.071   3.446   2.074 -0.2338  0.8574 -1.0601
 4353TIP3    H234475   4.957   3.544   2.094 -0.6294  0.0761  0.7525
 4354TIP3   OH234476   2.450   4.236  12.710 -0.2120  0.3201 -0.1396
 4354TIP3    H134477   2.524   4.214  12.767  0.1557 -0.1719 -0.8014
 4354TIP3    H234478   2.479   4.312  12.660 -0.6263  0.9046  0.4912
 4355TIP3   OH234479   5.143   6.053   0.397  0.0221  0.0270 -0.1403
 4355TIP3    H134480   5.121   6.005   0.316  1.1255  2.3703 -1.9626
 4355TIP3    H234481   5.074   6.118   0.406  0.0318 -0.0719  0.6815
 4356TIP3   OH234482   0.107   2.562   6.443  0.1970 -0.8456  0.1160
 4356TIP3    H134483   0.109   2.469   6.465 -1.7325 -0.8143  0.6642
 4356TIP3    H234484   0.113   2.607   6.527  0.7351 -0.4746 -0.1155
 4357TIP3   OH234485   0.217   1.153   0.319 -0.8515  0.1649 -0.4230
 4357TIP3    H134486   0.143   1.201   0.356 -2.1380 -0.5268 -1.9923
 4357TIP3    H234487   0.209   1.065   0.355 -1.2444 -0.1051 -1.1418
 4358TIP3   OH234488   4.983   2.125  17.107  0.2699  0.2869  0.0122
 4358TIP3    H134489   5.071   2.162  17.097 -0.4086  1.6038 -1.6498
 4358TIP3    H234490   4.955   2.154  17.194  1.8100 -0.9946  0.9917
 4359TIP3   OH234491   3.364   5.722  16.061  0.1899  0.1633 -0.2187
 4359TIP3    H134492   3.297   5.746  15.998 -0.9543 -1.0189  0.4912
 4359TIP3    H234493   3.356   5.787  16.131 -0.3866 -0.1201 -0.0218
 4360TIP3   OH234494   4.789   3.940   2.368  0.0298  0.2509 -0.2606
 4360TIP3    H134495   4.780   3.962   2.276  0.3821  2.1920  0.1266
 4360TIP3    H234496   4.848   3.865   2.370 -0.3981 -0.1400 -1.6256
 4361TIP3   OH234497   1.087   4.014  10.683  0.9655  0.6614 -0.6896
 4361TIP3    H134498   1.173   4.030  10.645  0.7096  1.3629 -0.9956
 4361TIP3    H234499   1.100   3.940  10.743  1.3807 -0.4447 -2.1117
 4362TIP3   OH234500   3.993   3.449   5.135 -0.0411  0.8108 -0.1912
 4362TIP3    H134501   4.029   3.399   5.207 -0.3595 -0.6917 -1.0338
 4362TIP3    H234502   4.069   3.477   5.084  0.0926 -0.5623 -0.8056
 4363TIP3   OH234503   4.880   4.788   1.452  0.2238 -0.2915 -0.1592
 4363TIP3    H134504   4.813   4.850   1.425  0.0979 -0.6409 -0.6598
 4363TIP3    H234505   4.955   4.842   1.476 -0.3803  0.1236  0.8407
 4364TIP3   OH234506   5.377   3.560  15.321 -0.5623  0.1601 -0.4480
 4364TIP3    H134507   5.434   3.507  15.266  0.2789  0.9762 -0.3880
 4364TIP3    H234508   5.435   3.600  15.385 -1.1392  1.2658 -0.5814
 4365TIP3   OH234509   0.188   5.558  13.017  0.0372 -0.0546 -0.0898
 4365TIP3    H134510   0.206   5.617  13.090  0.6468 -2.1639  1.5714
 4365TIP3    H234511   0.124   5.496  13.053 -1.7541  0.4181 -2.2520
 4366TIP3   OH234512   4.619   5.836   5.089  0.0957 -0.1593  0.3434
 4366TIP3    H134513   4.644   5.818   4.998 -1.5897 -0.7401 -0.0450
 4366TIP3    H234514   4.688   5.893   5.122  1.8563 -1.6319 -0.6317
 4367TIP3   OH234515   0.136   2.451   5.928 -0.4038  0.7253  0.0679
 4367TIP3    H134516   0.058   2.430   5.876 -0.1411 -0.3813  0.1086
 4367TIP3    H234517   0.109   2.526   5.981 -1.8151 -0.2867  0.8604
 4368TIP3   OH234518   4.725   1.467   3.961 -0.6933  0.0431  0.3814
 4368TIP3    H134519   4.722   1.428   3.874 -3.9231  0.4954  0.1786
 4368TIP3    H234520   4.805   1.521   3.961  0.3196 -1.3664 -1.6138
 4369TIP3   OH234521   0.229   6.740   6.039 -0.5084  0.5533  0.0602
 4369TIP3    H134522   0.261   6.827   6.064 -0.1059  0.2160  0.7572
 4369TIP3    H234523   0.252   6.684   6.114 -0.0633 -0.3165 -0.7115
 4370TIP3   OH234524   0.595   3.899  12.419 -1.1198  0.0855  0.0939
 4370TIP3    H134525   0.536   3.849  12.476 -1.8355  0.8764  0.0717
 4370TIP3    H234526   0.614   3.839  12.347 -0.4081 -0.8391  1.0196
 4371TIP3   OH234527   6.058   2.883   0.231  0.0778 -0.0729 -0.1438
 4371TIP3    H134528   5.976   2.888   0.280 -1.1794 -0.0757 -2.1148
 4371TIP3    H234529   6.075   2.973   0.203 -0.0304 -0.2736 -0.8956
 4372TIP3   OH234530   0.586   3.834  17.130 -0.3118 -0.5110  0.2764
 4372TIP3    H134531   0.672   3.809  17.098 -0.7300 -2.4500  0.5268
 4372TIP3    H234532   0.599   3.856  17.222 -0.2153 -1.7901  0.5864
 4373TIP3   OH234533   3.684   6.161   5.677 -0.4958  0.3694  0.3034
 4373TIP3    H134534   3.679   6.256   5.687  0.3599  0.5300 -0.6257
 4373TIP3    H234535   3.776   6.144   5.657 -0.7977 -0.5657 -0.3476
 4374TIP3   OH234536   3.810   4.665  11.381  0.2282 -0.0773  0.7465
 4374TIP3    H134537   3.770   4.578  11.382  1.7407 -0.7886  1.1951
 4374TIP3    H234538   3.736   4.725  11.398 -1.0973 -1.1177 -1.0649
 4375TIP3   OH234539   6.367   6.381   4.780  0.1246 -0.4458  0.0097
 4375TIP3    H134540   6.350   6.474   4.769  1.4939  0.0601  1.6711
 4375TIP3    H234541   6.318   6.339   4.710 -0.7587  1.4910 -0.6031
 4376TIP3   OH234542   5.518   3.557   5.568 -0.4754 -0.1750 -0.0638
 4376TIP3    H134543   5.447   3.618   5.590 -0.6758 -0.4382  0.0285
 4376TIP3    H234544   5.557   3.534   5.652 -0.0885  0.1957 -0.1402
 4377TIP3   OH234545   2.988   2.952   5.852  0.3458  0.0522  0.0508
 4377TIP3    H134546   3.003   2.886   5.920  3.0594  0.5135 -0.0081
 4377TIP3    H234547   3.030   2.915   5.774  1.5375  1.6235 -0.0925
 4378TIP3   OH234548   2.798   3.508  17.124  0.2510  0.0203  0.2397
 4378TIP3    H134549   2.704   3.491  17.125  0.1383  0.4346  2.7534
 4378TIP3    H234550   2.835   3.441  17.182  1.2659  0.9158  0.6689
 4379TIP3   OH234551   1.404   5.252   0.023 -1.1281 -0.1690 -0.0399
 4379TIP3    H134552   1.418   5.212  -0.063 -0.4439 -1.9698  0.8600
 4379TIP3    H234553   1.490   5.248   0.065 -1.9785 -1.7630  1.6877
 4380TIP3   OH234554   5.595   3.530   5.853 -1.0579 -0.7522  0.0589
 4380TIP3    H134555   5.538   3.561   5.923  1.9848  0.7608  2.0707
 4380TIP3    H234556   5.661   3.477   5.898  0.6246 -0.2792 -1.7279
 4381TIP3   OH234557   3.312   5.928  12.227 -0.2263  0.1358 -0.0806
 4381TIP3    H134558   3.333   5.835  12.236  2.3393  0.6314 -0.2258
 4381TIP3    H234559   3.224   5.929  12.190 -0.3567 -2.2245 -0.0016
 4382TIP3   OH234560   0.872   2.352   1.994  0.0799 -0.7397 -0.1608
 4382TIP3    H134561   0.828   2.417   2.049  0.2097 -1.0513  0.3275
 4382TIP3    H234562   0.913   2.292   2.057  2.5721  0.4126 -0.5352
 4383TIP3   OH234563   1.191   0.887   3.806  0.0572 -0.5370 -0.0423
 4383TIP3    H134564   1.151   0.963   3.848  1.8277  0.3173  0.1973
 4383TIP3    H234565   1.207   0.915   3.716  2.7876  0.2827  0.6133
 4384TIP3   OH234566   4.857   4.407   0.983 -0.2336 -0.3083 -0.3997
 4384TIP3    H134567   4.762   4.395   0.986 -0.1018 -1.6115 -0.8991
 4384TIP3    H234568   4.871   4.490   1.028 -1.2489 -2.1765  3.9089
 4385TIP3   OH234569   5.699   0.781   1.231  0.7399 -0.5385  0.5535
 4385TIP3    H134570   5.613   0.820   1.216  0.7038 -0.0641  1.8897
 4385TIP3    H234571   5.722   0.806   1.320  2.8908  0.5137 -0.2197
 4386TIP3   OH234572   1.981   3.775  12.752 -0.2948  0.3765 -0.1553
 4386TIP3    H134573   2.065   3.781  12.798 -0.2265  0.9971 -0.3554
 4386TIP3    H234574   1.981   3.687  12.713 -0.1787 -0.0121  0.6832
 4387TIP3   OH234575   1.780   0.831  14.030  0.6008  0.0017  0.5419
 4387TIP3    H134576   1.782   0.818  14.125  2.4879 -2.0719  0.2938
 4387TIP3    H234577   1.823   0.754  13.994  1.1207  1.3439 -1.9503
 4388TIP3   OH234578   0.592   4.766   3.973 -0.0704  0.2272  0.7794
 4388TIP3    H134579   0.538   4.722   4.039 -0.0807  1.5253  1.6673
 4388TIP3    H234580   0.538   4.765   3.894 -0.4591 -0.4987  1.0438
 4389TIP3   OH234581   2.432   6.094   1.504 -0.0507 -0.1522 -0.2957
 4389TIP3    H134582   2.382   6.113   1.425 -1.9250  1.6495  1.2012
 4389TIP3    H234583   2.509   6.150   1.499  1.2561 -1.9379 -1.9677
 4390TIP3   OH234584   2.780   2.793   4.669  0.1709  0.1735  0.3901
 4390TIP3    H134585   2.818   2.858   4.728 -1.0412  0.8684  0.4247
 4390TIP3    H234586   2.752   2.843   4.592  0.3477 -0.4941 -0.1187
 4391TIP3   OH234587   5.930   5.574  16.903 -0.4377 -0.4069 -0.7328
 4391TIP3    H134588   5.886   5.491  16.881  0.3323 -1.3410  1.0502
 4391TIP3    H234589   6.023   5.552  16.903 -0.3036 -0.1591  1.8760
 4392TIP3   OH234590   3.003   4.476  14.095  0.4960  0.0492 -0.0585
 4392TIP3    H134591   3.069   4.545  14.092  3.3216 -2.3340  1.8297
 4392TIP3    H234592   2.978   4.472  14.188  0.3627 -1.4011 -0.1409
 4393TIP3   OH234593   5.024   2.992  16.528  0.3593 -0.7064 -1.1457
 4393TIP3    H134594   4.987   2.907  16.551 -0.6402  0.0570  0.1998
 4393TIP3    H234595   4.969   3.024  16.457  0.1163 -0.7725 -0.9902
 4394TIP3   OH234596   0.034   1.375  14.820  0.0078  0.7041  0.7245
 4394TIP3    H134597  -0.026   1.360  14.748 -0.0171 -0.7591  1.0260
 4394TIP3    H234598  -0.022   1.385  14.897  0.1360 -1.4117  1.1315
 4395TIP3   OH234599   0.480   5.667   4.924  0.1464 -0.1058 -0.1512
 4395TIP3    H134600   0.419   5.662   4.851  0.2138  1.7249 -0.3877
 4395TIP3    H234601   0.453   5.598   4.984  0.8411 -2.5169 -2.4124
 4396TIP3   OH234602   4.824   0.872  16.421 -0.1009 -0.0199  0.5377
 4396TIP3    H134603   4.802   0.853  16.330  1.2387  0.5599  0.0713
 4396TIP3    H234604   4.740   0.868  16.467 -0.4909 -3.0422 -0.2116
 4397TIP3   OH234605   4.601   0.386   1.049  0.5440  0.0359  0.5012
 4397TIP3    H134606   4.631   0.476   1.064 -0.8157 -0.0103  4.8205
 4397TIP3    H234607   4.672   0.332   1.083  0.1681 -0.4284  0.5443
 4398TIP3   OH234608   1.508   2.834  15.792  0.2127 -0.1240  0.4056
 4398TIP3    H134609   1.487   2.803  15.704  2.1887 -1.7135  0.4172
 4398TIP3    H234610   1.437   2.801  15.847 -0.2332 -0.4638 -0.3636
 4399TIP3   OH234611   0.255   1.950   2.105  0.3861  0.1184  0.0684
 4399TIP3    H134612   0.257   1.933   2.011  1.3439 -0.1580  0.1216
 4399TIP3    H234613   0.163   1.943   2.129  0.3484 -2.0151 -0.4700
 4400TIP3   OH234614   3.523   1.584  10.732  0.5399  0.4858 -0.2893
 4400TIP3    H134615   3.473   1.638  10.670  1.5606  1.1015 -0.6078
 4400TIP3    H234616   3.523   1.635  10.813 -0.3646 -0.0839  0.0831
 4401TIP3   OH234617   4.699   2.221  11.689  0.5403  0.3263 -0.4385
 4401TIP3    H134618   4.671   2.297  11.739 -0.7342  0.8119 -1.8233
 4401TIP3    H234619   4.792   2.235  11.672  1.0569  0.0558  1.8853
 4402TIP3   OH234620   1.090   2.156  16.496  0.1610  0.0715  0.2313
 4402TIP3    H134621   1.076   2.235  16.549  0.1654 -0.0886  0.4712
 4402TIP3    H234622   1.112   2.088  16.559 -0.1932 -0.2088  0.0600
 4403TIP3   OH234623   5.195   3.147   5.331 -0.6841  0.4008  0.0422
 4403TIP3    H134624   5.230   3.129   5.418 -0.5207  1.6876  0.2621
 4403TIP3    H234625   5.206   3.065   5.283 -0.3683 -0.1866  1.0942
 4404TIP3   OH234626   1.010   0.924  13.355  0.1225  0.5691 -0.2082
 4404TIP3    H134627   0.951   0.991  13.391 -0.2289 -0.4904  1.2851
 4404TIP3    H234628   1.040   0.875  13.432 -0.9362 -2.0710 -1.3778
 4405TIP3   OH234629   2.492   5.949  14.099 -0.3917 -0.7701 -0.4375
 4405TIP3    H134630   2.396   5.951  14.097 -0.7153  2.1893  4.0557
 4405TIP3    H234631   2.513   5.891  14.172  0.8391  1.9725  1.5714
 4406TIP3   OH234632   2.389   4.080   1.541 -0.2555 -0.0628 -0.3928
 4406TIP3    H134633   2.427   4.100   1.456 -0.2179 -1.9197 -0.8364
 4406TIP3    H234634   2.455   4.027   1.586 -0.6865  0.0634  0.4238
 4407TIP3   OH234635   3.819   6.711  13.450  0.0103  0.0647  0.1203
 4407TIP3    H134636   3.802   6.754  13.366  0.4596  0.0132  0.0009
 4407TIP3    H234637   3.739   6.661  13.468 -1.0191  1.8650  0.8466
 4408TIP3   OH234638   3.593   1.593  13.452 -0.2889 -0.2893  0.4177
 4408TIP3    H134639   3.634   1.662  13.504  0.7427  0.2180 -0.9796
 4408TIP3    H234640   3.666   1.543  13.416 -0.8886 -0.0149 -1.2928
 4409TIP3   OH234641   5.130   1.061   1.042  0.6265  0.4939 -0.2633
 4409TIP3    H134642   5.191   1.133   1.023  1.3392  0.0764  0.3964
 4409TIP3    H234643   5.124   1.059   1.137  0.5657 -0.2894 -0.2795
 4410TIP3   OH234644   0.416   6.373  15.752  0.0331  0.1847 -0.2001
 4410TIP3    H134645   0.364   6.393  15.674  0.3054 -0.5740 -0.5930
 4410TIP3    H234646   0.471   6.299  15.725  0.0652 -0.1473  0.7451
 4411TIP3   OH234647   4.619   1.704  11.113 -0.0792  0.5447 -0.0955
 4411TIP3    H134648   4.551   1.639  11.098 -0.9472  1.2830  0.5767
 4411TIP3    H234649   4.613   1.763  11.038  2.4023 -1.4849 -2.1054
 4412TIP3   OH234650   1.235   3.959   2.635  0.3571 -0.0434 -0.1344
 4412TIP3    H134651   1.206   3.982   2.547 -1.0533 -0.9825  0.0422
 4412TIP3    H234652   1.304   4.021   2.656  0.0472  0.7950 -1.5337
 4413TIP3   OH234653   0.069   0.069  12.044 -0.3426  0.3298  0.6246
 4413TIP3    H134654   0.096  -0.016  12.079  1.3645  0.4114 -0.3908
 4413TIP3    H234655   0.105   0.071  11.955 -1.6501  1.5137  0.0826
 4414TIP3   OH234656   3.882   3.047   4.252  0.4865  0.1117 -0.0937
 4414TIP3    H134657   3.976   3.030   4.258  0.1461 -1.9778  0.1555
 4414TIP3    H234658   3.861   3.039   4.159  0.5793  0.8005 -0.1783
 4415TIP3   OH234659   1.929   0.229   3.754 -0.5359 -0.1339  0.1248
 4415TIP3    H134660   1.920   0.144   3.796 -0.1716  0.2373  0.9770
 4415TIP3    H234661   2.009   0.221   3.702 -0.3480 -0.2152  0.4277
 4416TIP3   OH234662   0.758   1.222  12.390  0.1776 -0.4165  0.0789
 4416TIP3    H134663   0.782   1.131  12.370 -0.1873 -0.7887  1.2710
 4416TIP3    H234664   0.755   1.265  12.304  0.9727 -1.3668 -0.4523
 4417TIP3   OH234665   5.951   5.504   4.597 -0.3644  0.1456  0.1873
 4417TIP3    H134666   6.030   5.536   4.553 -0.5507 -2.3337 -2.1873
 4417TIP3    H234667   5.966   5.410   4.608 -2.8757 -0.3632 -0.1629
 4418TIP3   OH234668   2.039   3.278   4.742 -0.1548  0.3875 -0.3065
 4418TIP3    H134669   2.109   3.315   4.796  0.7288 -2.8425  1.0334
 4418TIP3    H234670   2.027   3.342   4.671  1.9531  2.5514  1.1181
 4419TIP3   OH234671   3.733   5.089  16.054  0.4299 -0.0283  0.0314
 4419TIP3    H134672   3.649   5.071  16.011 -0.6760  1.5370  1.4312
 4419TIP3    H234673   3.798   5.075  15.985 -1.1662  1.1519 -1.8396
 4420TIP3   OH234674   3.667   2.489  11.559 -0.1747 -0.0069 -0.5446
 4420TIP3    H134675   3.582   2.523  11.586 -1.0919 -2.3639 -0.2840
 4420TIP3    H234676   3.658   2.476  11.464 -0.3149 -0.7918 -0.4266
 4421TIP3   OH234677   0.834   1.756   4.906 -0.3241  0.0426 -0.2257
 4421TIP3    H134678   0.868   1.684   4.851  0.9024  0.4389 -0.0115
 4421TIP3    H234679   0.821   1.828   4.845 -1.5167 -0.3181 -0.4328
 4422TIP3   OH234680   3.405   6.544   0.058 -0.5402  0.1324  0.1045
 4422TIP3    H134681   3.376   6.459   0.025  0.4709 -0.4680  0.6987
 4422TIP3    H234682   3.336   6.570   0.119 -1.3480  0.2268 -0.8289
 4423TIP3   OH234683   4.214   0.661  13.907  0.1982  0.0191 -0.0549
 4423TIP3    H134684   4.241   0.607  13.833 -1.2434  2.3658 -2.5059
 4423TIP3    H234685   4.264   0.743  13.896 -1.2124  1.0025  0.5875
 4424TIP3   OH234686   0.866   2.304   1.733  0.1152  0.7086 -0.3047
 4424TIP3    H134687   0.868   2.321   1.827 -1.1675  0.0025 -0.1279
 4424TIP3    H234688   0.955   2.276   1.713 -0.0789 -1.1943  1.1412
 4425TIP3   OH234689   1.051   0.824   5.252 -0.6414  0.6590 -0.0680
 4425TIP3    H134690   1.139   0.842   5.286 -0.8466  0.3121  0.6648
 4425TIP3    H234691   1.018   0.909   5.224  0.1522  0.7034 -0.8988
 4426TIP3   OH234692   4.419   3.979   5.906  0.1034  0.2843  0.1943
 4426TIP3    H134693   4.444   4.015   5.991  1.1688  1.0257 -0.4174
 4426TIP3    H234694   4.437   3.885   5.914 -0.8752  0.1522  1.1500
 4427TIP3   OH234695   3.788   2.843   6.471 -0.1423  0.3389 -0.6366
 4427TIP3    H134696   3.730   2.910   6.504 -0.8925 -0.2131 -0.8120
 4427TIP3    H234697   3.731   2.782   6.424  0.4676 -0.5766 -0.2360
 4428TIP3   OH234698   5.425   6.390   1.548  0.2655  0.1150  0.4093
 4428TIP3    H134699   5.337   6.429   1.544 -0.1579 -0.8508  0.1156
 4428TIP3    H234700   5.483   6.465   1.557 -0.5928  0.7700  0.6598
 4429TIP3   OH234701   0.865   6.246   3.654  0.5473  0.5160  0.1865
 4429TIP3    H134702   0.780   6.279   3.683  0.2054 -0.8061  0.7422
 4429TIP3    H234703   0.927   6.279   3.718  0.5396  1.8747 -0.4760
 4430TIP3   OH234704   4.377   5.381  11.813  0.2919 -0.1959 -0.0599
 4430TIP3    H134705   4.319   5.328  11.759  0.8666 -1.2971  0.3789
 4430TIP3    H234706   4.322   5.407  11.888  0.1625 -0.6141 -0.0098
 4431TIP3   OH234707   2.383   1.605   3.612  0.6597 -0.3049 -0.1795
 4431TIP3    H134708   2.295   1.640   3.601  0.8753 -0.1488 -1.6467
 4431TIP3    H234709   2.441   1.679   3.591  1.1825 -0.1377  1.6494
 4432TIP3   OH234710   0.154   2.864  16.998  0.1844  0.2730  0.6916
 4432TIP3    H134711   0.082   2.924  17.018  0.3748  1.7864 -2.4899
 4432TIP3    H234712   0.113   2.778  16.991 -1.2592  1.0262 -0.5908
 4433TIP3   OH234713   1.190   6.327  15.116  0.5517 -0.2819  0.2617
 4433TIP3    H134714   1.113   6.284  15.079  0.8942 -2.3067  1.7559
 4433TIP3    H234715   1.169   6.420  15.113 -1.0648 -0.6388 -1.2691
 4434TIP3   OH234716   2.485   3.523   5.910 -0.6952  0.0140  0.1976
 4434TIP3    H134717   2.541   3.551   5.982  1.0403 -2.8423  0.1032
 4434TIP3    H234718   2.537   3.540   5.831 -0.4331 -1.4252  0.0215
 4435TIP3   OH234719   0.844   4.665  12.988  0.6504  0.5581  0.4385
 4435TIP3    H134720   0.822   4.573  12.969  0.4246  0.4713  1.1047
 4435TIP3    H234721   0.792   4.715  12.925 -0.3962  0.2911  1.0655
 4436TIP3   OH234722   6.348   3.884   5.867  0.1572 -0.6214 -0.4310
 4436TIP3    H134723   6.262   3.924   5.852  0.1745 -0.5097 -0.2375
 4436TIP3    H234724   6.359   3.823   5.794 -1.5539 -3.1634  1.2502
 4437TIP3   OH234725   5.738   0.415   2.228  0.2517  0.2561 -0.5814
 4437TIP3    H134726   5.778   0.443   2.145  0.3082  1.7171 -0.0944
 4437TIP3    H234727   5.812   0.392   2.284  0.2213 -0.5737 -0.8762
 4438TIP3   OH234728   5.700   6.629   2.301 -0.2992  0.4537 -0.1007
 4438TIP3    H134729   5.683   6.593   2.214  0.6834 -0.1176 -0.0713
 4438TIP3    H234730   5.635   6.587   2.358 -0.1028 -0.1718 -0.3303
 4439TIP3   OH234731   3.215   0.576  17.000  0.1937 -0.4918 -0.5699
 4439TIP3    H134732   3.262   0.530  16.931  2.1427  0.3478  0.1506
 4439TIP3    H234733   3.124   0.580  16.968  1.1996  0.7915 -3.5908
 4440TIP3   OH234734   1.414   6.030  15.521  0.3218 -0.0857  0.6452
 4440TIP3    H134735   1.386   5.974  15.594  0.9833 -0.9077  0.2839
 4440TIP3    H234736   1.503   6.057  15.545  1.4444 -2.1578 -0.8136
 4441TIP3   OH234737   6.292   1.723   1.612 -0.8212  0.2588 -0.7318
 4441TIP3    H134738   6.322   1.744   1.523  0.2070  1.7579 -0.0875
 4441TIP3    H234739   6.319   1.799   1.664  0.5445 -1.4908  1.2731
 4442TIP3   OH234740   4.028   2.941   0.521  0.0955 -0.3804 -0.4096
 4442TIP3    H134741   3.989   3.029   0.512 -0.5089 -0.7315 -1.3344
 4442TIP3    H234742   3.962   2.882   0.484  1.5726 -0.9831 -2.2216
 4443TIP3   OH234743   3.101   4.617  16.316  0.6217 -0.4931  0.1656
 4443TIP3    H134744   3.024   4.569  16.347  0.6983 -0.2814  0.6845
 4443TIP3    H234745   3.143   4.649  16.395  1.8448 -1.5011 -0.0309
 4444TIP3   OH234746   0.195   3.226  11.769  0.2338  0.0622 -0.2048
 4444TIP3    H134747   0.247   3.238  11.690 -0.1936 -1.2329 -0.7040
 4444TIP3    H234748   0.189   3.131  11.780 -1.6221  0.1733  0.0997
 4445TIP3   OH234749   1.657   3.494   6.575 -0.4342  0.0464 -0.6767
 4445TIP3    H134750   1.695   3.514   6.489  0.8548 -0.5656 -0.2809
 4445TIP3    H234751   1.712   3.423   6.609 -0.2472  0.9745  1.0992
 4446TIP3   OH234752   3.747   0.879  17.103 -0.2952 -0.9414  0.8346
 4446TIP3    H134753   3.780   0.948  17.161  0.6563 -1.1119  0.5204
 4446TIP3    H234754   3.660   0.857  17.138 -0.6171  0.4136  0.9322
 4447TIP3   OH234755   1.201   0.571   0.219  0.2784 -0.0626  0.1636
 4447TIP3    H134756   1.118   0.610   0.191 -1.4398 -2.0905  2.1265
 4447TIP3    H234757   1.193   0.478   0.196  1.9862 -0.3188  0.4688
 4448TIP3   OH234758   0.448   4.291   1.217 -0.2703 -0.0123  0.1740
 4448TIP3    H134759   0.393   4.216   1.194  0.4442  0.2054 -2.5915
 4448TIP3    H234760   0.405   4.366   1.175  0.3127  0.7519  0.9042
 4449TIP3   OH234761   1.266   2.020   1.413 -0.8102 -0.5601 -0.5001
 4449TIP3    H134762   1.340   2.002   1.471 -0.5708 -0.6656 -0.8376
 4449TIP3    H234763   1.190   2.021   1.471 -0.4159  0.6696  0.0340
 4450TIP3   OH234764   2.792   5.777   3.069  0.0066  0.6208  0.0175
 4450TIP3    H134765   2.789   5.690   3.108 -2.2436  0.3801 -0.5322
 4450TIP3    H234766   2.760   5.835   3.138  0.3342  0.8400 -0.0138
 4451TIP3   OH234767   6.586   3.836  10.494  0.0591 -0.1492 -0.1552
 4451TIP3    H134768   6.510   3.841  10.436  0.9529 -1.1587 -1.4824
 4451TIP3    H234769   6.623   3.750  10.477  0.8236 -0.1377  1.3441
 4452TIP3   OH234770   4.229   1.095   5.343  0.3888 -0.6543  0.2743
 4452TIP3    H134771   4.298   1.035   5.314  0.4323 -0.4914  0.0399
 4452TIP3    H234772   4.276   1.164   5.390  0.3001 -1.0287  0.9258
 4453TIP3   OH234773   3.698   5.426   6.004 -0.7726 -0.1280 -0.0839
 4453TIP3    H134774   3.663   5.340   5.980  0.5518 -1.1216  1.3195
 4453TIP3    H234775   3.628   5.467   6.055 -0.7030 -1.2171  0.9180
 4454TIP3   OH234776   0.841   3.874  14.152  1.3247  0.6454  0.0197
 4454TIP3    H134777   0.803   3.958  14.127  0.2632  0.0901 -0.3100
 4454TIP3    H234778   0.783   3.841  14.221  1.0067 -0.3528 -0.6929
 4455TIP3   OH234779   1.553   3.872  14.876  0.1931  0.3569  0.0987
 4455TIP3    H134780   1.585   3.956  14.845 -0.9683  1.1110  0.8887
 4455TIP3    H234781   1.633   3.824  14.901  0.9363  0.8060 -1.2971
 4456TIP3   OH234782   1.298   3.844  15.019  0.1123  0.1458  1.2381
 4456TIP3    H134783   1.242   3.913  14.984  1.3385  0.7390  0.3989
 4456TIP3    H234784   1.378   3.849  14.968  1.6092  0.3779  3.4621
 4457TIP3   OH234785   5.347   0.239  15.188 -0.0719  0.4731  0.4270
 4457TIP3    H134786   5.402   0.199  15.121  1.7752 -1.6667  2.9538
 4457TIP3    H234787   5.275   0.177  15.200  1.0552 -0.6301  2.1139
 4458TIP3   OH234788   1.734   5.107  10.893 -0.0103 -0.3311  0.0549
 4458TIP3    H134789   1.747   5.074  10.804 -0.4647  0.1517 -0.2005
 4458TIP3    H234790   1.639   5.116  10.901  0.0799  0.7037  0.1823
 4459TIP3   OH234791   3.127   0.971  10.964 -0.0786  0.7019  0.1036
 4459TIP3    H134792   3.209   0.946  10.921 -1.3342 -1.3562 -1.2251
 4459TIP3    H234793   3.058   0.938  10.907 -1.8534  0.3367  2.3096
 4460TIP3   OH234794   1.455   1.378  14.687  0.4370  0.5765  0.0585
 4460TIP3    H134795   1.439   1.362  14.780  1.1596 -1.8117 -0.1646
 4460TIP3    H234796   1.446   1.292  14.646  1.5419  1.3199 -1.8664
 4461TIP3   OH234797   2.693   1.027  11.512 -0.4776 -0.1172  0.1337
 4461TIP3    H134798   2.701   0.941  11.553 -0.5384  0.5934  1.7111
 4461TIP3    H234799   2.756   1.025  11.440 -1.3905 -1.9162 -0.6991
 4462TIP3   OH234800   2.953   2.002  16.445 -0.2830 -0.2951 -0.5498
 4462TIP3    H134801   2.927   2.066  16.379 -0.9844 -0.2729 -0.2606
 4462TIP3    H234802   2.890   1.931  16.437 -2.1790  0.9481  1.9229
 4463TIP3   OH234803   1.622   4.317  12.576 -0.3196  0.0797 -0.1765
 4463TIP3    H134804   1.532   4.350  12.570 -0.5441  0.0365  2.1885
 4463TIP3    H234805   1.677   4.395  12.573 -0.5159  0.2200 -0.1659
 4464TIP3   OH234806   0.267   1.286   4.691 -0.2550 -0.1821 -0.0748
 4464TIP3    H134807   0.256   1.227   4.617 -0.2565 -0.1541 -0.0969
 4464TIP3    H234808   0.359   1.278   4.716 -0.3949 -0.6545  0.3102
 4465TIP3   OH234809   3.028   3.400  15.821  0.3877 -0.3295  0.0959
 4465TIP3    H134810   3.020   3.352  15.904 -1.3576  0.2093  0.2772
 4465TIP3    H234811   3.113   3.444  15.828 -0.0933  0.4337  2.0214
 4466TIP3   OH234812   5.037   5.306   2.666 -0.2027 -0.1429 -0.5052
 4466TIP3    H134813   5.021   5.213   2.682 -0.1849  0.1777  1.6925
 4466TIP3    H234814   4.953   5.340   2.636 -0.3178 -0.7790 -0.9305
 4467TIP3   OH234815   2.507   1.068   2.417  0.3019 -0.3329  0.0328
 4467TIP3    H134816   2.599   1.044   2.427  0.1585 -0.9214 -0.0231
 4467TIP3    H234817   2.474   1.010   2.348  0.2061  0.7456 -0.8470
 4468TIP3   OH234818   3.450   0.500   3.586  0.4180 -0.3100 -0.0705
 4468TIP3    H134819   3.502   0.543   3.518 -0.0369  0.3135 -0.0367
 4468TIP3    H234820   3.415   0.573   3.638 -0.2268 -0.7321  0.0887
 4469TIP3   OH234821   6.471   1.423  16.922  0.2053  0.3737 -1.1057
 4469TIP3    H134822   6.443   1.391  17.007 -0.1593  0.0442 -1.3495
 4469TIP3    H234823   6.476   1.345  16.867  1.0627  0.4971 -1.2183
 4470TIP3   OH234824   2.063   2.479   5.604  0.4495  0.4820 -0.3349
 4470TIP3    H134825   2.034   2.511   5.519  2.0481 -0.0777 -1.1453
 4470TIP3    H234826   2.067   2.557   5.659 -2.2520  0.6249 -0.2024
 4471TIP3   OH234827   5.260   4.477  14.072  0.2395 -0.3111 -0.0377
 4471TIP3    H134828   5.325   4.506  14.136 -1.4223  1.8936  0.8039
 4471TIP3    H234829   5.176   4.490  14.116 -0.8818 -0.9354 -1.8666
 4472TIP3   OH234830   2.227   6.064   6.168 -0.2617  0.5845  0.3941
 4472TIP3    H134831   2.259   6.124   6.101  3.0574 -0.8253  0.5230
 4472TIP3    H234832   2.213   5.981   6.122 -0.5558  0.2941  0.9911
 4473TIP3   OH234833   4.316   2.406  16.259  0.5367  0.0178 -0.1871
 4473TIP3    H134834   4.229   2.375  16.283  1.3451 -1.1382  1.4294
 4473TIP3    H234835   4.336   2.474  16.324  2.2034 -2.2021  1.8218
 4474TIP3   OH234836   0.379   0.584  13.963 -0.0749 -0.4797  0.8536
 4474TIP3    H134837   0.299   0.635  13.978 -0.4739 -0.3067 -1.5306
 4474TIP3    H234838   0.438   0.611  14.033 -1.3106  1.0758  1.3501
 4475TIP3   OH234839   0.201   0.879  16.964 -0.3613  1.0796  0.1796
 4475TIP3    H134840   0.268   0.885  16.895 -1.1643 -0.4658 -0.7958
 4475TIP3    H234841   0.240   0.921  17.040  1.2739  1.2052 -0.6968
 4476TIP3   OH234842   3.220   1.533   3.520  0.2752  0.0685 -0.5392
 4476TIP3    H134843   3.146   1.560   3.465  0.2928  1.5602  0.1270
 4476TIP3    H234844   3.184   1.528   3.609  0.4571 -1.4604 -0.5127
 4477TIP3   OH234845   2.708   3.221   0.528  0.0036  0.1590  0.4414
 4477TIP3    H134846   2.743   3.290   0.585  1.0638  0.1018 -0.1190
 4477TIP3    H234847   2.667   3.268   0.456 -0.7779  0.2186  0.9088
 4478TIP3   OH234848   0.990   0.629  16.844  0.0572  0.2295 -0.5413
 4478TIP3    H134849   1.058   0.695  16.860  0.3289  0.2560 -1.7012
 4478TIP3    H234850   1.024   0.549  16.884  0.0058  0.6348  0.3384
 4479TIP3   OH234851   4.258   0.000   3.705 -0.3418 -0.0782 -0.2311
 4479TIP3    H134852   4.346  -0.023   3.675  0.0614  0.2425  0.6635
 4479TIP3    H234853   4.271   0.080   3.756 -1.3237  0.6366 -1.0622
 4480TIP3   OH234854   1.971   3.230  13.560  0.0270  0.3799  0.2241
 4480TIP3    H134855   1.890   3.228  13.509  1.3478 -0.0278 -1.9591
 4480TIP3    H234856   1.980   3.321  13.587 -1.1399  0.4264  0.5352
 4481TIP3   OH234857   5.704   6.638  17.206 -0.3099 -0.2974  0.2652
 4481TIP3    H134858   5.646   6.611  17.277 -0.6448 -1.1360 -0.3159
 4481TIP3    H234859   5.649   6.634  17.127  0.6266 -1.5612 -0.3667
 4482TIP3   OH234860   5.963   3.372   5.578 -0.3412  0.8029  0.1841
 4482TIP3    H134861   5.919   3.362   5.663 -0.4015  1.2523  0.2106
 4482TIP3    H234862   6.039   3.426   5.598  0.8632 -0.8886  0.3478
 4483TIP3   OH234863   4.621   2.789   3.044 -0.2309 -0.0402 -0.3372
 4483TIP3    H134864   4.675   2.867   3.035 -1.1336  0.6172 -0.1991
 4483TIP3    H234865   4.648   2.751   3.128 -0.8815  1.0230  0.3893
 4484TIP3   OH234866   2.879   0.381   4.379 -0.0939  0.3768  0.6174
 4484TIP3    H134867   2.910   0.470   4.363 -1.9066  0.9231 -0.0835
 4484TIP3    H234868   2.958   0.328   4.379  0.9326  1.8468  0.0025
 4485TIP3   OH234869   2.114   6.182  15.659 -0.3587 -0.0600  0.1917
 4485TIP3    H134870   2.146   6.234  15.733  1.6179 -0.6336 -0.2099
 4485TIP3    H234871   2.056   6.242  15.611  1.5845  1.7244 -0.0829
 4486TIP3   OH234872   5.194   3.415  16.854  0.0066 -0.4283  0.1369
 4486TIP3    H134873   5.156   3.337  16.813  0.2378 -0.1267 -0.6695
 4486TIP3    H234874   5.274   3.384  16.896  0.9063 -0.3823 -1.4588
 4487TIP3   OH234875   4.006   0.100  13.570  0.4506 -0.7286 -0.4078
 4487TIP3    H134876   3.938   0.040  13.542 -2.3042  0.2294  3.4513
 4487TIP3    H234877   3.962   0.184  13.580  2.2694  0.0875  1.7388
 4488TIP3   OH234878   3.199   1.435   4.371  0.7576 -0.2801  0.3058
 4488TIP3    H134879   3.104   1.422   4.373  0.1933  2.9081 -0.4119
 4488TIP3    H234880   3.221   1.468   4.458  0.7334  1.3269 -0.2655
 4489TIP3   OH234881   4.261   6.682   5.725  0.2138  0.5619 -0.6768
 4489TIP3    H134882   4.351   6.698   5.752  1.0638  0.7871 -3.3183
 4489TIP3    H234883   4.229   6.767   5.695 -0.8713  0.4565  0.1146
 4490TIP3   OH234884   1.930   4.873   1.032 -0.0547 -0.2153  0.2784
 4490TIP3    H134885   1.935   4.792   1.081 -0.9929 -0.2252  0.3696
 4490TIP3    H234886   1.883   4.934   1.089 -1.2675 -0.2618 -0.6283
 4491TIP3   OH234887   4.475   3.890   4.458  0.1518  0.3792  0.1260
 4491TIP3    H134888   4.406   3.855   4.514 -1.4288  2.1122 -0.6284
 4491TIP3    H234889   4.557   3.860   4.499 -0.9925 -0.5976  1.8213
 4492TIP3   OH234890   0.612   0.699   0.424 -0.0926  0.2062  0.2107
 4492TIP3    H134891   0.599   0.791   0.403  1.1104  0.0169 -1.6538
 4492TIP3    H234892   0.598   0.693   0.518 -0.1270  2.3088  0.3767
 4493TIP3   OH234893   3.301   4.303  11.138  0.3192 -0.5381  0.2248
 4493TIP3    H134894   3.230   4.301  11.201 -0.6443 -1.1640 -0.8306
 4493TIP3    H234895   3.267   4.256  11.062  1.8274 -0.7646 -0.3575
 4494TIP3   OH234896   3.048   0.047   3.436 -0.3227  0.1253  0.2724
 4494TIP3    H134897   2.977   0.073   3.495  0.4136 -1.0086  1.7334
 4494TIP3    H234898   3.106  -0.006   3.491  1.5118  0.7759 -0.9456
 4495TIP3   OH234899   3.514   4.401  14.088  0.6359  0.2127  0.1671
 4495TIP3    H134900   3.549   4.444  14.010 -2.4363 -1.0694 -2.1440
 4495TIP3    H234901   3.534   4.309  14.076  3.2758  0.2925  2.8545
 4496TIP3   OH234902   1.028   5.111  14.808  0.1677  0.0593 -0.3863
 4496TIP3    H134903   1.121   5.096  14.827  0.0324 -0.9331 -0.4300
 4496TIP3    H234904   0.982   5.081  14.886 -0.0298  2.4056  0.4481
 4497TIP3   OH234905   5.465   3.917  11.639 -0.0622  0.2050  0.0348
 4497TIP3    H134906   5.422   3.910  11.554  0.6598  0.1756 -0.3408
 4497TIP3    H234907   5.543   3.862  11.631  0.4438  0.8449  0.4293
 4498TIP3   OH234908   4.319   2.199   5.546  0.0678 -0.1974  0.3272
 4498TIP3    H134909   4.298   2.124   5.490  1.5796  1.2651 -2.3870
 4498TIP3    H234910   4.308   2.275   5.490  1.6309  1.4001  2.0429
 4499TIP3   OH234911   3.943   4.758  15.125  0.6843 -0.4373  0.3408
 4499TIP3    H134912   3.938   4.790  15.035 -0.4126  0.2726  0.6297
 4499TIP3    H234913   3.937   4.837  15.179 -0.8429 -1.0069  1.0570
 4500TIP3   OH234914   4.794   5.854   0.025  0.0232 -0.9902 -0.1066
 4500TIP3    H134915   4.882   5.868  -0.009 -0.1954  2.3770  0.3369
 4500TIP3    H234916   4.776   5.762   0.008  2.1332 -0.9267 -3.6978
 4501TIP3   OH234917   1.654   5.477   1.916  0.5249  0.2523 -0.5124
 4501TIP3    H134918   1.598   5.546   1.951 -1.1215  0.1845 -2.8313
 4501TIP3    H234919   1.617   5.396   1.950  1.6631  0.3617  1.1274
 4502TIP3   OH234920   3.255   4.953  13.627  0.0294  0.5724 -0.1961
 4502TIP3    H134921   3.170   4.945  13.583  0.8403 -1.7845 -1.5351
 4502TIP3    H234922   3.315   4.982  13.559  0.5760  0.7427  0.3528
 4503TIP3   OH234923   2.337   0.314  11.813  0.0668 -0.5282 -0.1347
 4503TIP3    H134924   2.396   0.287  11.743 -0.5553  0.4716 -1.0701
 4503TIP3    H234925   2.250   0.313  11.774 -0.7077 -2.8018  1.4550
 4504TIP3   OH234926   4.516   2.642  16.797 -0.4127 -0.3427 -0.2659
 4504TIP3    H134927   4.490   2.732  16.812 -2.5288 -0.6850 -1.4984
 4504TIP3    H234928   4.587   2.648  16.733  1.7845  0.5395  2.0801
 4505TIP3   OH234929   5.447   2.277  10.580 -0.0144  0.2069 -0.5009
 4505TIP3    H134930   5.494   2.360  10.581 -1.4120  1.0152 -0.1897
 4505TIP3    H234931   5.355   2.301  10.584 -0.4030 -1.4103  1.8122
 4506TIP3   OH234932   4.478   2.472  12.306  0.8704  1.1758  0.3317
 4506TIP3    H134933   4.524   2.431  12.233  0.4821  2.1340 -0.4609
 4506TIP3    H234934   4.388   2.440  12.300  1.1615  0.0642  1.3152
 4507TIP3   OH234935   4.921   3.306  14.419  0.1753 -0.5843  0.4179
 4507TIP3    H134936   4.932   3.294  14.324 -0.9426 -0.4106  0.2540
 4507TIP3    H234937   4.881   3.224  14.448 -1.3972  0.1281  0.3785
 4508TIP3   OH234938   5.706   4.788   6.349  0.7880  0.0336 -0.7509
 4508TIP3    H134939   5.761   4.710   6.357  1.0888  0.1582 -1.4970
 4508TIP3    H234940   5.755   4.857   6.394  0.5506 -0.1877 -0.1443
 4509TIP3   OH234941   3.368   1.909   5.584  0.4368 -0.3684  0.0495
 4509TIP3    H134942   3.308   1.838   5.609  0.5218 -0.9638 -1.3372
 4509TIP3    H234943   3.374   1.901   5.488 -0.4338  2.1989 -0.2820
 4510TIP3   OH234944   5.177   6.194   0.945  0.4665 -0.2498 -0.1173
 4510TIP3    H134945   5.159   6.283   0.915 -0.2856 -0.5328 -0.5282
 4510TIP3    H234946   5.273   6.189   0.950  0.5228  0.4941 -0.3477
 4511TIP3   OH234947   0.617   6.556  13.826  0.0574  0.0602  0.0863
 4511TIP3    H134948   0.679   6.592  13.762 -0.8392  0.3795 -0.6255
 4511TIP3    H234949   0.672   6.507  13.888  1.0618  0.7162 -0.2618
 4512TIP3   OH234950   2.699   5.263   0.659  0.5768 -0.3411  0.4263
 4512TIP3    H134951   2.678   5.336   0.600 -0.2611 -2.3759 -1.9764
 4512TIP3    H234952   2.659   5.287   0.742 -0.1275  1.6794 -0.4212
 4513TIP3   OH234953   2.423   5.119   1.201 -0.1448  0.4476  0.0936
 4513TIP3    H134954   2.388   5.120   1.112 -0.5300 -0.8936  0.2171
 4513TIP3    H234955   2.512   5.153   1.192  1.3838 -3.4542 -1.5285
 4514TIP3   OH234956   1.941   1.437  12.290  0.1669 -0.1699 -0.3184
 4514TIP3    H134957   1.957   1.346  12.268  1.9085 -0.2863  1.1929
 4514TIP3    H234958   1.876   1.435  12.360 -0.1613 -0.2129 -0.6225
 4515TIP3   OH234959   5.519   4.501  16.449  0.4070 -0.0363  0.5389
 4515TIP3    H134960   5.508   4.575  16.389  2.3530  1.2161  1.6154
 4515TIP3    H234961   5.478   4.428  16.403  0.9390  1.0620 -1.8927
 4516TIP3   OH234962   2.488   6.413   6.007 -0.4930 -0.1639 -0.4326
 4516TIP3    H134963   2.427   6.445   6.073  0.5432 -0.0886  0.5163
 4516TIP3    H234964   2.524   6.492   5.967 -0.6845 -0.1988 -0.6712
 4517TIP3   OH234965   1.409   0.125  16.639  0.2173  0.0485  0.0681
 4517TIP3    H134966   1.388   0.032  16.636 -0.5213  0.1297  1.8450
 4517TIP3    H234967   1.489   0.130  16.691  1.2653  0.2985 -1.4816
 4518TIP3   OH234968   4.867   0.679  12.523 -0.9214  0.0486  0.0100
 4518TIP3    H134969   4.910   0.763  12.538 -1.4854  0.2842  0.3290
 4518TIP3    H234970   4.935   0.614  12.537 -0.7163  0.4066  0.7123
 4519TIP3   OH234971   2.942   4.843   3.165  0.5856 -0.9186  0.1749
 4519TIP3    H134972   3.014   4.840   3.227  1.0838 -1.7537 -0.4294
 4519TIP3    H234973   2.880   4.777   3.197 -0.0773 -0.0083  0.8555
 4520TIP3   OH234974   2.613   2.795  17.141 -0.2567  1.2961 -0.3874
 4520TIP3    H134975   2.540   2.814  17.200 -0.9504  0.6081 -0.9991
 4520TIP3    H234976   2.683   2.766  17.199 -0.9136  0.6867  0.1291
 4521TIP3   OH234977   0.511   0.610  14.239  0.1048 -0.3594  0.1994
 4521TIP3    H134978   0.581   0.640  14.297 -0.1470 -1.2788  1.0100
 4521TIP3    H234979   0.542   0.526  14.205  0.2112  0.1295 -0.9589
 4522TIP3   OH234980   0.626   4.136  15.337  0.4489 -0.0564  0.3201
 4522TIP3    H134981   0.692   4.176  15.279  0.3667  0.5934  0.6637
 4522TIP3    H234982   0.627   4.191  15.415 -0.8677  0.2704  0.1246
 4523TIP3   OH234983   5.790   1.886  11.486  0.0873 -0.1962 -0.0704
 4523TIP3    H134984   5.885   1.881  11.472  0.0313  0.0924 -0.6097
 4523TIP3    H234985   5.770   1.810  11.540  0.3149 -1.5447 -1.7796
 4524TIP3   OH234986   2.991   5.122   6.256 -0.7834  0.0834 -0.6187
 4524TIP3    H134987   3.025   5.193   6.311  0.5851  0.6734 -2.1469
 4524TIP3    H234988   2.921   5.163   6.205 -0.3376  0.2316 -1.1280
 4525TIP3   OH234989   5.643   0.444  14.136 -0.1864  0.4639 -0.3240
 4525TIP3    H134990   5.636   0.363  14.085  1.1687 -0.0031  0.1778
 4525TIP3    H234991   5.633   0.416  14.227 -0.3391  0.9650 -0.1836
 4526TIP3   OH234992   5.753   0.708   1.911 -0.6255  0.1072  0.3110
 4526TIP3    H134993   5.787   0.630   1.955  0.5854  1.5835  2.1431
 4526TIP3    H234994   5.829   0.763   1.897 -1.1819  0.2593 -2.6198
 4527TIP3   OH234995   0.328   1.260   1.012  0.5693 -0.2874  0.6521
 4527TIP3    H134996   0.418   1.239   1.037  0.5236  1.1060  2.1607
 4527TIP3    H234997   0.312   1.347   1.049 -0.5191  0.7059 -1.8802
 4528TIP3   OH234998   0.993   5.393   3.764  0.4035  0.0934  0.0907
 4528TIP3    H134999   0.972   5.326   3.699  0.6683  0.9308 -0.8942
 4528TIP3    H235000   1.055   5.350   3.823 -0.0937 -0.7887 -0.0096
 4529TIP3   OH235001   1.629   5.621   6.806 -0.2053 -0.3323 -0.1298
 4529TIP3    H135002   1.721   5.646   6.818 -0.6316  1.9697 -1.0191
 4529TIP3    H235003   1.622   5.603   6.712 -0.4558 -1.5255  0.1097
 4530TIP3   OH235004   6.268   4.381  14.370  0.3274  0.4934  0.4398
 4530TIP3    H135005   6.318   4.391  14.289  1.5117 -0.6670  0.9908
 4530TIP3    H235006   6.274   4.467  14.413 -1.1715  1.4386 -1.1276
 4531TIP3   OH235007   1.207   5.995   2.123  0.3859  0.9135  0.5702
 4531TIP3    H135008   1.240   6.067   2.069  0.0055  0.6722  0.0041
 4531TIP3    H235009   1.275   5.928   2.118  0.0039  0.5605 -0.3053
 4532TIP3   OH235010   3.421   2.339  10.525 -0.8296  0.3582  0.0344
 4532TIP3    H135011   3.469   2.260  10.549 -1.4827  0.0385  0.3296
 4532TIP3    H235012   3.483   2.390  10.473  0.5530  0.9440  2.1148
 4533TIP3   OH235013   1.426   6.391  12.042  0.0820 -0.0020 -0.1254
 4533TIP3    H135014   1.414   6.300  12.017  0.8345 -0.4059  0.9061
 4533TIP3    H235015   1.341   6.432  12.029 -0.5734 -1.1322  0.4962
 4534TIP3   OH235016   4.768   1.280  15.872  0.4498 -0.1250 -0.3667
 4534TIP3    H135017   4.763   1.245  15.961 -1.4644  2.2305  0.5888
 4534TIP3    H235018   4.697   1.237  15.825  0.4592 -0.2291 -0.2857
 4535TIP3   OH235019   0.846   6.215   2.486 -0.0810 -0.3281  0.4386
 4535TIP3    H135020   0.814   6.290   2.435  1.7758 -0.2143 -0.6837
 4535TIP3    H235021   0.904   6.254   2.551  1.1987 -0.7702 -0.3963
 4536TIP3   OH235022   5.193   3.846  17.157  0.2985 -0.2996 -0.1202
 4536TIP3    H135023   5.159   3.929  17.188  1.9665  0.7299 -0.8974
 4536TIP3    H235024   5.131   3.781  17.189 -0.4638  1.1237  1.4416
 4537TIP3   OH235025   5.038   4.981   0.022  0.5444  0.4014 -0.3979
 4537TIP3    H135026   4.965   4.971   0.083  0.6246  0.4532 -0.2911
 4537TIP3    H235027   5.031   5.072  -0.009  0.0099  0.1260 -1.1119
 4538TIP3   OH235028   3.873   4.834  12.562  0.3425 -0.1877 -0.3383
 4538TIP3    H135029   3.811   4.830  12.635 -1.6328 -0.0675 -1.9072
 4538TIP3    H235030   3.959   4.824  12.602 -0.7282 -1.0515  1.8861
 4539TIP3   OH235031   4.069   6.700   4.674  0.3075 -0.3449  0.3037
 4539TIP3    H135032   4.102   6.632   4.732  3.0387 -0.7683 -1.5438
 4539TIP3    H235033   3.996   6.659   4.628  0.0135 -0.9812  1.3125
 4540TIP3   OH235034   6.411   4.215  11.596 -0.5372 -0.2421  0.1126
 4540TIP3    H135035   6.326   4.175  11.612 -0.0077 -0.8320  1.5990
 4540TIP3    H235036   6.437   4.182  11.510 -2.5619  1.3552 -1.1950
 4541TIP3   OH235037   1.269   6.258   1.667  0.3164 -0.1927  0.1389
 4541TIP3    H135038   1.276   6.353   1.678  1.4268 -0.4002  1.4213
 4541TIP3    H235039   1.355   6.231   1.636  0.1001 -0.8141  0.0675
 4542TIP3   OH235040   1.180   2.248   1.282  0.1507 -0.6790 -0.0992
 4542TIP3    H135041   1.175   2.233   1.376  0.1553  1.5499  0.3119
 4542TIP3    H235042   1.200   2.162   1.245  2.6861 -1.2049  2.1433
 4543TIP3   OH235043   6.324   4.719   0.386 -0.0820  0.1283  0.0111
 4543TIP3    H135044   6.312   4.715   0.481 -0.6149  0.0968 -0.0560
 4543TIP3    H235045   6.417   4.696   0.373 -0.2363 -0.8102  0.4592
 4544TIP3   OH235046   0.311   5.244   1.042 -0.6256 -0.2810  0.1146
 4544TIP3    H135047   0.218   5.247   1.021 -1.1512 -0.5332  2.1843
 4544TIP3    H235048   0.314   5.220   1.135  1.4777  0.6949  0.3636
 4545TIP3   OH235049   0.934   2.991   1.597 -0.3915 -0.4915 -0.0308
 4545TIP3    H135050   0.860   2.989   1.536  0.3476 -0.3388 -0.9501
 4545TIP3    H235051   1.006   3.030   1.547  0.3485 -0.7343  0.8119
 4546TIP3   OH235052   1.330   5.053  15.207 -0.3238  0.1799  0.2019
 4546TIP3    H135053   1.299   5.143  15.198  0.9649  0.6589  0.3276
 4546TIP3    H235054   1.320   5.034  15.300 -2.1755 -0.4320 -0.0858
 4547TIP3   OH235055   5.748   0.835  14.271 -0.1776  0.1551  0.4353
 4547TIP3    H135056   5.781   0.915  14.231 -1.5182  0.3381 -0.3881
 4547TIP3    H235057   5.809   0.767  14.243 -0.3820  0.4928 -0.9482
 4548TIP3   OH235058   3.715   3.927  13.862  0.2778  0.4731 -0.3556
 4548TIP3    H135059   3.714   3.853  13.923  1.6792  1.2562  0.6626
 4548TIP3    H235060   3.651   3.903  13.795 -1.1476 -0.5367  1.2672
 4549TIP3   OH235061   2.160   4.439   4.134  0.0726 -0.3396 -0.0615
 4549TIP3    H135062   2.255   4.432   4.146  0.2763  0.1543 -1.2788
 4549TIP3    H235063   2.147   4.429   4.040 -1.0252  0.3361  0.0081
 4550TIP3   OH235064   5.126   5.220  15.730  0.1538  0.4994 -0.0947
 4550TIP3    H135065   5.066   5.189  15.798 -0.6014  1.0092 -0.5242
 4550TIP3    H235066   5.091   5.185  15.648  0.8014  0.2708 -0.2829
 4551TIP3   OH235067   4.402   2.520   0.104  0.0781 -0.7820 -0.0469
 4551TIP3    H135068   4.360   2.500   0.020  1.2498 -3.3020 -0.1065
 4551TIP3    H235069   4.364   2.459   0.166  2.7787 -2.4662  0.1110
 4552TIP3   OH235070   1.744   4.699   5.947  0.8449  0.1210 -0.2753
 4552TIP3    H135071   1.767   4.704   6.040 -0.7766  0.7615  0.1314
 4552TIP3    H235072   1.769   4.611   5.920  0.0122 -0.5815  1.1579
 4553TIP3   OH235073   5.529   3.713  15.488  0.1640 -0.5286 -0.5322
 4553TIP3    H135074   5.599   3.778  15.482  0.5529 -0.9844 -0.9930
 4553TIP3    H235075   5.459   3.758  15.536  1.9971 -1.1257  3.0173
 4554TIP3   OH235076   0.464   5.783  13.197  0.5788 -0.2155  0.1752
 4554TIP3    H135077   0.508   5.840  13.260 -0.2545  3.6997 -2.4548
 4554TIP3    H235078   0.372   5.807  13.202  0.6006  1.1111 -3.0884
 4555TIP3   OH235079   1.896   6.326  15.599  0.1527  0.0889 -0.2526
 4555TIP3    H135080   1.836   6.264  15.558 -0.3209  1.4855 -1.8205
 4555TIP3    H235081   1.842   6.372  15.664 -0.1260  0.3843 -0.6831
 4556TIP3   OH235082   5.818   2.518  12.333  0.2794 -0.7975  0.2231
 4556TIP3    H135083   5.851   2.478  12.252  0.5800 -0.1864  0.0338
 4556TIP3    H235084   5.725   2.497  12.334 -0.4514  1.7649 -1.9034
 4557TIP3   OH235085   2.895   3.360  13.259  0.0034 -0.0557  0.2663
 4557TIP3    H135086   2.935   3.369  13.346 -0.8016 -0.2558  0.6669
 4557TIP3    H235087   2.874   3.449  13.232 -2.3650 -0.1373  1.5577
 4558TIP3   OH235088   2.917   1.761  15.128  0.4675 -0.3227 -0.0933
 4558TIP3    H135089   2.845   1.719  15.174  1.2288 -1.8528 -0.2281
 4558TIP3    H235090   2.954   1.822  15.192  0.1729 -0.8554  0.5985
 4559TIP3   OH235091   1.217   3.567   3.743 -0.1741 -0.2773  0.1677
 4559TIP3    H135092   1.253   3.614   3.818 -0.5112 -0.2910  0.3439
 4559TIP3    H235093   1.129   3.603   3.732  0.1200  0.2279 -0.6726
 4560TIP3   OH235094   3.059   3.138   4.647 -0.0899 -0.4582  0.3744
 4560TIP3    H135095   3.140   3.142   4.697 -0.6493 -1.2152  1.3672
 4560TIP3    H235096   3.051   3.225   4.608  0.4190  0.1138  1.5036
 4561TIP3   OH235097   4.259   5.837  11.482 -0.0842  0.0816 -0.5187
 4561TIP3    H135098   4.335   5.882  11.520 -0.4348 -0.9291  1.5419
 4561TIP3    H235099   4.289   5.746  11.470 -0.7066 -0.1320 -0.4784
 4562TIP3   OH235100   4.455   1.908  16.351 -0.4546 -0.1373  0.2766
 4562TIP3    H135101   4.529   1.908  16.412 -1.5844 -1.7292  1.7673
 4562TIP3    H235102   4.459   1.993  16.308  1.2987  0.4442  1.4663
 4563TIP3   OH235103   4.165   0.853  12.951 -0.0039 -0.2261  0.2963
 4563TIP3    H135104   4.183   0.761  12.973  0.4993 -1.0778 -3.0084
 4563TIP3    H235105   4.243   0.900  12.980  0.7830 -1.2818 -0.0069
 4564TIP3   OH235106   0.323   6.597  16.238  0.0023 -0.0573 -0.1640
 4564TIP3    H135107   0.277   6.595  16.154  1.2041 -0.0905 -0.8548
 4564TIP3    H235108   0.260   6.631  16.300 -1.2522 -0.9972 -0.8729
 4565TIP3   OH235109   2.225   2.877  14.798 -0.2764 -0.3569  0.1428
 4565TIP3    H135110   2.179   2.959  14.780  0.3951  0.0170  0.1167
 4565TIP3    H235111   2.166   2.830  14.858 -2.1211 -1.2419 -2.2188
 4566TIP3   OH235112   0.561   2.252  14.063 -0.2586 -0.0265  0.0869
 4566TIP3    H135113   0.622   2.210  14.123  0.3190 -0.3598 -0.7127
 4566TIP3    H235114   0.610   2.326  14.027  0.4083 -1.3828 -1.9889
 4567TIP3   OH235115   3.723   2.814   2.458  0.2030 -0.0049  0.0162
 4567TIP3    H135116   3.659   2.835   2.390 -0.1822 -0.4721  0.2266
 4567TIP3    H235117   3.741   2.721   2.445 -0.5955 -0.3432  1.1424
 4568TIP3   OH235118   4.128   2.254   3.779  0.5179  0.1841  0.2420
 4568TIP3    H135119   4.150   2.310   3.704 -0.5855 -0.8866 -0.9351
 4568TIP3    H235120   4.033   2.262   3.788  0.4557 -0.7921  0.6238
 4569TIP3   OH235121   0.298   1.159  14.096 -0.0075 -0.3281 -0.0471
 4569TIP3    H135122   0.236   1.144  14.024 -2.4374 -2.0331  2.2277
 4569TIP3    H235123   0.291   1.253  14.114 -1.2732 -0.3262 -0.4348
 4570TIP3   OH235124   2.480   3.569   2.909 -0.4884  0.4332  0.0502
 4570TIP3    H135125   2.466   3.536   2.820 -1.9109  0.8150  0.0951
 4570TIP3    H235126   2.396   3.554   2.953  0.4088 -0.4372  1.5777
 4571TIP3   OH235127   1.280   1.377  10.940 -0.8040  0.8016  0.3765
 4571TIP3    H135128   1.287   1.363  11.034 -2.6021  0.2245  0.4514
 4571TIP3    H235129   1.285   1.472  10.929 -1.2568  0.9124  1.1162
 4572TIP3   OH235130   5.475   5.135  12.948  0.0879  0.5606 -0.3681
 4572TIP3    H135131   5.410   5.075  12.912 -0.2137  1.5669 -1.5542
 4572TIP3    H235132   5.548   5.078  12.974 -0.8471 -0.4804  0.0748
 4573TIP3   OH235133   1.587   1.960   0.334  0.3344 -0.4369 -0.3739
 4573TIP3    H135134   1.555   1.958   0.425  0.6476 -0.7138 -0.2688
 4573TIP3    H235135   1.632   2.044   0.327  1.5803 -1.0412  0.1682
 4574TIP3   OH235136   5.832   6.263  11.831  0.7414 -0.8444 -0.0777
 4574TIP3    H135137   5.910   6.223  11.793  0.3766 -2.7329  1.0511
 4574TIP3    H235138   5.805   6.203  11.900 -1.5077 -0.0328 -0.1746
 4575TIP3   OH235139   2.153   2.204   0.916  0.0035  0.6793  0.5073
 4575TIP3    H135140   2.178   2.248   0.835  2.2654 -0.0911  0.7314
 4575TIP3    H235141   2.083   2.259   0.952 -0.1637  1.7381 -1.2923
 4576TIP3   OH235142   3.809   4.535   5.772  0.1368  0.2987  0.1616
 4576TIP3    H135143   3.838   4.495   5.690 -3.4613 -0.2954 -1.0121
 4576TIP3    H235144   3.838   4.474   5.840  1.0813 -0.4658 -0.8926
 4577TIP3   OH235145   0.948   5.706   1.702  0.1629 -0.5429 -0.3435
 4577TIP3    H135146   0.939   5.801   1.692  2.4872 -0.2901 -0.4084
 4577TIP3    H235147   0.870   5.680   1.752 -0.4080  1.4076 -0.1347
 4578TIP3   OH235148   3.594   1.708  15.995  0.2207 -0.2052  0.3577
 4578TIP3    H135149   3.507   1.732  15.963 -0.5332 -0.1616  2.3230
 4578TIP3    H235150   3.652   1.721  15.920 -1.3974  0.1533 -0.8744
 4579TIP3   OH235151   3.489   1.877   5.016 -0.0967  0.6782  0.9848
 4579TIP3    H135152   3.511   1.808   5.079 -0.6850 -1.0644 -0.6377
 4579TIP3    H235153   3.563   1.880   4.956  0.1372  1.8171  1.3086
 4580TIP3   OH235154   6.610   2.392  12.495  0.5442  0.1335 -0.1839
 4580TIP3    H135155   6.615   2.469  12.438 -2.1825 -0.2090 -0.9944
 4580TIP3    H235156   6.533   2.344  12.465 -0.6120 -0.4739  3.3127
 4581TIP3   OH235157   2.471   1.443  15.530  0.0360 -0.0542 -0.9379
 4581TIP3    H135158   2.491   1.530  15.564  2.2645  0.3182 -3.0007
 4581TIP3    H235159   2.497   1.383  15.601 -1.8145  0.8767  0.6273
 4582TIP3   OH235160   3.327   2.701  12.156  0.0259 -0.2410  0.0234
 4582TIP3    H135161   3.337   2.654  12.239 -0.3839 -0.0145  0.2058
 4582TIP3    H235162   3.241   2.743  12.162 -0.5856 -1.2544 -1.0304
 4583TIP3   OH235163   4.146   5.008   1.841  0.5001 -0.1111 -0.2330
 4583TIP3    H135164   4.081   5.002   1.911 -0.0746 -1.6135 -0.8535
 4583TIP3    H235165   4.211   4.941   1.862  0.3789 -0.5068 -1.0594
 4584TIP3   OH235166   4.337   3.461  12.252  0.1516  0.3338  0.2055
 4584TIP3    H135167   4.319   3.464  12.158  5.0143 -0.2397 -1.0045
 4584TIP3    H235168   4.369   3.372  12.268  0.5901  0.7808  2.1567
 4585TIP3   OH235169   1.698   6.329  13.969  0.0013  0.0746  0.3759
 4585TIP3    H135170   1.637   6.261  13.999  0.1646 -0.6285 -0.8140
 4585TIP3    H235171   1.703   6.317  13.874  1.9178  0.1891  0.4193
 4586TIP3   OH235172   3.396   3.656   0.834 -0.3577 -0.3085 -0.3442
 4586TIP3    H135173   3.478   3.613   0.810  0.1532  1.1040 -1.2283
 4586TIP3    H235174   3.334   3.584   0.845  1.1780 -1.4648  1.1647
 4587TIP3   OH235175   1.863   4.229  14.292 -0.1166  0.5280  0.1878
 4587TIP3    H135176   1.859   4.148  14.343  0.9010 -0.3265 -1.0268
 4587TIP3    H235177   1.894   4.295  14.354 -2.1114  0.3082  1.5182
 4588TIP3   OH235178   1.069   1.832  11.688 -0.4670 -0.7868  0.4026
 4588TIP3    H135179   0.974   1.819  11.695 -0.6269  0.8650  1.9117
 4588TIP3    H235180   1.079   1.918  11.648  0.3802 -0.8201  0.5205
 4589TIP3   OH235181   0.969   2.153   3.036 -0.4312 -0.3592  0.1827
 4589TIP3    H135182   0.985   2.109   2.952 -0.2579  1.3475 -0.7265
 4589TIP3    H235183   0.978   2.246   3.016  0.0239  0.0701  2.2138
 4590TIP3   OH235184   2.519   5.443   2.040 -0.2895  0.2920  0.1767
 4590TIP3    H135185   2.556   5.417   1.956  0.4483  1.0960  0.2348
 4590TIP3    H235186   2.490   5.533   2.027 -0.5090  0.2971  0.6754
 4591TIP3   OH235187   0.259   1.658  12.885  0.4079 -0.1012 -0.3597
 4591TIP3    H135188   0.255   1.724  12.816 -1.5412  1.7138  1.3341
 4591TIP3    H235189   0.224   1.579  12.845 -1.5787  1.1461 -1.2535
 4592TIP3   OH235190   1.470   1.237  16.628 -0.2990  0.1410 -0.0184
 4592TIP3    H135191   1.538   1.296  16.662  0.1796 -0.4122 -0.0069
 4592TIP3    H235192   1.447   1.182  16.703  0.7430 -1.0693 -0.5453
 4593TIP3   OH235193   0.972   3.766  12.370 -0.7145 -0.0326 -0.1488
 4593TIP3    H135194   1.058   3.725  12.382 -1.0902 -0.8797 -0.3123
 4593TIP3    H235195   0.990   3.842  12.314 -0.0773 -0.2276 -0.2250
 4594TIP3   OH235196   2.772   1.720  14.481 -0.0478  0.2905  0.3010
 4594TIP3    H135197   2.697   1.769  14.448  1.2179 -0.0095 -3.5874
 4594TIP3    H235198   2.748   1.628  14.469  0.7554  0.1896 -0.7640
 4595TIP3   OH235199   3.491   1.092  13.009 -0.0886 -0.5680  0.0791
 4595TIP3    H135200   3.565   1.035  12.986  0.1466 -0.0488 -0.4707
 4595TIP3    H235201   3.489   1.090  13.105  1.3903  0.3307  0.1655
 4596TIP3   OH235202   3.077   1.376  13.197  0.0443 -0.1505  0.1976
 4596TIP3    H135203   3.091   1.457  13.149  2.4465 -0.3767  0.3618
 4596TIP3    H235204   3.144   1.316  13.163  0.1744 -1.1231  2.0112
 4597TIP3   OH235205   5.622   4.599   4.660  0.0513  0.3227  0.3229
 4597TIP3    H135206   5.654   4.659   4.728  1.1334  0.1572 -0.0298
 4597TIP3    H235207   5.582   4.527   4.709  2.0585 -0.4933  0.8622
 4598TIP3   OH235208   4.523   6.278  13.795  0.1575  0.3108  0.5795
 4598TIP3    H135209   4.561   6.202  13.841  0.4160  1.7321  2.8594
 4598TIP3    H235210   4.599   6.329  13.767 -0.0218 -0.1784 -0.9243
 4599TIP3   OH235211   2.336   4.590  17.113  0.4250  0.2234  0.0399
 4599TIP3    H135212   2.405   4.540  17.158 -0.3086  0.1199  1.0731
 4599TIP3    H235213   2.375   4.677  17.101  1.4669 -0.3687 -1.1896
 4600TIP3   OH235214   1.164   3.539   2.200  0.3645  0.0332 -0.3890
 4600TIP3    H135215   1.244   3.489   2.220 -0.4119 -0.7529  0.8520
 4600TIP3    H235216   1.108   3.477   2.153  0.7885  0.8400 -2.0394
 4601TIP3   OH235217   0.475   3.587  16.374 -0.4276 -0.0701  0.5600
 4601TIP3    H135218   0.535   3.519  16.402 -1.6610 -1.6998 -0.5643
 4601TIP3    H235219   0.521   3.669  16.392  2.4759 -1.2172 -0.9580
 4602TIP3   OH235220   6.141   3.935  16.594  0.0463  0.4616 -0.3203
 4602TIP3    H135221   6.233   3.959  16.604  0.1872  0.0791 -0.6691
 4602TIP3    H235222   6.115   3.902  16.680  0.5031 -0.3075 -0.4680
 4603TIP3   OH235223   4.271   2.239  16.487  0.3517  0.9724 -0.5353
 4603TIP3    H135224   4.195   2.231  16.428  0.5998  1.3981 -0.9143
 4603TIP3    H235225   4.246   2.309  16.547  0.1872  0.6812 -0.2564
 4604TIP3   OH235226   1.550   2.952  16.759  0.3274 -0.5420 -0.1009
 4604TIP3    H135227   1.537   2.971  16.666  1.2044  1.3887  0.1199
 4604TIP3    H235228   1.466   2.916  16.788 -0.0755 -0.8234 -1.5546
 4605TIP3   OH235229   4.343   2.918  12.515  0.1515  0.1354 -0.2611
 4605TIP3    H135230   4.371   2.826  12.512  0.4602  0.2442 -1.0375
 4605TIP3    H235231   4.273   2.920  12.581 -2.2125 -1.3220 -2.5481
 4606TIP3   OH235232   4.756   3.264  11.297 -0.2780  0.3730 -0.0904
 4606TIP3    H135233   4.737   3.355  11.272  0.7210  0.6591  0.1407
 4606TIP3    H235234   4.831   3.271  11.355 -0.4488 -0.5821  0.2588
 4607TIP3   OH235235   5.573   4.548   5.749  0.0535  0.1094  0.1329
 4607TIP3    H135236   5.498   4.531   5.693  0.4191  2.1659 -1.0947
 4607TIP3    H235237   5.539   4.603   5.819  0.2427  0.3422  0.0431
 4608TIP3   OH235238   6.449   1.723  10.985  0.1976 -0.0944 -0.5169
 4608TIP3    H135239   6.392   1.800  10.988  0.7367  0.2893  0.3486
 4608TIP3    H235240   6.499   1.734  10.904  1.1317  1.1304  0.1746
 4609TIP3   OH235241   1.339   2.214   3.036 -0.3070 -0.5470  0.1984
 4609TIP3    H135242   1.301   2.214   3.124  0.4030  0.6634  0.5239
 4609TIP3    H235243   1.289   2.281   2.989 -0.7252 -1.2333 -0.3555
 4610TIP3   OH235244   5.472   0.488  15.187  0.2804  0.4855  0.1749
 4610TIP3    H135245   5.442   0.397  15.194  0.0230  0.4517 -1.0805
 4610TIP3    H235246   5.567   0.481  15.180  0.2808  0.3344  0.3132
 4611TIP3   OH235247   1.417   3.764   4.374 -0.6054 -0.9472  0.0787
 4611TIP3    H135248   1.371   3.696   4.323  1.1917 -2.0016 -0.2175
 4611TIP3    H235249   1.426   3.837   4.312  0.9423 -1.9575 -0.9419
 4612TIP3   OH235250   1.786   4.591   0.509 -0.2650  0.3120  0.3179
 4612TIP3    H135251   1.750   4.651   0.444 -0.4403 -0.2552 -0.1218
 4612TIP3    H235252   1.764   4.631   0.593 -1.0956  0.4598  0.0453
 4613TIP3   OH235253   4.822   4.745   5.662 -0.3138 -0.0480 -0.4372
 4613TIP3    H135254   4.804   4.660   5.702  1.6835  0.0107  0.7521
 4613TIP3    H235255   4.800   4.808   5.730  0.2702  0.2444 -0.5144
 4614TIP3   OH235256   5.810   6.019  14.830  0.3473 -0.2310 -0.7141
 4614TIP3    H135257   5.726   5.976  14.850  0.0320  1.8190  3.5652
 4614TIP3    H235258   5.786   6.108  14.807  1.3026 -0.3169 -2.1282
 4615TIP3   OH235259   0.825   5.952  11.501  0.1819  0.2507  0.4272
 4615TIP3    H135260   0.857   5.897  11.572 -1.0778 -1.0217  0.0609
 4615TIP3    H235261   0.746   5.907  11.469  1.3163  0.1250 -2.5406
 4616TIP3   OH235262   6.003   0.813   2.129  0.1766  0.5515 -0.3745
 4616TIP3    H135263   6.054   0.746   2.175 -2.2359 -0.8818  0.3984
 4616TIP3    H235264   6.006   0.787   2.037 -0.6167 -0.5850 -0.0978
 4617TIP3   OH235265   4.810   6.695   2.117  0.4421 -0.8583 -0.0792
 4617TIP3    H135266   4.884   6.649   2.078  1.0065  0.3788 -0.5188
 4617TIP3    H235267   4.785   6.760   2.051  0.4353  0.2543  0.9870
 4618TIP3   OH235268   1.467   5.865   2.129 -0.3056 -0.1950  0.5757
 4618TIP3    H135269   1.485   5.910   2.047 -0.8785 -2.7530 -1.0535
 4618TIP3    H235270   1.554   5.846   2.166 -0.0545  1.3095  0.8120
 4619TIP3   OH235271   1.809   6.170  13.065  0.0004  0.1634 -0.3510
 4619TIP3    H135272   1.894   6.134  13.089 -1.2124 -1.2482  2.1770
 4619TIP3    H235273   1.761   6.097  13.027 -1.7461 -0.5496  2.8809
 4620TIP3   OH235274   1.911   0.564   3.618  0.1574  0.2658  0.1605
 4620TIP3    H135275   1.957   0.483   3.641  0.8756  0.4238 -0.6693
 4620TIP3    H235276   1.933   0.624   3.688  0.4120  0.0322  0.2852
 4621TIP3   OH235277   0.496   0.768   6.473 -0.1041  0.1272 -0.5450
 4621TIP3    H135278   0.423   0.705   6.469  1.5494 -1.8475 -3.0838
 4621TIP3    H235279   0.460   0.848   6.436 -1.1136 -0.7279 -1.5048
 4622TIP3   OH235280   2.798   3.937   2.833  0.1894  0.1737  0.6570
 4622TIP3    H135281   2.718   3.903   2.873 -0.2461 -1.0056 -1.0657
 4622TIP3    H235282   2.864   3.870   2.852 -0.1847 -0.7470 -1.0513
 4623TIP3   OH235283   1.369   2.595  11.879 -0.0153 -0.1301 -0.0121
 4623TIP3    H135284   1.322   2.674  11.853 -0.1370  0.2659  1.3400
 4623TIP3    H235285   1.443   2.590  11.818 -0.3546  0.6808 -0.5084
 4624TIP3   OH235286   1.068   3.039   0.437 -0.3854 -0.0662 -0.0103
 4624TIP3    H135287   1.163   3.041   0.447 -0.4651 -0.4512  0.9535
 4624TIP3    H235288   1.052   3.072   0.349  0.7334 -1.2883 -0.7126
 4625TIP3   OH235289   2.890   2.659  13.236  0.3760  0.3967 -0.0987
 4625TIP3    H135290   2.839   2.582  13.213 -0.5122  0.7741  0.5673
 4625TIP3    H235291   2.866   2.678  13.327  0.0412  1.8599 -0.4683
 4626TIP3   OH235292   0.517   0.295   4.023 -0.5919 -0.2986  0.3107
 4626TIP3    H135293   0.549   0.221   3.973 -0.2636  0.0497 -0.0031
 4626TIP3    H235294   0.447   0.259   4.078 -0.9802 -0.6783 -0.4185
 4627TIP3   OH235295   4.789   1.423   1.030 -0.0129  0.2157 -0.0657
 4627TIP3    H135296   4.771   1.346   0.976 -0.8397  0.3959 -0.0537
 4627TIP3    H235297   4.846   1.478   0.976 -2.3330  1.2912 -1.5602
 4628TIP3   OH235298   5.329   5.919  13.015  0.0237  0.0618  0.6339
 4628TIP3    H135299   5.266   5.894  12.947  0.4007  0.9041 -0.0619
 4628TIP3    H235300   5.335   5.843  13.072  0.3035 -0.9938 -0.7430
 4629TIP3   OH235301   1.641   2.878   0.671 -0.4749  0.5918  0.1175
 4629TIP3    H135302   1.659   2.830   0.752 -0.5236 -1.1346 -0.8352
 4629TIP3    H235303   1.703   2.842   0.607 -1.1143  1.1795 -0.8704
 4630TIP3   OH235304   3.945   4.151  16.320  0.2587 -0.0266 -0.3090
 4630TIP3    H135305   3.912   4.240  16.308 -0.0152 -0.2145 -1.0309
 4630TIP3    H235306   3.881   4.096  16.274 -0.9476 -0.8529  2.1584
 4631TIP3   OH235307   1.275   2.404   5.591  0.1174  0.6726 -0.2252
 4631TIP3    H135308   1.183   2.401   5.618  0.0957 -0.1633 -0.3501
 4631TIP3    H235309   1.301   2.495   5.603 -1.3320  1.4144 -2.2025
 4632TIP3   OH235310   4.302   5.693  12.689  0.4428  0.1300 -0.4284
 4632TIP3    H135311   4.275   5.750  12.618  0.6483  0.5897 -0.1389
 4632TIP3    H235312   4.393   5.670  12.667  1.3729  2.2272  0.8976
 4633TIP3   OH235313   2.286   5.300  17.149  0.1943  0.4288  0.2626
 4633TIP3    H135314   2.305   5.223  17.203  1.0375  1.6649  1.8298
 4633TIP3    H235315   2.226   5.269  17.082  0.1706 -1.4862  1.1175
 4634TIP3   OH235316   6.063   5.191  13.490 -0.2161 -0.4753 -0.1526
 4634TIP3    H135317   5.987   5.247  13.476 -1.3597 -1.4253  1.9116
 4634TIP3    H235318   6.133   5.252  13.512 -1.3625  0.2252  1.7791
 4635TIP3   OH235319   4.464   0.810   5.598 -0.4277  0.4899 -0.2912
 4635TIP3    H135320   4.492   0.840   5.512  0.8302 -0.8608 -0.4020
 4635TIP3    H235321   4.501   0.722   5.606 -2.9376 -0.5843  0.4647
 4636TIP3   OH235322   5.369   3.027  16.025  0.2072 -0.4139 -0.1069
 4636TIP3    H135323   5.429   3.077  16.080 -0.3735  0.2754 -0.0868
 4636TIP3    H235324   5.344   2.952  16.079 -2.5214  1.6511  1.7355
 4637TIP3   OH235325   0.585   1.104  12.059  0.2104 -0.6283  0.2745
 4637TIP3    H135326   0.542   1.180  12.097  1.5128 -0.3029  1.1916
 4637TIP3    H235327   0.587   1.039  12.130 -1.7398 -1.9475 -0.7641
 4638TIP3   OH235328   2.102   1.300   1.617 -0.2372  0.5435  0.1660
 4638TIP3    H135329   2.115   1.391   1.640  1.7968  0.4705 -0.4443
 4638TIP3    H235330   2.154   1.288   1.537 -1.1683 -0.9429 -0.2685
 4639TIP3   OH235331   1.827   5.995   3.792 -0.0912  0.0445 -0.2104
 4639TIP3    H135332   1.771   5.918   3.782  0.0155  0.0808 -1.2168
 4639TIP3    H235333   1.794   6.039   3.870 -1.5639  0.1218 -0.8443
 4640TIP3   OH235334   5.736   3.120   5.235 -0.0651 -0.4310  0.2771
 4640TIP3    H135335   5.816   3.071   5.253  0.4487  0.4107  0.3388
 4640TIP3    H235336   5.758   3.211   5.256 -0.1440  0.2646 -2.2989
 4641TIP3   OH235337   6.428   6.415   5.067  0.0698  0.5645  0.1999
 4641TIP3    H135338   6.387   6.398   4.983  0.8877  1.7616 -0.4724
 4641TIP3    H235339   6.365   6.470   5.114 -0.0355  0.5781  0.0425
 4642TIP3   OH235340   0.178   1.875  11.890  0.6996 -0.1079  0.0354
 4642TIP3    H135341   0.150   1.966  11.893  1.5075  0.1472 -0.0348
 4642TIP3    H235342   0.267   1.878  11.855  0.6443 -0.9439 -0.1983
 4643TIP3   OH235343   0.036   2.677  15.278 -0.2503  0.4543 -0.6536
 4643TIP3    H135344   0.124   2.676  15.241 -0.4666  1.9137 -1.3084
 4643TIP3    H235345  -0.002   2.759  15.245 -2.1753 -0.5789 -1.1402
 4644TIP3   OH235346   5.502   6.326  13.663 -0.3668  0.1019 -0.0483
 4644TIP3    H135347   5.506   6.346  13.757 -0.7856 -3.2003  0.8035
 4644TIP3    H235348   5.411   6.343  13.639 -0.1242  1.5287 -0.0588
 4645TIP3   OH235349   2.469   5.629   5.719  0.3136 -0.3043  0.4241
 4645TIP3    H135350   2.469   5.666   5.631 -0.4699  1.9147  1.2788
 4645TIP3    H235351   2.498   5.701   5.775 -1.9831 -0.7374  2.3061
 4646TIP3   OH235352   1.536   1.706  16.914  0.1873  0.5687  0.3325
 4646TIP3    H135353   1.441   1.704  16.903  0.2136  1.6476 -0.2011
 4646TIP3    H235354   1.568   1.635  16.859 -0.1373  1.8642 -1.6110
 4647TIP3   OH235355   0.065   3.165   4.713 -0.1905 -0.3523  0.5084
 4647TIP3    H135356  -0.027   3.184   4.728 -0.4436 -1.6628  0.6999
 4647TIP3    H235357   0.112   3.234   4.762 -1.0554 -0.8757  2.1595
 4648TIP3   OH235358   0.179   6.382   3.501  0.1765 -0.3898  0.3765
 4648TIP3    H135359   0.138   6.302   3.469  0.7664 -1.3721  1.9824
 4648TIP3    H235360   0.230   6.414   3.426 -0.4990 -1.2025 -0.4524
 4649TIP3   OH235361   4.749   6.418   6.030  0.3048 -0.1727 -0.2382
 4649TIP3    H135362   4.737   6.359   6.105 -1.3665 -1.2213 -1.2534
 4649TIP3    H235363   4.731   6.505   6.065 -0.5111 -0.6580  0.5819
 4650TIP3   OH235364   4.832   2.128   3.952  0.2277 -0.2569 -0.4230
 4650TIP3    H135365   4.916   2.084   3.940 -1.1855 -3.3132  0.0691
 4650TIP3    H235366   4.790   2.124   3.866  0.2298  0.5924 -0.4810
 4651TIP3   OH235367   3.056   0.139   3.201 -0.1463  0.1528  0.9255
 4651TIP3    H135368   3.053   0.110   3.292  0.3250 -1.2753  0.5112
 4651TIP3    H235369   2.987   0.206   3.195 -1.5027 -1.0969  1.8789
 4652TIP3   OH235370   4.536   2.005   5.603  0.4253 -0.0760 -0.5212
 4652TIP3    H135371   4.584   1.993   5.685  1.2190  0.9093 -0.8156
 4652TIP3    H235372   4.486   2.086   5.617  0.5937  0.1144 -1.0116
 4653TIP3   OH235373   6.529   6.247   1.246  0.1457  0.9015  0.3501
 4653TIP3    H135374   6.622   6.266   1.233  0.4019 -1.0206 -1.0078
 4653TIP3    H235375   6.484   6.313   1.193  0.7151  1.6394  0.7582
 4654TIP3   OH235376   0.176   0.411   1.239 -0.6836 -0.2744 -0.5356
 4654TIP3    H135377   0.222   0.487   1.275 -1.6594 -0.0125  0.1853
 4654TIP3    H235378   0.115   0.384   1.308 -1.9893 -0.2881 -1.6518
 4655TIP3   OH235379   6.193   4.839   0.867 -0.1851 -0.1980 -0.1482
 4655TIP3    H135380   6.257   4.768   0.875  0.0230  0.0463  0.3850
 4655TIP3    H235381   6.116   4.807   0.914 -0.5847 -0.6358 -1.0885
 4656TIP3   OH235382   0.267   3.759  16.207  0.3396 -0.1821 -0.0204
 4656TIP3    H135383   0.330   3.758  16.135  0.0397  1.4847 -0.3497
 4656TIP3    H235384   0.320   3.744  16.285  1.3211  1.8454 -0.2209
 4657TIP3   OH235385   0.009   3.497   0.090 -0.2422  0.0223 -0.0246
 4657TIP3    H135386  -0.067   3.457   0.134 -0.6183 -0.2976 -0.9340
 4657TIP3    H235387  -0.019   3.506  -0.001  0.8429 -0.1662 -0.3880
 4658TIP3   OH235388   0.008   3.599   4.122  0.9016 -0.4860  0.1964
 4658TIP3    H135389  -0.009   3.628   4.033  0.7942  0.1094  0.4039
 4658TIP3    H235390  -0.038   3.516   4.130  2.6597 -1.6233 -0.9635
 4659TIP3   OH235391   1.316   2.629   1.829 -0.1498  0.3837  0.3841
 4659TIP3    H135392   1.237   2.606   1.878 -1.2712  0.8167 -1.1395
 4659TIP3    H235393   1.351   2.545   1.799 -1.4829  0.3011 -1.0532
 4660TIP3   OH235394   5.678   2.252  16.323 -0.5423  0.1285 -0.1144
 4660TIP3    H135395   5.650   2.316  16.388  2.8188  2.3852 -0.5932
 4660TIP3    H235396   5.722   2.183  16.374  0.0151  0.6860  0.1704
 4661TIP3   OH235397   0.537   0.096  13.999 -0.3160 -0.4182  0.0487
 4661TIP3    H135398   0.527   0.018  14.053 -0.2359 -1.5581 -1.5122
 4661TIP3    H235399   0.631   0.106  13.988 -0.3118  0.1192  0.5308
 4662TIP3   OH235400   4.577   0.246  13.503  0.3376  0.0685 -0.3300
 4662TIP3    H135401   4.649   0.291  13.547  0.8360 -0.1373 -0.9126
 4662TIP3    H235402   4.530   0.201  13.573  0.9919 -0.0877  0.0178
 4663TIP3   OH235403   6.762   0.835  15.055 -0.0210 -0.0477  0.4884
 4663TIP3    H135404   6.814   0.913  15.037 -0.9101  0.9083  1.8350
 4663TIP3    H235405   6.711   0.821  14.975  0.6922  0.3040 -0.0315
 4664TIP3   OH235406   3.559   3.573  11.610  0.1731  0.1818 -0.5178
 4664TIP3    H135407   3.595   3.633  11.545 -2.1520  1.1787 -0.9739
 4664TIP3    H235408   3.549   3.490  11.564 -2.3141  1.1117 -1.8221
 4665TIP3   OH235409   0.597   5.018   4.114 -0.2029  0.0513 -0.3131
 4665TIP3    H135410   0.594   4.954   4.043  2.8029 -0.7012  0.1088
 4665TIP3    H235411   0.657   5.086   4.084  1.1719 -0.3072  1.4769
 4666TIP3   OH235412   1.136   6.436   2.845  0.1188 -0.1008 -0.2945
 4666TIP3    H135413   1.160   6.421   2.937 -0.2252  1.7470  0.1417
 4666TIP3    H235414   1.219   6.446   2.799  0.4029 -3.3287 -0.7015
 4667TIP3   OH235415   4.826   5.152  15.603 -0.5082 -0.2049  0.0557
 4667TIP3    H135416   4.749   5.103  15.629  0.4786 -2.1836 -0.5280
 4667TIP3    H235417   4.823   5.232  15.656 -1.3667 -1.5994  2.2559
 4668TIP3   OH235418   5.935   2.791   0.754  0.1311 -0.7630  0.8037
 4668TIP3    H135419   5.868   2.841   0.800  1.0879 -0.3407  1.8053
 4668TIP3    H235420   5.920   2.700   0.780  0.1286 -0.6324  1.2779
 4669TIP3   OH235421   0.057   6.598  11.103 -0.1105 -0.1450  1.0464
 4669TIP3    H135422   0.081   6.671  11.045  2.1824 -1.7826 -0.2648
 4669TIP3    H235423  -0.031   6.574  11.076 -0.3389  1.2084  0.4926
 4670TIP3   OH235424   0.251   1.797   1.577 -0.1752 -0.2617 -0.7236
 4670TIP3    H135425   0.318   1.805   1.645 -0.5457 -2.7061  0.0135
 4670TIP3    H235426   0.300   1.773   1.498 -0.1078 -1.4752 -0.3226
 4671TIP3   OH235427   1.699   0.836   3.825  0.2327  0.1798 -0.2111
 4671TIP3    H135428   1.613   0.801   3.848 -0.1231  0.0068 -1.7101
 4671TIP3    H235429   1.722   0.893   3.898  0.7298 -2.9266  2.2739
 4672TIP3   OH235430   6.041   3.983  16.160 -0.4327 -0.1457 -0.6397
 4672TIP3    H135431   6.093   4.059  16.185 -0.7206 -0.2002  0.1354
 4672TIP3    H235432   5.950   4.009  16.178 -0.5856 -0.4387 -0.9808
 4673TIP3   OH235433   4.591   3.038  16.569  0.4604 -0.1820 -0.1356
 4673TIP3    H135434   4.497   3.044  16.585  0.4353 -0.4467 -0.2000
 4673TIP3    H235435   4.605   3.088  16.489  0.5217  0.7633  0.4425
 4674TIP3   OH235436   6.283   2.680   4.017 -0.4283  0.1867  0.1879
 4674TIP3    H135437   6.335   2.623   3.960  1.0100  0.9594  0.6954
 4674TIP3    H235438   6.251   2.622   4.086 -2.8571 -0.9437 -1.7143
 4675TIP3   OH235439   1.419   5.180  16.875 -0.6549 -0.8410  0.3281
 4675TIP3    H135440   1.379   5.115  16.817  1.8230 -2.1292 -0.0452
 4675TIP3    H235441   1.439   5.133  16.955  1.4446 -0.6966 -0.0560
 4676TIP3   OH235442   4.927   0.279   3.910 -0.1920 -0.2551 -0.4818
 4676TIP3    H135443   4.884   0.325   3.838 -0.5333  0.6027  0.2506
 4676TIP3    H235444   5.000   0.336   3.934 -0.7708  0.0572  0.6109
 4677TIP3   OH235445   1.317   3.664  16.307 -0.3321 -0.3077  0.1501
 4677TIP3    H135446   1.341   3.745  16.352 -0.6417 -1.1442  1.8719
 4677TIP3    H235447   1.398   3.613  16.305 -0.0970  0.0665 -1.0781
 4678TIP3   OH235448   2.662   6.204   2.108 -0.9583 -0.5215  0.3447
 4678TIP3    H135449   2.667   6.111   2.132 -1.6147 -0.3416  1.2540
 4678TIP3    H235450   2.752   6.229   2.090 -1.0735 -2.1822 -3.4477
 4679TIP3   OH235451   1.093   1.937   3.926  0.1301  0.1445 -0.0899
 4679TIP3    H135452   1.082   1.950   3.831  0.1427  0.3135 -0.0670
 4679TIP3    H235453   1.091   1.842   3.936  0.3366  0.1195 -0.2844
 4680TIP3   OH235454   6.360   6.120  14.400 -0.7118  0.3120  0.0899
 4680TIP3    H135455   6.400   6.181  14.463  0.7382 -0.1391 -0.3549
 4680TIP3    H235456   6.387   6.033  14.430 -0.6104  0.0486 -0.7334
 4681TIP3   OH235457   2.700   1.977  14.248 -0.6769 -0.1168 -0.0831
 4681TIP3    H135458   2.697   2.055  14.303 -0.2763 -0.1483 -0.0121
 4681TIP3    H235459   2.613   1.938  14.256 -1.4823  1.2681 -1.5113
 4682TIP3   OH235460   4.468   2.605   1.819  0.1489 -0.2530  0.3521
 4682TIP3    H135461   4.440   2.692   1.792 -1.3318 -0.6099  0.6469
 4682TIP3    H235462   4.562   2.613   1.831  0.2768  0.9063 -1.1017
 4683TIP3   OH235463   5.581   6.534   4.678  0.2097 -0.4065  0.2515
 4683TIP3    H135464   5.534   6.454   4.656 -2.0071  0.8675 -0.0148
 4683TIP3    H235465   5.607   6.522   4.770 -3.5128 -0.0230  1.5260
 4684TIP3   OH235466   5.870   1.938  13.139  0.1674 -0.3409  0.2789
 4684TIP3    H135467   5.826   2.002  13.195  0.3530 -0.2400  0.3139
 4684TIP3    H235468   5.937   1.900  13.196 -0.2977 -0.9549  0.4159
 4685TIP3   OH235469   6.371   4.671   3.205  0.1837 -0.3466 -0.2871
 4685TIP3    H135470   6.321   4.751   3.188  3.1427  1.7140 -0.0132
 4685TIP3    H235471   6.342   4.641   3.291  3.2230  4.2095  2.7794
 4686TIP3   OH235472   6.266   1.262  16.750  0.6939  0.2631  0.1053
 4686TIP3    H135473   6.218   1.190  16.708  1.6155  0.1905 -0.8745
 4686TIP3    H235474   6.286   1.322  16.678  1.2827  0.7338  0.6497
 4687TIP3   OH235475   2.497   6.624   4.506 -0.2875 -0.5267 -0.0982
 4687TIP3    H135476   2.502   6.560   4.436 -0.3465 -2.3100  1.4569
 4687TIP3    H235477   2.420   6.677   4.485 -0.0570 -0.7420 -1.5693
 4688TIP3   OH235478   4.159   2.728   0.652 -0.2748  0.2693 -0.1120
 4688TIP3    H135479   4.118   2.784   0.586 -0.1767  0.6285  0.1341
 4688TIP3    H235480   4.203   2.788   0.712  1.6440 -0.1205 -1.0206
 4689TIP3   OH235481   0.555   6.528   1.864 -0.4948 -0.6713  0.5527
 4689TIP3    H135482   0.607   6.451   1.887 -2.1673 -1.9659  0.1214
 4689TIP3    H235483   0.569   6.589   1.937  1.6731 -0.9141  0.3982
 4690TIP3   OH235484   3.433   6.467  15.285  0.4219  0.5005  0.0174
 4690TIP3    H135485   3.448   6.461  15.191  0.5290 -0.8553  0.1006
 4690TIP3    H235486   3.357   6.411  15.301 -2.2536  3.8699  0.2082
 4691TIP3   OH235487   2.232   3.842  13.213  0.1363  0.2073  0.0094
 4691TIP3    H135488   2.323   3.827  13.190 -0.1679  0.9416 -1.9360
 4691TIP3    H235489   2.234   3.912  13.278  0.9773 -0.0503  0.2615
 4692TIP3   OH235490   2.909   1.765   0.967 -0.6631  0.0411 -0.3189
 4692TIP3    H135491   2.958   1.846   0.977  1.2974 -1.1941  0.5200
 4692TIP3    H235492   2.930   1.734   0.879  0.5479 -0.7512  0.2245
 4693TIP3   OH235493   4.373   1.504   1.406  0.2419  0.4221  0.0547
 4693TIP3    H135494   4.372   1.583   1.460  0.9816  2.0812 -2.2500
 4693TIP3    H235495   4.456   1.461   1.428 -0.0882  0.3084  1.1881
 4694TIP3   OH235496   0.152   0.528   2.259 -0.5597 -0.0601 -0.3921
 4694TIP3    H135497   0.135   0.541   2.353 -1.9554 -0.8736 -0.5040
 4694TIP3    H235498   0.106   0.600   2.216 -0.4767 -0.0709 -0.4987
 4695TIP3   OH235499   0.260   4.191  16.692  0.2146  0.5462 -0.1270
 4695TIP3    H135500   0.217   4.128  16.750 -1.5349  1.4981 -0.3406
 4695TIP3    H235501   0.270   4.270  16.746 -1.6084  1.5088 -1.1200
 4696TIP3   OH235502   4.092   2.900   2.543  0.6211 -0.1004 -0.0249
 4696TIP3    H135503   4.064   2.853   2.464  1.5884 -1.3249  0.3157
 4696TIP3    H235504   4.121   2.830   2.602 -0.0818  0.7963  1.4254
 4697TIP3   OH235505   2.488   3.141   3.618 -0.6649 -0.0391 -0.0716
 4697TIP3    H135506   2.424   3.184   3.561 -2.3157 -0.1359  1.6033
 4697TIP3    H235507   2.436   3.080   3.671  0.8715 -0.3585  1.1555
 4698TIP3   OH235508   2.936   5.885  15.636 -0.4643 -0.0096 -0.5113
 4698TIP3    H135509   2.940   5.935  15.554  1.0941  1.4829  0.4174
 4698TIP3    H235510   2.849   5.904  15.672 -0.8745 -0.0867 -1.4346
 4699TIP3   OH235511   5.740   0.618  15.358  0.7001  0.0602  0.9340
 4699TIP3    H135512   5.654   0.615  15.400 -0.9099  0.3454 -2.0712
 4699TIP3    H235513   5.757   0.528  15.332  0.6800  0.2080  0.3956
 4700TIP3   OH235514   4.811   2.612  11.029  0.3569  0.6131  0.0498
 4700TIP3    H135515   4.769   2.696  11.015 -0.8298  0.1088  0.4920
 4700TIP3    H235516   4.813   2.602  11.124 -1.5803 -0.8457 -0.0124
 4701TIP3   OH235517   6.006   6.365  14.545 -0.2224  0.1416  0.0169
 4701TIP3    H135518   6.008   6.280  14.587  0.0260  0.1354 -0.0083
 4701TIP3    H235519   5.971   6.348  14.458  1.8240 -0.2792 -0.7774
 4702TIP3   OH235520   1.379   2.588  12.706 -0.5126 -0.0869 -0.4444
 4702TIP3    H135521   1.293   2.622  12.681 -0.6190  0.8783  1.1001
 4702TIP3    H235522   1.423   2.662  12.749  1.1978 -0.4833 -1.3960
 4703TIP3   OH235523   6.502   1.390   0.203 -0.0888  0.0356  0.1059
 4703TIP3    H135524   6.515   1.316   0.143  1.1127  0.2235  0.1063
 4703TIP3    H235525   6.587   1.401   0.246 -0.6286  0.6001  1.0549
 4704TIP3   OH235526   1.828   1.618   4.868  0.2934 -0.4081 -0.0649
 4704TIP3    H135527   1.822   1.535   4.822  2.3943 -0.0292 -1.1306
 4704TIP3    H235528   1.909   1.657   4.837 -0.3482  1.8017  0.8272
 4705TIP3   OH235529   2.273   2.976  15.260 -0.7686  0.1849  0.0424
 4705TIP3    H135530   2.238   2.904  15.312 -1.3965  0.5672  0.1680
 4705TIP3    H235531   2.196   3.023  15.230 -0.3840  1.9493  1.6012
 4706TIP3   OH235532   0.151   3.503  14.209  0.3870  0.3371  0.2389
 4706TIP3    H135533   0.134   3.409  14.211 -2.8807  0.8220 -0.0425
 4706TIP3    H235534   0.089   3.537  14.145  3.2834  2.4706 -1.7272
 4707TIP3   OH235535   5.887   3.004   1.208  0.2274 -0.5647  0.3788
 4707TIP3    H135536   5.801   3.022   1.245 -0.1771 -1.2321 -0.2177
 4707TIP3    H235537   5.907   3.080   1.154  0.6280  0.2150  1.5776
 4708TIP3   OH235538   0.729   3.246  11.023 -0.3358  0.7435  0.2272
 4708TIP3    H135539   0.738   3.265  11.116 -1.2611  2.3759  0.0131
 4708TIP3    H235540   0.635   3.240  11.009 -0.3501  2.8914 -1.0053
 4709TIP3   OH235541   2.956   0.184   3.963 -0.1850 -0.4648 -0.5179
 4709TIP3    H135542   2.880   0.183   4.021  0.6950 -0.0421  0.6778
 4709TIP3    H235543   2.974   0.091   3.945 -2.0108 -0.5619 -2.2811
 4710TIP3   OH235544   2.418   6.290   0.847  0.1486  0.2665  0.4095
 4710TIP3    H135545   2.391   6.314   0.758  0.5790 -1.1217 -0.1343
 4710TIP3    H235546   2.398   6.197   0.853  0.2139  0.3251  1.7481
 4711TIP3   OH235547   4.560   2.087   2.238 -0.0253 -0.1299  0.0060
 4711TIP3    H135548   4.516   2.171   2.251 -2.0177 -1.2150  0.6595
 4711TIP3    H235549   4.630   2.085   2.303  0.2648  1.1573 -0.2554
 4712TIP3   OH235550   6.669   5.011  13.338  0.1537  0.1296  0.0544
 4712TIP3    H135551   6.744   4.998  13.280  2.1071  0.4412  2.4024
 4712TIP3    H235552   6.707   5.030  13.423 -2.5449 -3.4531  2.3084
 4713TIP3   OH235553   2.104   2.824   0.332  0.2359 -0.3577  0.3841
 4713TIP3    H135554   2.082   2.837   0.239 -0.6405 -1.1973  0.4551
 4713TIP3    H235555   2.079   2.906   0.374 -2.2587 -1.0097  0.3365
 4714TIP3   OH235556   3.708   0.058  15.963  0.0118 -0.0869  0.5376
 4714TIP3    H135557   3.627   0.035  15.916  1.3358 -0.2798 -1.7873
 4714TIP3    H235558   3.677   0.101  16.043 -2.3921 -0.1761 -0.2454
 4715TIP3   OH235559   2.528   3.035  11.318  0.2321 -0.5743 -0.0529
 4715TIP3    H135560   2.502   3.091  11.392  2.4625  0.0062  0.3705
 4715TIP3    H235561   2.453   3.038  11.259 -0.3645  1.6162  0.6905
 4716TIP3   OH235562   5.721   4.570  11.486 -0.0972  0.0625  0.0501
 4716TIP3    H135563   5.672   4.632  11.540 -0.1194  0.6589 -0.6447
 4716TIP3    H235564   5.679   4.575  11.400  2.1669  1.7938 -1.0290
 4717TIP3   OH235565   2.120   6.193  10.906 -0.6174 -0.1772  0.7352
 4717TIP3    H135566   2.143   6.102  10.924 -0.6493 -0.1757  0.7825
 4717TIP3    H235567   2.028   6.190  10.881 -0.1710 -0.3901 -1.0129
 4718TIP3   OH235568   5.799   0.026   0.129  0.1276 -0.0430  0.7589
 4718TIP3    H135569   5.776   0.008   0.220  0.3214 -0.0332  0.8098
 4718TIP3    H235570   5.717   0.056   0.089 -0.6194 -2.4204  0.2982
 4719TIP3   OH235571   1.860   2.430   3.631  0.2692  0.1363  0.4384
 4719TIP3    H135572   1.837   2.391   3.715 -1.4493  0.4407  0.1560
 4719TIP3    H235573   1.898   2.358   3.581 -2.3686 -1.1531  0.1056
 4720TIP3   OH235574   5.288   5.711   1.976 -0.0597 -0.2108  0.4622
 4720TIP3    H135575   5.381   5.708   1.951 -0.1567  1.0295 -0.1166
 4720TIP3    H235576   5.280   5.789   2.030 -0.5497 -0.9816  1.5532
 4721TIP3   OH235577   0.401   6.132   1.126 -0.4456  0.4867  0.4044
 4721TIP3    H135578   0.370   6.055   1.078  0.5671  0.4243 -0.1812
 4721TIP3    H235579   0.391   6.108   1.218 -1.1425  0.0809  0.2308
 4722TIP3   OH235580   3.704   2.806  17.091 -0.2382 -0.0947  0.4156
 4722TIP3    H135581   3.791   2.837  17.066  2.2355 -3.4227  3.7144
 4722TIP3    H235582   3.692   2.725  17.042 -1.0838 -0.1247  0.6492
 4723TIP3   OH235583   5.112   5.255  15.088 -0.7882  0.1954  0.2203
 4723TIP3    H135584   5.169   5.178  15.086  3.1114  2.7595  0.7375
 4723TIP3    H235585   5.110   5.284  14.997 -1.3050  0.1022  0.2036
 4724TIP3   OH235586   4.655   2.964  12.028  0.0209  0.3275  0.2947
 4724TIP3    H135587   4.652   2.923  12.115 -0.6982 -1.1192 -0.3764
 4724TIP3    H235588   4.565   2.957  11.995  0.2035  1.2054 -0.4283
 4725TIP3   OH235589   1.003   2.754  14.470  0.5373 -0.0531  0.2805
 4725TIP3    H135590   1.066   2.757  14.542  0.7692 -2.4870  0.2371
 4725TIP3    H235591   0.934   2.695  14.500  0.3897 -0.7160 -1.2734
 4726TIP3   OH235592   0.105   4.703   4.999 -0.5597 -0.4575 -0.7189
 4726TIP3    H135593   0.125   4.629   4.942 -2.2796  0.2796 -2.3641
 4726TIP3    H235594   0.014   4.725   4.979 -1.0615  0.2031  1.9304
 4727TIP3   OH235595   0.518   5.058   2.804 -0.1835 -0.1256  0.1050
 4727TIP3    H135596   0.443   5.002   2.824 -0.4224 -0.1245 -0.7495
 4727TIP3    H235597   0.576   5.049   2.880 -0.1392 -1.6586 -0.0696
 4728TIP3   OH235598   1.122   5.597  16.826 -0.1545  0.0392 -0.4205
 4728TIP3    H135599   1.147   5.585  16.918  0.4473  1.7219 -0.3164
 4728TIP3    H235600   1.036   5.555  16.819  0.7075 -2.0024  0.3489
 4729TIP3   OH235601   3.416   0.595  14.332 -0.3128  0.0894  0.5923
 4729TIP3    H135602   3.357   0.594  14.257  0.4354  1.2382 -0.0430
 4729TIP3    H235603   3.481   0.527  14.314 -0.8461 -0.4825  0.8073
 4730TIP3   OH235604   5.020   1.292   2.490 -0.0013 -0.0133 -0.0133
 4730TIP3    H135605   4.957   1.343   2.439 -0.4858 -0.7381 -0.1589
 4730TIP3    H235606   5.037   1.215   2.437 -0.5819 -0.8214  0.9458
 4731TIP3   OH235607   3.991   0.908  14.214  0.3391 -0.0739  0.6107
 4731TIP3    H135608   3.925   0.933  14.279 -0.1070 -0.0341  0.1551
 4731TIP3    H235609   3.952   0.934  14.130  0.1576 -1.6435  0.1745
 4732TIP3   OH235610   4.980   0.517  14.452 -0.5128 -0.4257  0.2938
 4732TIP3    H135611   5.028   0.511  14.369  3.0701 -0.6615  2.2125
 4732TIP3    H235612   4.939   0.603  14.450  1.4381  0.5424 -0.8164
 4733TIP3   OH235613   3.515   0.890  17.248 -0.7734 -0.3141  0.0179
 4733TIP3    H135614   3.450   0.821  17.265 -0.3292 -0.4340  1.3381
 4733TIP3    H235615   3.531   0.929  17.334  0.7270 -0.1237 -0.3288
 4734TIP3   OH235616   3.233   3.673  14.322  0.2080 -0.0060  1.0095
 4734TIP3    H135617   3.199   3.594  14.364  3.8524 -2.6561 -0.4796
 4734TIP3    H235618   3.307   3.699  14.376  0.7801  0.6249 -0.0336
 4735TIP3   OH235619   1.637   4.774   2.946 -0.1511  0.2880 -0.6742
 4735TIP3    H135620   1.669   4.705   2.888  1.8836 -0.2768  0.9726
 4735TIP3    H235621   1.541   4.768   2.940 -0.0191 -1.7519 -1.6346
 4736TIP3   OH235622   6.162   2.956   0.535 -0.3466 -0.9826  0.0455
 4736TIP3    H135623   6.233   3.017   0.558  0.1876 -1.7780  0.5719
 4736TIP3    H235624   6.198   2.903   0.464 -1.0560 -0.2453 -0.8724
 4737TIP3   OH235625   4.975   2.455   0.224  0.1808 -0.4891 -0.0600
 4737TIP3    H135626   4.904   2.476   0.164 -0.3832  0.4466  0.8909
 4737TIP3    H235627   5.023   2.537   0.234  0.1346 -0.5690  0.9220
 4738TIP3   OH235628   3.319   0.205   5.480 -0.5717 -0.3272  0.5451
 4738TIP3    H135629   3.387   0.233   5.541 -0.9911 -0.4088  1.0554
 4738TIP3    H235630   3.367   0.167   5.406  0.0509  2.2204 -0.4725
 4739TIP3   OH235631   2.938   4.826   5.610  0.5781 -0.7949 -0.8762
 4739TIP3    H135632   2.972   4.828   5.521 -0.5730 -0.6069 -1.3327
 4739TIP3    H235633   2.981   4.899   5.654 -0.3411  0.3971 -1.8727
 4740TIP3   OH235634   4.952   0.107  12.950  0.0503 -0.0421  0.6763
 4740TIP3    H135635   4.917   0.082  12.864 -0.1725 -0.5905  0.9181
 4740TIP3    H235636   4.925   0.198  12.962 -0.1340 -0.0419  0.2741
 4741TIP3   OH235637   4.419   3.296  14.418  0.3192 -0.2200 -0.0335
 4741TIP3    H135638   4.485   3.365  14.429  0.1854  0.1593 -1.3788
 4741TIP3    H235639   4.370   3.323  14.340 -2.0798  0.0365  1.4860
 4742TIP3   OH235640   1.864   5.721  16.087 -0.0484  0.2794  0.3979
 4742TIP3    H135641   1.915   5.704  16.007 -2.8097  0.6222 -1.5703
 4742TIP3    H235642   1.786   5.767  16.056 -1.0134  0.8648  3.4063
 4743TIP3   OH235643   5.424   2.187   5.411 -0.5142  0.1697  0.5348
 4743TIP3    H135644   5.430   2.178   5.506 -1.0656  1.1649  0.6773
 4743TIP3    H235645   5.335   2.219   5.394 -0.2390  0.5703 -0.2573
 4744TIP3   OH235646   3.558   5.386  10.810 -0.1595  0.1458 -0.0656
 4744TIP3    H135647   3.471   5.386  10.771 -1.2224 -0.8834  2.1304
 4744TIP3    H235648   3.591   5.297  10.794 -0.3418 -0.0815  0.7929
 4745TIP3   OH235649   3.545   4.575   5.622 -0.2204  0.0607 -0.2305
 4745TIP3    H135650   3.622   4.566   5.679 -0.9024  1.6961  1.0050
 4745TIP3    H235651   3.524   4.668   5.624 -2.7089 -0.4388  0.0795
 4746TIP3   OH235652   3.398   1.740   2.812  0.1786 -0.1813  0.2905
 4746TIP3    H135653   3.307   1.711   2.816  0.2999 -0.4506  2.5459
 4746TIP3    H235654   3.393   1.832   2.788 -0.5953 -0.5053 -0.8568
 4747TIP3   OH235655   1.645   4.397  15.897  0.0454  0.7209 -0.4989
 4747TIP3    H135656   1.669   4.473  15.844  1.7461  0.5551 -0.0104
 4747TIP3    H235657   1.726   4.347  15.905 -0.3902  0.2742  1.4841
 4748TIP3   OH235658   5.088   4.418   2.268 -0.0935  0.2284 -0.2159
 4748TIP3    H135659   5.036   4.492   2.300  0.3299  0.6339 -0.4531
 4748TIP3    H235660   5.026   4.345   2.264 -0.4584  0.5097  0.2497
 4749TIP3   OH235661   6.097   6.623   0.895 -0.1328 -0.0915 -0.2169
 4749TIP3    H135662   6.175   6.622   0.950  1.5590  0.3913 -2.4660
 4749TIP3    H235663   6.053   6.539   0.914  1.4222 -0.8004  0.4084
 4750TIP3   OH235664   5.154   4.254   3.004 -0.4757 -0.1299  1.2182
 4750TIP3    H135665   5.058   4.247   3.011 -0.5927  0.1474  0.0321
 4750TIP3    H235666   5.186   4.168   3.032 -1.0207  0.0016  2.2975
 4751TIP3   OH235667   5.989   4.811  15.789  0.3671  0.1041  0.1056
 4751TIP3    H135668   6.079   4.807  15.820  0.8626 -1.2553 -1.3796
 4751TIP3    H235669   5.994   4.789  15.696 -1.5047 -0.1198  0.0152
 4752TIP3   OH235670   3.212   6.714   4.064  0.5452 -0.3763 -0.5218
 4752TIP3    H135671   3.175   6.661   4.134  0.4993  1.1100  0.6288
 4752TIP3    H235672   3.141   6.721   4.000 -0.2735  0.2303  0.4204
 4753TIP3   OH235673   4.372   1.664   4.230  0.0425 -0.1137 -0.1264
 4753TIP3    H135674   4.392   1.731   4.296 -0.3779  0.5734 -0.6825
 4753TIP3    H235675   4.327   1.595   4.279 -0.5350  0.5284  0.2710
 4754TIP3   OH235676   3.337   2.977  10.940  0.1669  0.4285  0.4127
 4754TIP3    H135677   3.344   3.065  10.904 -1.5287 -0.0198 -1.1840
 4754TIP3    H235678   3.333   2.990  11.034  0.6387  1.9943  0.2480
 4755TIP3   OH235679   4.100   2.669   4.657  0.4475 -0.2199  0.0432
 4755TIP3    H135680   4.074   2.599   4.596 -2.3408  1.9340 -1.4513
 4755TIP3    H235681   4.077   2.635   4.743 -1.0226 -1.1171 -0.6610
 4756TIP3   OH235682   2.436   3.211   6.498 -0.3283 -0.3603 -0.3018
 4756TIP3    H135683   2.494   3.206   6.575 -1.5202 -0.3769  0.6184
 4756TIP3    H235684   2.471   3.284   6.447  0.9660 -0.8436 -0.1697
 4757TIP3   OH235685   2.077   5.904  15.672  0.1113 -0.3412  0.3137
 4757TIP3    H135686   2.048   5.851  15.598 -0.5100 -0.1533  0.4205
 4757TIP3    H235687   2.079   5.994  15.638  1.8272 -0.4751 -0.0734
 4758TIP3   OH235688   6.131   1.613   5.610  1.0988  0.2531  0.1032
 4758TIP3    H135689   6.049   1.588   5.566  1.5033  2.6245 -2.2656
 4758TIP3    H235690   6.145   1.544   5.674 -2.5684 -0.4460  0.4099
 4759TIP3   OH235691   5.539   0.888   0.195  0.8029  0.3372  0.1991
 4759TIP3    H135692   5.578   0.960   0.146  1.0226  0.0523 -0.0495
 4759TIP3    H235693   5.552   0.912   0.287  1.1273  0.4807  0.1188
 4760TIP3   OH235694   6.621   5.692  11.980 -0.1072 -0.2232 -0.7378
 4760TIP3    H135695   6.615   5.736  11.895 -1.0079  1.4616  0.1424
 4760TIP3    H235696   6.676   5.749  12.033 -0.8340 -0.4250  0.2687
 4761TIP3   OH235697   1.396   4.774   3.125 -0.5808  0.3939  0.3989
 4761TIP3    H135698   1.305   4.745   3.119 -1.1410  1.7981  1.4240
 4761TIP3    H235699   1.405   4.807   3.215  0.3692  2.0738 -0.2649
 4762TIP3   OH235700   3.046   2.586  10.755  0.4170 -0.0886  0.0448
 4762TIP3    H135701   3.001   2.662  10.718 -0.2689  0.2486  1.5298
 4762TIP3    H235702   2.993   2.511  10.728  0.6111  0.0308 -0.6862
 4763TIP3   OH235703   5.750   6.438  16.040 -0.1734 -0.2016  0.4770
 4763TIP3    H135704   5.725   6.428  16.132 -0.5451  0.2721  0.4298
 4763TIP3    H235705   5.822   6.376  16.028 -0.0108 -0.1445  1.1302
 4764TIP3   OH235706   4.701   5.626  13.833 -0.5538  0.1186  0.0070
 4764TIP3    H135707   4.697   5.559  13.901 -0.9186  0.2892  0.1574
 4764TIP3    H235708   4.674   5.580  13.753  0.4651 -0.2287 -0.1415
 4765TIP3   OH235709   4.409   6.308   1.235  0.5337 -1.0439  0.3996
 4765TIP3    H135710   4.393   6.214   1.223  0.9052 -1.0203 -0.3321
 4765TIP3    H235711   4.483   6.327   1.178 -0.8408  0.1080 -1.0839
 4766TIP3   OH235712   5.173   5.368   2.901 -0.1804  0.0471 -0.1433
 4766TIP3    H135713   5.110   5.296   2.909 -0.8963  0.7646  1.0709
 4766TIP3    H235714   5.147   5.413   2.821 -0.1957 -0.5991 -0.5092
 4767TIP3   OH235715   3.914   4.646   4.105  0.3572  0.0170  0.6654
 4767TIP3    H135716   3.931   4.554   4.121 -1.1807 -0.6185 -1.0788
 4767TIP3    H235717   3.867   4.648   4.022  0.2320  2.3689  0.7256
 4768TIP3   OH235718   3.938   2.059   2.963 -0.4769 -0.1403 -0.1310
 4768TIP3    H135719   4.022   2.099   2.942  0.5007 -0.0423  3.3442
 4768TIP3    H235720   3.936   1.978   2.913  1.2719  0.3063 -0.9897
 4769TIP3   OH235721   4.828   5.766  11.458  0.4349  0.5848 -0.3147
 4769TIP3    H135722   4.866   5.779  11.372 -0.1298  0.3844 -0.6007
 4769TIP3    H235723   4.741   5.728  11.441  0.0550  1.1447  0.3150
 4770TIP3   OH235724   1.100   4.077   4.773 -0.2718 -0.4043  0.2593
 4770TIP3    H135725   1.047   4.146   4.812  1.1588 -0.0668  1.7139
 4770TIP3    H235726   1.151   4.121   4.704 -0.4255 -0.3168  0.2027
 4771TIP3   OH235727   1.035   3.414  11.519  0.1504 -0.1224  0.2685
 4771TIP3    H135728   1.029   3.325  11.484  0.3347 -0.7711  1.8096
 4771TIP3    H235729   1.031   3.403  11.614 -0.3865  1.5761  0.4701
 4772TIP3   OH235730   5.673   6.684  15.930 -0.0663  0.2490 -0.2949
 4772TIP3    H135731   5.689   6.599  15.969  0.5068  0.3018 -0.4088
 4772TIP3    H235732   5.620   6.666  15.853  1.4072 -0.1818 -1.2385
 4773TIP3   OH235733   5.022   5.680  15.541  0.4816  0.7680 -0.3480
 4773TIP3    H135734   5.041   5.636  15.624  1.5745  0.1178 -0.9159
 4773TIP3    H235735   5.064   5.766  15.549 -0.6956  1.2988  0.3318
 4774TIP3   OH235736   3.200   0.233   6.465 -0.3767 -0.1953  0.1642
 4774TIP3    H135737   3.225   0.320   6.496  1.7073 -0.2085 -1.2427
 4774TIP3    H235738   3.243   0.173   6.526  2.6439 -0.2034 -1.7475
 4775TIP3   OH235739   1.190   1.102  12.630  1.2363  0.7824 -0.3313
 4775TIP3    H135740   1.255   1.101  12.560  2.1674  1.2426  0.4930
 4775TIP3    H235741   1.132   1.028  12.611  2.6396 -0.3226 -0.5213
 4776TIP3   OH235742   0.222   5.931  11.445 -0.5627  0.1920 -0.1596
 4776TIP3    H135743   0.155   5.889  11.499 -0.0175  0.8485  1.0504
 4776TIP3    H235744   0.216   5.886  11.361 -1.1916 -1.0928  0.5483
 4777TIP3   OH235745   4.976   1.716   2.442  0.6862  0.4122  0.2093
 4777TIP3    H135746   4.957   1.692   2.352 -1.4723 -2.2267  1.2337
 4777TIP3    H235747   5.063   1.680   2.459  0.2114 -0.9995 -0.2381
 4778TIP3   OH235748   6.165   1.182  16.390 -0.5891  0.4422 -0.6292
 4778TIP3    H135749   6.101   1.117  16.362 -1.1408  0.3367  0.7912
 4778TIP3    H235750   6.222   1.134  16.451 -0.6371  1.1348 -0.0329
 4779TIP3   OH235751   2.687   5.410   3.952  0.2623  0.8329 -0.3943
 4779TIP3    H135752   2.694   5.449   4.039 -0.3148 -1.9968  1.0509
 4779TIP3    H235753   2.776   5.413   3.916  1.1679 -0.5314  1.5647
 4780TIP3   OH235754   1.735   1.219   3.836  0.4705  0.2311  0.3180
 4780TIP3    H135755   1.657   1.251   3.790  0.6393  0.7667  0.3915
 4780TIP3    H235756   1.794   1.295   3.838  1.3329 -0.3979 -0.4655
 4781TIP3   OH235757   4.222   2.713   6.082 -0.2907 -0.5137 -0.4633
 4781TIP3    H135758   4.216   2.722   6.177  0.8980  0.1030 -0.4372
 4781TIP3    H235759   4.199   2.800   6.048 -0.5715 -0.6921 -0.7389
 4782TIP3   OH235760   3.412   1.378   0.967 -0.2988 -0.0681  0.1219
 4782TIP3    H135761   3.507   1.392   0.973 -0.1680 -0.3500 -1.0057
 4782TIP3    H235762   3.378   1.458   0.927 -0.4123 -0.3127 -0.2821
 4783TIP3   OH235763   6.518   3.617   3.043  0.2098 -0.0978  1.0784
 4783TIP3    H135764   6.459   3.692   3.050  0.2663 -0.0614  1.1637
 4783TIP3    H235765   6.596   3.652   2.999 -1.0225 -0.8199 -1.9046
 4784TIP3   OH235766   0.028   1.885   5.268 -0.1625  0.3089 -0.1721
 4784TIP3    H135767   0.031   1.934   5.186  0.0840 -0.1516 -0.4424
 4784TIP3    H235768  -0.054   1.835   5.264  0.8638 -1.3732 -1.1197
 4785TIP3   OH235769   0.429   1.602  15.956 -0.4539 -0.2800 -0.1570
 4785TIP3    H135770   0.488   1.657  16.007 -1.0646  0.6254 -0.4001
 4785TIP3    H235771   0.342   1.636  15.976 -0.8276 -1.0575 -0.4452
 4786TIP3   OH235772   3.758   4.965   5.813  0.2190 -0.4668 -0.2995
 4786TIP3    H135773   3.825   5.005   5.868  0.5781  0.7113 -1.5334
 4786TIP3    H235774   3.675   4.992   5.854  0.4738 -1.0945  0.6567
 4787TIP3   OH235775   2.802   4.631  12.658  0.1169 -0.6232  0.5305
 4787TIP3    H135776   2.761   4.703  12.706 -2.8437 -2.1542  0.5572
 4787TIP3    H235777   2.775   4.645  12.567  2.6080  0.2364 -0.1469
 4788TIP3   OH235778   3.602   4.201  12.344  0.3638  0.4736 -0.1865
 4788TIP3    H135779   3.543   4.221  12.416 -1.2078 -0.5260 -1.1377
 4788TIP3    H235780   3.671   4.267  12.351  0.3216  0.3630  2.2450
 4789TIP3   OH235781   2.580   6.656  13.821  0.0295 -0.0890 -0.2328
 4789TIP3    H135782   2.548   6.685  13.735 -0.1697  2.1671  0.5419
 4789TIP3    H235783   2.576   6.561  13.817 -0.1861 -0.0407 -2.6450
 4790TIP3   OH235784   6.692   1.244   3.546  0.1174  0.2653  0.1756
 4790TIP3    H135785   6.617   1.285   3.588  0.9653  1.4118  0.6171
 4790TIP3    H235786   6.674   1.251   3.452 -0.5008  0.1685  0.2869
 4791TIP3   OH235787   1.099   4.260   5.739  0.3523 -0.0092 -0.0292
 4791TIP3    H135788   1.164   4.204   5.781  0.2389  0.1821  0.4118
 4791TIP3    H235789   1.150   4.315   5.678  0.3814 -1.0220 -0.9425
 4792TIP3   OH235790   3.217   4.210  13.354  0.0288 -0.8996 -0.3347
 4792TIP3    H135791   3.222   4.249  13.267 -1.2108 -0.5479 -0.2707
 4792TIP3    H235792   3.123   4.199  13.370  0.0014  1.5706  2.0227
 4793TIP3   OH235793   2.499   1.777  14.334 -0.5242  0.6229  0.0716
 4793TIP3    H135794   2.438   1.726  14.387  0.2773  1.3868  1.7943
 4793TIP3    H235795   2.467   1.767  14.244 -1.8854 -0.7649  0.6737
 4794TIP3   OH235796   2.753   3.743   2.610  0.0414  0.8558 -0.5707
 4794TIP3    H135797   2.809   3.760   2.534  1.5534  1.3577  0.6306
 4794TIP3    H235798   2.799   3.782   2.684 -0.9497 -0.4227  0.7720
 4795TIP3   OH235799   0.357   5.747  15.765  0.3542  0.0019 -0.2856
 4795TIP3    H135800   0.346   5.658  15.798  0.8395 -0.2635 -0.8209
 4795TIP3    H235801   0.450   5.767  15.778  0.4692  0.0419 -1.0973
 4796TIP3   OH235802   0.686   1.749   0.560  0.3696 -0.2218 -0.0079
 4796TIP3    H135803   0.756   1.721   0.620  0.5258 -1.6163 -0.8042
 4796TIP3    H235804   0.731   1.795   0.490  0.2916  0.4628  0.3804
 4797TIP3   OH235805   0.367   0.917  14.195  0.1695 -0.3013  0.0057
 4797TIP3    H135806   0.409   0.892  14.112  1.3676  0.8518  0.2255
 4797TIP3    H235807   0.342   1.009  14.183 -0.4052 -0.3683  0.6285
 4798TIP3   OH235808   6.589   0.345   3.820 -0.2176  0.0153  0.6080
 4798TIP3    H135809   6.501   0.381   3.804  0.5268  1.4353 -0.4718
 4798TIP3    H235810   6.614   0.303   3.738  0.1940 -0.2214  0.8499
 4799TIP3   OH235811   6.047   3.892  13.133  0.4570 -0.7290  0.9250
 4799TIP3    H135812   5.954   3.914  13.131  0.4096 -0.8998 -1.1960
 4799TIP3    H235813   6.084   3.950  13.200 -0.9320  0.4288  0.7390
 4800TIP3   OH235814   1.495   1.011  15.646 -0.5352 -0.1759 -0.2925
 4800TIP3    H135815   1.484   1.093  15.597  1.1913 -0.1833 -0.7516
 4800TIP3    H235816   1.558   1.032  15.715 -0.3862 -1.0056 -0.1600
 4801TIP3   OH235817   5.625   0.396   4.034 -0.1423  0.7452 -0.2658
 4801TIP3    H135818   5.682   0.464   4.068  0.1008  0.6199 -0.4182
 4801TIP3    H235819   5.614   0.418   3.941  0.3706  0.2800 -0.4397
 4802TIP3   OH235820   1.948   6.432  16.445  0.2199  0.4775 -0.7325
 4802TIP3    H135821   1.917   6.364  16.505 -1.7337  1.2311 -0.7966
 4802TIP3    H235822   2.036   6.453  16.475  0.1271 -0.7345  0.4787
 4803TIP3   OH235823   4.053   1.006  11.224 -0.2538 -0.1660  0.4069
 4803TIP3    H135824   4.008   0.996  11.308 -1.5914  3.0933  0.2006
 4803TIP3    H235825   4.113   0.931  11.221  0.3934 -0.0773  4.5929
 4804TIP3   OH235826   1.303   1.140  15.831 -0.1739 -0.5592 -0.4482
 4804TIP3    H135827   1.372   1.148  15.897  0.8138 -1.3699 -1.3479
 4804TIP3    H235828   1.345   1.096  15.757 -1.2034  0.4444 -1.6957
 4805TIP3   OH235829   3.005   5.527  14.031  0.4656 -0.1575 -0.4501
 4805TIP3    H135830   2.986   5.593  13.964 -0.6900  0.6604  0.6227
 4805TIP3    H235831   3.078   5.476  13.995  0.2722  0.6298 -2.0465
 4806TIP3   OH235832   2.499   3.411  15.379  0.1179  0.0456  0.6181
 4806TIP3    H135833   2.531   3.497  15.353  0.6253  0.0400  1.1949
 4806TIP3    H235834   2.554   3.386  15.453 -0.3437 -0.5625  0.7688
 4807TIP3   OH235835   6.548   0.848  13.126 -0.7262  0.4596  0.5824
 4807TIP3    H135836   6.626   0.819  13.079  0.2632  1.5835  1.4602
 4807TIP3    H235837   6.481   0.858  13.057  0.6426  1.9596 -0.6388
 4808TIP3   OH235838   0.584   2.894  15.234  0.3141 -0.1943 -0.1413
 4808TIP3    H135839   0.493   2.877  15.207  0.3092 -0.8748  0.2906
 4808TIP3    H235840   0.628   2.810  15.225  1.0034  0.2271 -0.7226
 4809TIP3   OH235841   4.560   2.192  14.427  0.2282 -0.0281 -0.6353
 4809TIP3    H135842   4.649   2.201  14.461 -0.0190 -1.5302  0.4938
 4809TIP3    H235843   4.570   2.137  14.349  0.3131  0.0606 -0.6882
 4810TIP3   OH235844   1.263   5.794   2.358 -0.6032  0.5983  0.1259
 4810TIP3    H135845   1.350   5.799   2.318 -1.1890 -1.0076 -1.5109
 4810TIP3    H235846   1.270   5.724   2.423 -0.4484  1.0707  0.6183
 4811TIP3   OH235847   3.064   3.162  13.544  0.6345 -0.4664 -0.2403
 4811TIP3    H135848   3.053   3.247  13.586 -1.0048 -0.7229 -0.0817
 4811TIP3    H235849   3.102   3.107  13.612 -0.6628 -0.4993  0.5014
 4812TIP3   OH235850   6.084   2.534  12.785 -0.4047 -0.4548  0.3243
 4812TIP3    H135851   6.050   2.463  12.839  0.7032 -1.0611  0.2594
 4812TIP3    H235852   6.040   2.523  12.701 -1.4790 -0.0436  0.8228
 4813TIP3   OH235853   2.198   3.915  12.188 -0.2966 -0.1390  0.4548
 4813TIP3    H135854   2.251   3.836  12.184  1.3655  0.9230  0.2573
 4813TIP3    H235855   2.193   3.946  12.097 -1.0265 -0.0759  0.5113
 4814TIP3   OH235856   6.633   0.684   4.767  0.2255 -0.2548 -0.5609
 4814TIP3    H135857   6.706   0.666   4.707  1.2689 -1.9497  1.0988
 4814TIP3    H235858   6.587   0.600   4.774  0.3506 -0.2168  1.2345
 4815TIP3   OH235859   3.396   0.564   6.261  0.8193 -0.1143 -0.4694
 4815TIP3    H135860   3.399   0.486   6.204 -0.4889 -0.0594 -0.6500
 4815TIP3    H235861   3.358   0.532   6.343 -0.6989  0.5074 -0.8957
 4816TIP3   OH235862   3.495   0.840   1.814 -0.3101  0.0211  0.1867
 4816TIP3    H135863   3.426   0.774   1.814 -0.2108 -0.0842  0.2428
 4816TIP3    H235864   3.572   0.795   1.779 -0.3211  0.1935 -0.0637
 4817TIP3   OH235865   3.382   6.404  13.577 -0.4408  0.0330 -0.4731
 4817TIP3    H135866   3.298   6.391  13.531 -0.8016 -1.3650  0.5217
 4817TIP3    H235867   3.404   6.317  13.611 -0.3892  1.0656  2.3198
 4818TIP3   OH235868   2.508   3.360  15.066  0.0707  0.0365 -0.1236
 4818TIP3    H135869   2.465   3.367  15.151  0.4858  1.9818 -0.0301
 4818TIP3    H235870   2.496   3.268  15.041 -0.1482 -0.5624  1.9630
 4819TIP3   OH235871   5.424   1.248   2.373 -0.1256 -0.4156  0.1605
 4819TIP3    H135872   5.370   1.208   2.441 -0.5093  1.5063  1.0691
 4819TIP3    H235873   5.500   1.282   2.420 -0.4793  1.1037 -0.3002
 4820TIP3   OH235874   2.012   6.304   2.478 -0.2915 -0.0137 -0.0182
 4820TIP3    H135875   1.991   6.353   2.398 -0.7317  0.4656  0.3884
 4820TIP3    H235876   2.096   6.262   2.458 -1.0788 -1.0758 -1.2644
 4821TIP3   OH235877   4.853   0.464  16.033 -0.1336  0.8072  0.0586
 4821TIP3    H135878   4.772   0.414  16.038 -0.3107  0.5592 -3.1705
 4821TIP3    H235879   4.916   0.413  16.084 -1.2254 -0.7458 -0.0814
 4822TIP3   OH235880   3.021   1.977   3.582  0.2310 -0.6374  0.2346
 4822TIP3    H135881   3.013   2.055   3.526  1.9228  0.2508  1.1386
 4822TIP3    H235882   3.115   1.959   3.583  0.1028 -1.3368  1.8583
 4823TIP3   OH235883   2.107   6.253  14.663  0.2582  0.0848 -0.2325
 4823TIP3    H135884   2.033   6.289  14.711  0.3213 -0.0442 -0.0393
 4823TIP3    H235885   2.143   6.328  14.615  0.1588  0.2005 -0.1272
 4824TIP3   OH235886   4.795   0.344  13.635 -0.1587 -0.2814 -0.3295
 4824TIP3    H135887   4.808   0.437  13.653 -1.2298 -0.0767 -0.5506
 4824TIP3    H235888   4.883   0.306  13.642  0.1853  0.6120  0.5007
 4825TIP3   OH235889   0.432   1.397  15.648  0.3661 -0.1311  0.2389
 4825TIP3    H135890   0.392   1.482  15.665  1.0325  0.6529 -1.8168
 4825TIP3    H235891   0.375   1.356  15.583  0.9726 -0.4828 -0.0869
 4826TIP3   OH235892   1.532   5.914  13.095  0.0478 -0.2954  0.3885
 4826TIP3    H135893   1.475   5.894  13.169 -0.3967  1.5646  0.5872
 4826TIP3    H235894   1.566   5.828  13.067 -1.6640 -1.2799  1.1896
 4827TIP3   OH235895   2.782   3.298  11.281 -0.0770 -0.0378 -0.0499
 4827TIP3    H135896   2.871   3.329  11.265 -0.2642  0.9133  0.6897
 4827TIP3    H235897   2.756   3.256  11.198  0.7976  0.2783 -0.4967
 4828TIP3   OH235898   5.038   3.167   5.619 -0.2570  0.5537  0.0697
 4828TIP3    H135899   4.972   3.202   5.560 -0.8093 -0.0152  0.3343
 4828TIP3    H235900   5.115   3.223   5.606  0.3366 -0.7042 -2.6267
 4829TIP3   OH235901   2.176   0.473  13.521 -0.1479 -0.6617 -0.2357
 4829TIP3    H135902   2.220   0.458  13.604 -1.7563 -0.4767  0.6875
 4829TIP3    H235903   2.238   0.442  13.455  1.4015 -0.2377  0.9797
 4830TIP3   OH235904   5.508   5.316  15.109 -0.1210  0.2476 -0.5770
 4830TIP3    H135905   5.548   5.398  15.082 -1.1133  1.5620  1.6434
 4830TIP3    H235906   5.556   5.290  15.187 -1.0666 -0.2291 -0.1342
 4831TIP3   OH235907   3.935   4.882  16.743 -0.5187  0.0860  0.0904
 4831TIP3    H135908   3.992   4.824  16.692 -1.0663  0.6214 -1.1725
 4831TIP3    H235909   3.901   4.944  16.679 -1.8121  0.3395  0.9863
 4832TIP3   OH235910   3.702   4.456   5.294 -0.1945 -0.1941  0.4816
 4832TIP3    H135911   3.718   4.401   5.218  0.8731 -0.1660  0.6703
 4832TIP3    H235912   3.607   4.457   5.303 -0.2751 -1.2689 -0.0645
 4833TIP3   OH235913   3.734   1.327  16.256 -0.6708  0.7060 -0.8868
 4833TIP3    H135914   3.759   1.235  16.259 -1.0573  0.5963 -0.9056
 4833TIP3    H235915   3.656   1.332  16.312  0.7124  1.4739  1.0677
 4834TIP3   OH235916   3.989   0.039  13.953  0.5493  0.0347  0.1203
 4834TIP3    H135917   3.898   0.018  13.929  0.9793 -0.1490 -1.4968
 4834TIP3    H235918   3.986   0.054  14.047 -0.7986 -2.0396  0.4889
 4835TIP3   OH235919   0.381   0.176   2.618  0.5385  0.0863 -1.1142
 4835TIP3    H135920   0.315   0.180   2.549 -1.0970 -0.3698  0.3581
 4835TIP3    H235921   0.404   0.083   2.623  0.2206  0.0293 -0.6663
 4836TIP3   OH235922   1.688   0.626   4.044  0.4903 -0.1679  0.8421
 4836TIP3    H135923   1.599   0.644   4.074  1.5896  0.7390  4.0049
 4836TIP3    H235924   1.710   0.701   3.989 -1.5991 -1.8479 -2.6005
 4837TIP3   OH235925   1.194   4.683   5.643 -0.1543 -0.0732  0.1612
 4837TIP3    H135926   1.121   4.686   5.705 -0.5518  0.2393 -0.3153
 4837TIP3    H235927   1.257   4.623   5.683 -0.2369  0.4049  1.0495
 4838TIP3   OH235928   0.439   1.303   5.843  0.3306 -0.1754 -0.1458
 4838TIP3    H135929   0.419   1.392   5.813  1.9742  1.1141  2.2857
 4838TIP3    H235930   0.354   1.265   5.864 -0.2718  2.3745  2.7218
 4839TIP3   OH235931   0.108   4.608  15.790  1.0507 -0.5343  0.0929
 4839TIP3    H135932   0.118   4.616  15.695  1.6102  0.0093  0.1880
 4839TIP3    H235933   0.022   4.647  15.808  1.1294 -0.2447 -0.1445
 4840TIP3   OH235934   1.984   2.318  10.914 -0.1572  0.3501 -0.2768
 4840TIP3    H135935   2.050   2.253  10.890 -0.2220  0.3931 -0.5820
 4840TIP3    H235936   1.951   2.351  10.830 -0.3322  0.5663 -0.1261
 4841TIP3   OH235937   1.895   2.222   2.086  0.0608 -0.2235  0.0263
 4841TIP3    H135938   1.813   2.238   2.039 -1.3619  1.2154  2.7435
 4841TIP3    H235939   1.948   2.171   2.025 -3.1630 -2.0018 -1.5378
 4842TIP3   OH235940   3.414   3.598  12.371 -0.0344  0.8964  0.8155
 4842TIP3    H135941   3.389   3.673  12.317 -2.9832 -0.4613  0.1213
 4842TIP3    H235942   3.347   3.595  12.439  0.7255 -0.4210  1.5278
 4843TIP3   OH235943   1.136   0.604   2.574 -0.0087  0.0264  0.4030
 4843TIP3    H135944   1.111   0.517   2.604 -1.3196 -0.2396 -1.3278
 4843TIP3    H235945   1.232   0.601   2.571  0.0109 -0.9677  1.4006
 4844TIP3   OH235946   2.604   1.276   1.399 -0.1276  0.1714  0.2759
 4844TIP3    H135947   2.659   1.239   1.468 -0.7518 -1.4574 -0.0482
 4844TIP3    H235948   2.631   1.231   1.320 -2.2239 -1.0679  0.1997
 4845TIP3   OH235949   6.768   6.472   5.532  0.2268  0.5772  0.0307
 4845TIP3    H135950   6.795   6.421   5.608  0.0687 -0.5586 -0.6609
 4845TIP3    H235951   6.707   6.415   5.485  0.7095  1.0609 -1.2142
 4846TIP3   OH235952   2.131   1.017   6.587 -0.4996  0.8073 -0.2775
 4846TIP3    H135953   2.198   1.030   6.520  0.7476 -0.3381  0.6824
 4846TIP3    H235954   2.179   0.980   6.662 -2.4871 -2.0300 -0.2396
 4847TIP3   OH235955   3.603   6.592   2.099 -0.6525 -0.6091  0.3179
 4847TIP3    H135956   3.624   6.549   2.182  0.8431 -1.1131 -0.2917
 4847TIP3    H235957   3.687   6.622   2.066 -0.7943 -2.7467 -2.3075
 4848TIP3   OH235958   2.929   1.392   3.313  0.3265  0.2261 -0.2740
 4848TIP3    H135959   2.892   1.399   3.225 -1.8396  0.1234  0.5792
 4848TIP3    H235960   2.979   1.473   3.324  0.0965  0.5330 -1.3691
 4849TIP3   OH235961   1.582   1.708   0.504 -0.4646  0.3107 -0.6034
 4849TIP3    H135962   1.533   1.788   0.481 -0.3977 -0.4823 -4.0568
 4849TIP3    H235963   1.516   1.648   0.537 -0.9773  0.9294 -0.4932
 4850TIP3   OH235964   0.606   4.147  12.582 -0.1955 -0.4290  0.5598
 4850TIP3    H135965   0.585   4.057  12.557  1.2140 -0.4158 -0.7963
 4850TIP3    H235966   0.558   4.202  12.520  0.7735 -0.3229 -0.1201
 4851TIP3   OH235967   5.670   5.529  14.127  0.7563  0.0442  0.1679
 4851TIP3    H135968   5.714   5.511  14.044 -0.1407 -1.5857 -0.0007
 4851TIP3    H235969   5.596   5.584  14.104 -0.5099 -1.8106 -0.4456
 4852TIP3   OH235970   2.477   2.040   3.168  0.2019 -0.1597  0.1971
 4852TIP3    H135971   2.386   2.017   3.149  0.4880 -1.9301  0.7339
 4852TIP3    H235972   2.514   2.066   3.084 -0.3347 -1.1839 -0.3729
 4853TIP3   OH235973   2.870   5.382  15.099 -0.4483  0.5260 -0.8620
 4853TIP3    H135974   2.865   5.290  15.072 -2.4522  0.6565 -1.0628
 4853TIP3    H235975   2.929   5.422  15.036  0.3233 -0.5745 -0.8732
 4854TIP3   OH235976   0.147   5.212   0.410  0.1781  0.3259  0.2166
 4854TIP3    H135977   0.209   5.265   0.360  0.9969 -0.1101  0.7526
 4854TIP3    H235978   0.093   5.170   0.342  0.2738  0.9291 -0.2449
 4855TIP3   OH235979   6.609   1.973   2.912  0.4412  0.3739  0.8852
 4855TIP3    H135980   6.544   1.985   2.981  0.2666  1.6355  0.5348
 4855TIP3    H235981   6.614   2.059   2.869  0.2905 -0.4616 -0.8960
 4856TIP3   OH235982   6.507   4.839   3.411 -0.3916 -0.0596 -0.7117
 4856TIP3    H135983   6.451   4.909   3.445 -2.3454 -0.6691 -2.4449
 4856TIP3    H235984   6.480   4.761   3.460  0.4720  0.0241 -0.0798
 4857TIP3   OH235985   4.198   3.854  16.849  0.5795 -0.3020  0.1026
 4857TIP3    H135986   4.240   3.807  16.921  1.3190  1.0577  0.6065
 4857TIP3    H235987   4.111   3.814  16.842  1.2465 -1.8495  0.3528
 4858TIP3   OH235988   5.010   2.920   4.902  0.2069 -0.2519  0.7683
 4858TIP3    H135989   5.022   2.839   4.951 -1.2734 -1.3792 -0.6405
 4858TIP3    H235990   5.096   2.962   4.903  0.5446 -0.8961  3.0985
 4859TIP3   OH235991   4.477   6.198   4.162 -0.4311 -0.2878  0.0702
 4859TIP3    H135992   4.461   6.216   4.069 -0.9526  0.2924  0.2625
 4859TIP3    H235993   4.570   6.179   4.167 -0.2492  0.4045 -0.4725
 4860TIP3   OH235994   3.335   2.516   1.330 -0.2259 -0.2600 -0.6946
 4860TIP3    H135995   3.277   2.441   1.340  0.3996 -0.8439 -1.3336
 4860TIP3    H235996   3.420   2.478   1.308  1.2927  0.3614  3.2311
 4861TIP3   OH235997   5.611   2.252  12.213 -0.1426 -0.2999 -0.7476
 4861TIP3    H135998   5.580   2.165  12.238 -1.0695  0.2062 -0.0804
 4861TIP3    H235999   5.601   2.305  12.292 -0.4733  0.6501 -1.4078
 4862TIP3   OH236000   4.395   3.513  16.544 -0.2193 -0.2183 -0.1894
 4862TIP3    H136001   4.394   3.451  16.618  2.5534  0.4539  0.5197
 4862TIP3    H236002   4.437   3.464  16.473  1.2948  0.5522  0.1416
 4863TIP3   OH236003   4.231   6.066   2.484  0.7374  0.4772 -0.0347
 4863TIP3    H136004   4.279   5.992   2.447  0.7510  1.6266 -2.5823
 4863TIP3    H236005   4.143   6.032   2.502  1.2039 -0.5371  0.3363
 4864TIP3   OH236006   4.080   2.725   2.320 -0.3472  0.2318 -0.1924
 4864TIP3    H136007   4.091   2.758   2.231  0.8566  0.8420  0.1659
 4864TIP3    H236008   4.124   2.640   2.320  0.2027  0.5165 -0.0142
 4865TIP3   OH236009   5.966   1.475  12.297  0.1123 -0.0617  0.0214
 4865TIP3    H136010   5.908   1.544  12.265  0.6700  0.1769 -0.5004
 4865TIP3    H236011   5.929   1.394  12.263 -0.9613 -0.1114  1.2409
 4866TIP3   OH236012   1.486   2.042   1.570 -0.5067  0.2509 -0.2843
 4866TIP3    H136013   1.485   2.111   1.504  0.0654 -0.4467 -1.0373
 4866TIP3    H236014   1.463   2.087   1.652 -1.0320  1.1561 -0.9173
 4867TIP3   OH236015   0.977   1.867   2.515 -0.0143  0.1187 -0.4176
 4867TIP3    H136016   0.938   1.795   2.465 -1.1301 -0.5482  1.3395
 4867TIP3    H236017   1.059   1.831   2.549 -1.3246 -0.9458  1.7944
 4868TIP3   OH236018   1.194   5.299   3.937 -0.0631  0.2574  0.3016
 4868TIP3    H136019   1.286   5.274   3.933 -0.2403 -0.5752  1.1201
 4868TIP3    H236020   1.156   5.241   4.003 -1.3190  0.1505 -0.4793
 4869TIP3   OH236021   4.450   2.016   4.244  0.2298 -0.3287  0.0097
 4869TIP3    H136022   4.474   2.054   4.329 -0.4203 -0.8131  0.4251
 4869TIP3    H236023   4.526   1.963   4.219  1.3633  1.6096 -0.8369
 4870TIP3   OH236024   1.736   1.424  13.275 -0.1836  0.0245 -0.2286
 4870TIP3    H136025   1.771   1.468  13.198 -1.4838  2.2681  0.3777
 4870TIP3    H236026   1.643   1.444  13.274 -0.3571 -0.5206  1.5513
 4871TIP3   OH236027   3.148   4.750  15.101 -0.5081  0.2276 -0.3900
 4871TIP3    H136028   3.159   4.751  15.006  2.2871  0.0332 -0.1653
 4871TIP3    H236029   3.214   4.811  15.133 -0.8819 -0.2820  1.4671
 4872TIP3   OH236030   3.061   0.491   5.834  0.0724 -0.6327 -0.3991
 4872TIP3    H136031   3.033   0.408   5.796  0.9372 -0.9438 -0.3980
 4872TIP3    H236032   3.025   0.490   5.922  0.9511 -1.5083 -0.0271
 4873TIP3   OH236033   4.348   6.283  16.886  0.6600  0.0796  0.2247
 4873TIP3    H136034   4.395   6.313  16.964 -0.5899  0.4870  0.8526
 4873TIP3    H236035   4.347   6.188  16.894  1.0933  0.0841  0.3702
 4874TIP3   OH236036   3.477   3.254   1.734 -0.2739 -0.4845  0.1459
 4874TIP3    H136037   3.474   3.159   1.722  1.7413 -0.4120 -1.4993
 4874TIP3    H236038   3.395   3.285   1.695 -1.3980 -1.5765  1.5432
 4875TIP3   OH236039   1.354   1.155  16.856  0.4930 -0.0887 -0.1821
 4875TIP3    H136040   1.387   1.226  16.911  0.6369  0.7831 -1.3536
 4875TIP3    H236041   1.383   1.075  16.900  2.2487  0.6166  0.0319
 4876TIP3   OH236042   6.105   2.959   4.669 -0.1268  0.8073  0.1553
 4876TIP3    H136043   6.103   2.945   4.764 -0.3019  1.4433  0.2500
 4876TIP3    H236044   6.051   2.888   4.633  0.4675  0.1868  0.4778
 4877TIP3   OH236045   6.266   5.556   1.822 -0.2822  0.0602 -0.2535
 4877TIP3    H136046   6.207   5.499   1.773 -0.1856  0.2061 -0.5462
 4877TIP3    H236047   6.278   5.632   1.765 -1.6413  1.1028  0.7664
 4878TIP3   OH236048   1.835   6.160  12.550 -0.2502 -0.4765 -0.6047
 4878TIP3    H136049   1.916   6.153  12.601 -0.7766 -1.8266  0.1084
 4878TIP3    H236050   1.839   6.087  12.488 -1.3409 -1.1803  0.1081
 4879TIP3   OH236051   3.077   5.189  14.803  0.0031  0.5309  0.1520
 4879TIP3    H136052   3.129   5.118  14.766  1.6308  1.0201  1.3986
 4879TIP3    H236053   3.006   5.145  14.850  1.0573 -0.2889  1.0127
 4880TIP3   OH236054   3.367   4.819  13.106  0.1340  0.3827  0.4911
 4880TIP3    H136055   3.399   4.736  13.071  0.8604  1.1476 -0.7700
 4880TIP3    H236056   3.316   4.857  13.035  0.5646  1.4149  0.7117
 4881TIP3   OH236057   1.803   3.027  11.352  0.3528  0.7156 -0.1960
 4881TIP3    H136058   1.805   2.989  11.264  0.3483 -2.0251  0.8994
 4881TIP3    H236059   1.729   3.087  11.350 -1.3377 -1.2657 -1.3580
 4882TIP3   OH236060   5.205   2.007  10.900  0.3773  0.0566 -0.4489
 4882TIP3    H136061   5.252   1.936  10.855 -0.5466 -0.6543 -0.3284
 4882TIP3    H236062   5.167   2.059  10.830  0.2132 -0.1631 -0.5251
 4883TIP3   OH236063   2.365   4.094  15.798 -0.0610 -0.0664  0.4880
 4883TIP3    H136064   2.437   4.151  15.769  0.1580 -1.2343 -1.4773
 4883TIP3    H236065   2.294   4.154  15.818  0.6137  0.9856 -0.1408
 4884TIP3   OH236066   6.005   6.470   3.580 -0.4011 -0.8316 -0.1274
 4884TIP3    H136067   6.043   6.479   3.493 -4.4256 -1.3086 -2.1449
 4884TIP3    H236068   5.939   6.540   3.586 -0.6570 -1.1727  2.3353
 4885TIP3   OH236069   4.602   6.408  11.380  0.1457 -0.2683 -0.2251
 4885TIP3    H136070   4.622   6.497  11.412  0.2740 -0.6576  0.8192
 4885TIP3    H236071   4.590   6.357  11.460 -1.3567 -0.8811 -0.8195
 4886TIP3   OH236072   6.737   5.488  11.744  0.4641 -0.5850 -0.4897
 4886TIP3    H136073   6.706   5.430  11.814 -0.7462  0.1984 -0.3467
 4886TIP3    H236074   6.709   5.445  11.663  1.0163 -1.0147 -0.4535
 4887TIP3   OH236075   4.768   0.493   2.581  0.5579  0.0297 -0.4038
 4887TIP3    H136076   4.835   0.427   2.567  1.2477  0.7275 -0.4713
 4887TIP3    H236077   4.743   0.522   2.493 -2.6602 -2.8990 -0.6871
 4888TIP3   OH236078   1.177   4.225   3.065  0.0303  0.4758 -0.2567
 4888TIP3    H136079   1.106   4.290   3.065  1.3599  2.0118  0.9632
 4888TIP3    H236080   1.133   4.141   3.060 -1.7782  1.4437 -1.9258
 4889TIP3   OH236081   4.761   6.175  12.476  0.8378 -0.2521 -0.1381
 4889TIP3    H136082   4.688   6.215  12.429  0.7234  0.6190  0.7375
 4889TIP3    H236083   4.733   6.176  12.568  1.5276 -0.8564  0.0879
 4890TIP3   OH236084   1.917   6.562  14.509  0.1887 -0.1806  0.3110
 4890TIP3    H136085   1.975   6.536  14.437  0.3691  1.3235 -0.1404
 4890TIP3    H236086   1.833   6.579  14.466  0.0428 -0.1828  0.5976
 4891TIP3   OH236087   1.688   1.997  15.384  0.3546 -0.7765  0.3026
 4891TIP3    H136088   1.761   2.050  15.353  0.1141 -0.2677  0.5843
 4891TIP3    H236089   1.685   1.922  15.325 -0.0481  0.1318 -0.8555
 4892TIP3   OH236090   1.090   0.377  14.141 -0.3720  0.6792  0.0023
 4892TIP3    H136091   1.077   0.324  14.062  1.4985  0.2177 -0.0544
 4892TIP3    H236092   1.005   0.416  14.159 -0.9754  0.3388 -1.9212
 4893TIP3   OH236093   1.789   6.765  15.140  0.4914  0.1006  0.0400
 4893TIP3    H136094   1.866   6.781  15.085  1.6216  0.9908  1.7899
 4893TIP3    H236095   1.774   6.849  15.184 -3.2140  0.8675 -2.2297
 4894TIP3   OH236096   2.126   3.636   2.442  0.1889 -0.1590 -0.6715
 4894TIP3    H136097   2.076   3.708   2.479  0.9592  0.7232 -1.2997
 4894TIP3    H236098   2.171   3.674   2.366 -0.3453 -1.5798 -1.7699
 4895TIP3   OH236099   6.467   0.663   3.282  0.4615 -0.1707  0.4905
 4895TIP3    H136100   6.524   0.644   3.356  0.3388  0.8728  0.8690
 4895TIP3    H236101   6.526   0.689   3.211  0.6235 -1.7770 -0.0044
 4896TIP3   OH236102   5.093   5.998   4.222  0.6777  0.0196 -0.1857
 4896TIP3    H136103   5.060   5.964   4.139  0.0770 -1.3176  0.5756
 4896TIP3    H236104   5.113   6.090   4.204 -0.0299 -0.0876 -1.6365
 4897TIP3   OH236105   1.812   3.584   2.823 -0.5739 -0.8558  0.0874
 4897TIP3    H136106   1.763   3.647   2.877 -1.6105 -0.7845 -0.9158
 4897TIP3    H236107   1.771   3.588   2.737  3.7799  2.4826 -2.2808
 4898TIP3   OH236108   4.002   3.167  14.224 -0.3827 -0.1327 -0.1141
 4898TIP3    H136109   3.990   3.132  14.136 -0.0032  0.1247 -0.2688
 4898TIP3    H236110   3.947   3.246  14.226  0.3100  0.3682 -0.4235
 4899TIP3   OH236111   5.516   1.959  12.322  0.1441  0.3189  0.2648
 4899TIP3    H136112   5.465   1.925  12.249  0.1282 -0.7237  0.7331
 4899TIP3    H236113   5.606   1.931  12.303  0.1544  0.1215  0.5859
 4900TIP3   OH236114   1.678   3.788   4.976  0.3007  0.3162  0.0005
 4900TIP3    H136115   1.760   3.793   4.927  0.2588 -0.3799 -0.1479
 4900TIP3    H236116   1.686   3.708   5.028  0.4490  1.1595  1.3349
 4901TIP3   OH236117   2.981   3.768  15.132 -0.1097  0.1708 -0.2881
 4901TIP3    H136118   3.024   3.723  15.060 -1.1167 -3.4504  1.1559
 4901TIP3    H236119   3.048   3.777  15.199 -0.0141  0.4208 -0.4179
 4902TIP3   OH236120   1.043   4.813  15.455 -0.2940 -0.0027  0.2690
 4902TIP3    H136121   1.071   4.733  15.499  0.7116 -0.4660 -1.1426
 4902TIP3    H236122   1.031   4.876  15.526 -2.9228 -1.8325  1.6219
 4903TIP3   OH236123   3.323   5.691   3.951  0.1024 -0.4382 -0.5318
 4903TIP3    H136124   3.292   5.781   3.964  0.0815 -0.5749  0.4731
 4903TIP3    H236125   3.284   5.642   4.023  0.6934 -1.1086 -0.6551
 4904TIP3   OH236126   0.597   1.027   4.031 -0.1443  0.7319  0.1637
 4904TIP3    H136127   0.513   0.987   4.054 -0.1816  0.3530 -0.6027
 4904TIP3    H236128   0.615   0.995   3.942  1.3288 -0.0580  0.7237
 4905TIP3   OH236129   4.384   3.858  15.541  0.0217  0.0003 -0.2689
 4905TIP3    H136130   4.466   3.839  15.496  0.9283 -0.1302  1.3357
 4905TIP3    H236131   4.316   3.823  15.484  0.8772  2.0577 -2.7124
 4906TIP3   OH236132   3.883   0.570  10.762 -0.0246  0.1274  0.2798
 4906TIP3    H136133   3.849   0.638  10.704  0.6261 -0.1985 -0.5014
 4906TIP3    H236134   3.962   0.609  10.800  1.1086 -0.6442 -1.1982
 4907TIP3   OH236135   3.321   4.180   5.592 -0.1798 -0.5084 -0.5555
 4907TIP3    H136136   3.323   4.137   5.678  0.6404 -0.8074 -0.7168
 4907TIP3    H236137   3.365   4.263   5.606  0.4573 -0.7994 -0.8089
 4908TIP3   OH236138   0.884   2.123  15.057 -0.5941  0.4387  1.0726
 4908TIP3    H136139   0.955   2.178  15.088 -0.8214  0.1331  2.1648
 4908TIP3    H236140   0.804   2.164  15.091 -0.8532  0.1035  0.8811
 4909TIP3   OH236141   0.078   0.336  12.852  0.5550  0.4535  0.1512
 4909TIP3    H136142   0.097   0.427  12.830  0.7767  0.5129  0.5842
 4909TIP3    H236143   0.084   0.289  12.768 -2.0716  1.2273 -0.5608
 4910TIP3   OH236144   6.510   2.370  17.245 -0.2170 -0.2651 -0.4622
 4910TIP3    H136145   6.552   2.382  17.330 -0.8808 -0.3733 -0.1064
 4910TIP3    H236146   6.475   2.457  17.223  1.5326  0.2223 -1.5165
 4911TIP3   OH236147   1.197   2.996   1.208  1.0386  0.5524  0.1217
 4911TIP3    H136148   1.149   3.062   1.259  1.3000 -0.6088  1.9604
 4911TIP3    H236149   1.206   2.921   1.268  1.5846 -0.7970 -1.5734
 4912TIP3   OH236150   2.308   5.728  12.297  0.2442  0.2831 -0.3562
 4912TIP3    H136151   2.261   5.765  12.222  2.2342  2.3956 -0.6623
 4912TIP3    H236152   2.297   5.793  12.366  1.4968  0.1254  0.0065
 4913TIP3   OH236153   6.757   1.719  15.528 -0.1494 -0.0375  0.2377
 4913TIP3    H136154   6.689   1.698  15.593 -0.1212  0.0575  0.2972
 4913TIP3    H236155   6.824   1.766  15.578 -0.3057  0.3753  0.0568
 4914TIP3   OH236156   0.099   3.540   1.659  0.2811  0.5715  0.2377
 4914TIP3    H136157   0.017   3.537   1.708 -0.2294 -0.3005 -0.6431
 4914TIP3    H236158   0.128   3.449   1.654  1.7087  0.9433  1.1728
 4915TIP3   OH236159   1.678   3.766   3.077  0.6799  0.5586  0.5076
 4915TIP3    H136160   1.665   3.860   3.065 -0.9217  0.2898 -0.1285
 4915TIP3    H236161   1.602   3.738   3.128  0.0795 -0.6919 -0.9839
 4916TIP3   OH236162   0.888   6.479  16.447  0.0999 -0.1866  0.0671
 4916TIP3    H136163   0.828   6.538  16.493  0.8145  0.0056  0.7641
 4916TIP3    H236164   0.852   6.473  16.358 -1.1059 -0.3043  0.5494
 4917TIP3   OH236165   0.764   2.281  12.408 -0.0245 -0.1019 -0.4990
 4917TIP3    H136166   0.808   2.224  12.345 -0.2520  0.4430 -1.1595
 4917TIP3    H236167   0.780   2.370  12.376 -0.2734  0.1765  0.1286
 4918TIP3   OH236168   5.056   0.493  11.290  0.0089 -0.1822 -0.3505
 4918TIP3    H136169   5.128   0.525  11.236  0.4897 -2.4487 -1.1419
 4918TIP3    H236170   5.053   0.399  11.274 -2.2313 -0.3763  0.7657
 4919TIP3   OH236171   0.742   6.664   2.952  0.0228  0.3485  0.2281
 4919TIP3    H136172   0.654   6.691   2.926 -0.7724 -2.2768 -0.1296
 4919TIP3    H236173   0.733   6.572   2.975  2.8896 -0.3676 -1.0094
 4920TIP3   OH236174   5.129   1.830   5.545 -0.2737  0.2583 -0.0465
 4920TIP3    H136175   5.135   1.912   5.594 -2.7575 -0.1048  1.0129
 4920TIP3    H236176   5.206   1.780   5.572 -0.3031  1.0636  1.6588
 4921TIP3   OH236177   4.410   3.358   0.122 -0.2310  0.3251  0.2848
 4921TIP3    H136178   4.367   3.324   0.043  0.7611  0.5283 -0.3587
 4921TIP3    H236179   4.503   3.339   0.109  0.1900  2.0673  0.5197
 4922TIP3   OH236180   0.597   4.393   0.437  0.1941 -0.1357 -0.0859
 4922TIP3    H136181   0.674   4.337   0.434 -0.5854 -1.2017 -0.5069
 4922TIP3    H236182   0.579   4.404   0.531 -0.1824 -1.3578 -0.0024
 4923TIP3   OH236183   1.602   6.077  11.894 -0.1046  0.3446  0.1474
 4923TIP3    H136184   1.556   6.071  11.978  0.0109  0.8029  0.2469
 4923TIP3    H236185   1.685   6.032  11.909 -1.0652 -1.7774 -0.4520
 4924TIP3   OH236186   4.480   5.345  13.135 -0.6209  0.6829 -0.0153
 4924TIP3    H136187   4.425   5.420  13.159 -0.8894  0.0479  1.5238
 4924TIP3    H236188   4.569   5.374  13.155 -0.8622  0.0641  2.2569
 4925TIP3   OH236189   1.129   4.890   2.177 -0.5525  0.0596 -0.5022
 4925TIP3    H136190   1.218   4.911   2.149 -0.7288  0.1601 -0.9965
 4925TIP3    H236191   1.141   4.832   2.253 -0.0676  0.5504 -0.1904
 4926TIP3   OH236192   2.030   2.668  13.370  0.7757 -0.0973 -1.0429
 4926TIP3    H136193   2.055   2.664  13.277  3.2198 -0.8291 -0.4344
 4926TIP3    H236194   2.069   2.589  13.408 -0.3416  0.0908  0.5842
 4927TIP3   OH236195   1.771   5.906  14.184 -0.2376 -0.2667  0.3556
 4927TIP3    H136196   1.812   5.903  14.271 -0.6371 -1.6623  0.5126
 4927TIP3    H236197   1.677   5.904  14.202 -0.3189 -0.7518 -0.1181
 4928TIP3   OH236198   4.388   3.797   3.284 -0.5128 -0.5085 -0.3239
 4928TIP3    H136199   4.347   3.851   3.216  0.6119  0.4535 -0.2742
 4928TIP3    H236200   4.368   3.843   3.366  1.6001  0.6529 -0.3950
 4929TIP3   OH236201   3.742   2.218   5.872  0.7477  0.2910  0.2346
 4929TIP3    H136202   3.680   2.290   5.886 -0.7106 -0.6353 -1.0295
 4929TIP3    H236203   3.740   2.203   5.778  0.2097 -2.0306  0.5488
 4930TIP3   OH236204   3.007   0.890   2.370  0.1286  0.2303  0.2380
 4930TIP3    H136205   3.061   0.937   2.306  0.5301  1.7420  1.6355
 4930TIP3    H236206   3.068   0.865   2.439 -1.0189  2.7558  2.2994
 4931TIP3   OH236207   3.775   0.417  15.490  0.6036  0.6211  0.1536
 4931TIP3    H136208   3.817   0.502  15.479 -0.3692  1.0935 -0.0008
 4931TIP3    H236209   3.706   0.415  15.422  1.1368 -0.6228 -0.3874
 4932TIP3   OH236210   6.538   0.167   5.774 -0.2202 -0.1023 -0.4402
 4932TIP3    H136211   6.620   0.118   5.764  0.2104  0.2509  0.9648
 4932TIP3    H236212   6.481   0.109   5.824 -0.3405  0.1448 -0.2831
 4933TIP3   OH236213   2.415   1.449   1.174 -0.5741  0.5866 -0.1393
 4933TIP3    H136214   2.445   1.486   1.091 -2.2324  0.0108 -1.0634
 4933TIP3    H236215   2.414   1.523   1.235 -0.7457  1.3597 -1.0513
 4934TIP3   OH236216   5.636   4.006  14.747  0.2703  0.1640  0.6708
 4934TIP3    H136217   5.706   4.063  14.779  1.2121 -1.4207  1.5962
 4934TIP3    H236218   5.683   3.931  14.709 -0.9227 -0.0198 -0.5032
 4935TIP3   OH236219   6.536   2.692   3.648 -0.0007 -0.0910  0.1173
 4935TIP3    H136220   6.559   2.756   3.715 -1.3428 -0.2317  0.7678
 4935TIP3    H236221   6.444   2.712   3.627 -0.5546 -1.9716  0.5720
 4936TIP3   OH236222   3.617   1.158   2.651 -0.2595 -0.4796  0.0691
 4936TIP3    H136223   3.532   1.123   2.678 -0.5786 -0.9256 -1.3823
 4936TIP3    H236224   3.616   1.151   2.555  0.7845  0.9525 -0.0875
 4937TIP3   OH236225   4.823   3.614   4.340 -0.0861  0.0146 -0.2295
 4937TIP3    H136226   4.880   3.650   4.408  1.7172 -1.9440 -0.5886
 4937TIP3    H236227   4.819   3.521   4.359 -1.3394 -0.2355 -1.5593
 4938TIP3   OH236228   1.865   1.143  12.875  0.0329  0.5702  0.3529
 4938TIP3    H136229   1.778   1.171  12.904 -0.7718 -1.5294  0.1049
 4938TIP3    H236230   1.905   1.106  12.954 -0.3644 -0.8866 -0.0946
 4939TIP3   OH236231   2.014   6.475   4.285  0.0576 -0.2676 -0.5116
 4939TIP3    H136232   2.106   6.464   4.308 -0.3459 -0.1551  1.2532
 4939TIP3    H236233   1.966   6.429   4.354 -1.3216  2.8823  0.8246
 4940TIP3   OH236234   5.881   2.105   1.982  0.0713 -0.1840 -0.3169
 4940TIP3    H136235   5.796   2.148   1.979  0.4976  0.7887  0.7166
 4940TIP3    H236236   5.942   2.168   1.943  0.3640 -0.7703 -0.8285
 4941TIP3   OH236237   3.131   5.451   4.617 -0.4446 -0.5034  0.1269
 4941TIP3    H136238   3.063   5.443   4.684 -0.8593  0.0409 -0.2197
 4941TIP3    H236239   3.156   5.544   4.619 -0.4560 -0.4835 -0.4613
 4942TIP3   OH236240   3.199   2.706  11.627 -0.7606 -0.2635  0.0787
 4942TIP3    H136241   3.133   2.753  11.677  0.5209  0.6959  0.9477
 4942TIP3    H236242   3.196   2.745  11.540 -1.4689 -0.3797  0.0451
 4943TIP3   OH236243   3.513   0.730  16.054 -0.0386 -0.1066 -0.2050
 4943TIP3    H136244   3.461   0.774  16.122 -0.3150 -0.6546 -0.0542
 4943TIP3    H236245   3.545   0.651  16.096  1.9126  0.7786  0.0633
 4944TIP3   OH236246   3.497   4.427  12.680  0.5222  0.3913 -0.4408
 4944TIP3    H136247   3.522   4.519  12.677  0.5829  0.5534  2.2407
 4944TIP3    H236248   3.562   4.387  12.738 -0.6423 -0.9092  0.0094
 4945TIP3   OH236249   1.864   0.953   3.180  0.1904  0.1930 -0.3048
 4945TIP3    H136250   1.818   0.887   3.128 -1.2990  0.3213  0.7945
 4945TIP3    H236251   1.802   0.977   3.249  2.3354 -0.5619  2.0279
 4946TIP3   OH236252   5.695   3.549   3.895  0.4714 -0.2181 -0.3203
 4946TIP3    H136253   5.616   3.562   3.843  0.4755  1.6399  0.0661
 4946TIP3    H236254   5.766   3.583   3.840  0.5776  1.0339  0.5530
 4947TIP3   OH236255   3.022   2.981  14.256  0.5622  0.2210 -0.2183
 4947TIP3    H136256   3.076   3.055  14.229  0.7721  0.0831 -0.1836
 4947TIP3    H236257   2.932   3.007  14.236  0.6626  0.3662 -0.4820
 4948TIP3   OH236258   6.047   6.009  11.219  0.5568  0.0582 -0.4065
 4948TIP3    H136259   6.065   6.023  11.126  2.8730  1.9584  0.2413
 4948TIP3    H236260   5.958   6.041  11.231  0.8259  1.3908 -1.6856
 4949TIP3   OH236261   2.828   5.187  10.885 -0.1154  0.1484  0.4258
 4949TIP3    H136262   2.769   5.115  10.865  0.8553 -0.4217 -0.4454
 4949TIP3    H236263   2.806   5.212  10.974 -0.5598 -1.1333  0.6928
 4950TIP3   OH236264   6.160   1.283  13.788  0.0411  0.4203 -0.0955
 4950TIP3    H136265   6.132   1.193  13.808 -0.4895 -0.0082 -2.3938
 4950TIP3    H236266   6.121   1.301  13.702  1.9912  2.0355 -0.7138
 4951TIP3   OH236267   6.371   3.441  16.561 -0.3614 -0.0219  0.6226
 4951TIP3    H136268   6.426   3.364  16.580 -1.4139 -1.0212 -0.2697
 4951TIP3    H236269   6.412   3.512  16.611  1.1348 -0.9625  0.8063
 4952TIP3   OH236270   1.351   5.339  11.414  0.1215  0.2226  0.0443
 4952TIP3    H136271   1.346   5.385  11.330 -0.4488  2.1912  1.0978
 4952TIP3    H236272   1.389   5.403  11.475 -1.5511 -0.3590  1.7980
 4953TIP3   OH236273   2.221   3.167   1.706  0.4080  0.3928 -0.2362
 4953TIP3    H136274   2.314   3.154   1.726  0.1184  1.1378  1.7753
 4953TIP3    H236275   2.221   3.235   1.638  1.3433  0.0444 -0.6072
 4954TIP3   OH236276   0.755   3.329   1.253  0.1479  0.0904 -0.5498
 4954TIP3    H136277   0.760   3.415   1.296 -0.0115 -0.7935  1.3218
 4954TIP3    H236278   0.843   3.293   1.261  0.0911 -0.1290 -0.8954
 4955TIP3   OH236279   1.961   3.295  14.471 -0.1837 -0.8552  0.2416
 4955TIP3    H136280   1.867   3.287  14.488 -0.2273  1.1335  1.1852
 4955TIP3    H236281   1.966   3.327  14.381 -0.4871  0.3766  0.6519
 4956TIP3   OH236282   0.675   2.561  14.237 -0.3920  0.3778 -0.3404
 4956TIP3    H136283   0.749   2.528  14.289 -0.5194  0.8638  0.1650
 4956TIP3    H236284   0.666   2.652  14.264 -1.6437  0.1295  0.1512
 4957TIP3   OH236285   5.807   5.521   6.055  0.2522 -0.0170  0.2989
 4957TIP3    H136286   5.758   5.603   6.046  0.1650  0.0523  1.3311
 4957TIP3    H236287   5.898   5.550   6.066  0.3569 -0.0995 -0.3186
 4958TIP3   OH236288   6.277   1.199   5.869  0.2594  0.2792  0.0987
 4958TIP3    H136289   6.261   1.218   5.962 -0.1615  1.1379 -0.1442
 4958TIP3    H236290   6.370   1.214   5.857  0.7443 -1.8206  0.8362
 4959TIP3   OH236291   3.376   3.277   0.736  0.1691  0.1187  1.3634
 4959TIP3    H136292   3.351   3.293   0.646  0.5374  2.4338  1.5977
 4959TIP3    H236293   3.402   3.185   0.739  0.4222  0.0773 -0.9353
 4960TIP3   OH236294   4.434   5.567   3.176 -0.4981  0.4216  0.2369
 4960TIP3    H136295   4.370   5.503   3.209 -0.8236  0.3647 -0.4856
 4960TIP3    H236296   4.519   5.526   3.194 -0.6707  0.2932  0.7925
 4961TIP3   OH236297   6.727   4.769  11.451 -0.6193  0.5428 -0.0976
 4961TIP3    H136298   6.792   4.810  11.508 -0.0487  0.7245 -0.8646
 4961TIP3    H236299   6.698   4.692  11.500  2.2202 -1.1580 -0.8426
 4962TIP3   OH236300   1.268   6.296   4.103 -1.1705  0.4688  0.3370
 4962TIP3    H136301   1.254   6.202   4.101 -0.0145  0.3009 -0.6113
 4962TIP3    H236302   1.331   6.313   4.033 -1.5335  1.9742  0.3442
 4963TIP3   OH236303   4.933   2.508   4.333  0.6780  0.5803 -0.5021
 4963TIP3    H136304   4.912   2.424   4.290 -0.1884  1.8782 -2.7877
 4963TIP3    H236305   5.028   2.507   4.344  0.8401 -0.1173 -1.8278
 4964TIP3   OH236306   4.482   1.743   5.510  0.6242 -0.6069 -0.8776
 4964TIP3    H136307   4.489   1.825   5.558 -0.7076 -0.4563 -0.9048
 4964TIP3    H236308   4.433   1.766   5.430 -3.2996 -2.0270  0.8694
 4965TIP3   OH236309   5.172   2.384  16.502 -0.3851  0.0068 -0.1467
 4965TIP3    H136310   5.183   2.338  16.585  3.0550  0.0881 -0.4023
 4965TIP3    H236311   5.186   2.317  16.435  0.6609  0.5925 -0.5507
 4966TIP3   OH236312   5.343   2.313   4.402 -0.3776  0.2775  0.1767
 4966TIP3    H136313   5.283   2.273   4.339 -0.7948 -2.0714  1.9206
 4966TIP3    H236314   5.331   2.262   4.483  0.3026  2.9642  2.1233
 4967TIP3   OH236315   6.327   1.783  16.135 -0.0333  0.4265 -0.1453
 4967TIP3    H136316   6.255   1.750  16.188  0.2447 -0.2054 -0.1465
 4967TIP3    H236317   6.376   1.841  16.194  0.5327 -0.6173  0.4478
 4968TIP3   OH236318   0.413   5.123  15.445 -0.4331 -0.4034 -0.2817
 4968TIP3    H136319   0.410   5.143  15.351  1.8649 -1.4991 -0.6601
 4968TIP3    H236320   0.392   5.029  15.450 -1.1787 -0.2134  0.3986
 4969TIP3   OH236321   1.287   5.758   6.413  0.5324  0.4902 -0.2833
 4969TIP3    H136322   1.263   5.779   6.503 -0.5073  0.7010 -0.5957
 4969TIP3    H236323   1.377   5.790   6.404  0.2684  1.4573  0.3510
 4970TIP3   OH236324   4.588   5.912   4.047 -0.3599 -0.1321 -0.7616
 4970TIP3    H136325   4.660   5.859   4.015  0.0663 -1.1074  1.6291
 4970TIP3    H236326   4.511   5.855   4.042 -0.6339  0.2973 -1.6198
 4971TIP3   OH236327   3.673   6.042   4.286 -0.1075  0.4269 -0.4348
 4971TIP3    H136328   3.703   5.997   4.365  0.7182  0.6210 -0.6296
 4971TIP3    H236329   3.588   6.002   4.266  0.4744 -0.8471 -0.4410
 4972TIP3   OH236330   2.360   1.710  14.089 -0.1791 -0.5729  0.1133
 4972TIP3    H136331   2.308   1.776  14.042  0.8729  0.0812 -0.1644
 4972TIP3    H236332   2.399   1.657  14.019  0.4043 -0.3690  0.2825
 4973TIP3   OH236333   0.795   2.703  16.026 -0.3292  0.1025  0.1030
 4973TIP3    H136334   0.782   2.797  16.025 -0.9273  0.0246 -0.9085
 4973TIP3    H236335   0.793   2.677  15.934 -0.5294 -0.9417  0.3855
 4974TIP3   OH236336   4.245   6.627   2.118  0.0772 -0.8795  0.1956
 4974TIP3    H136337   4.334   6.642   2.148  0.4249 -1.2023 -0.6511
 4974TIP3    H236338   4.200   6.588   2.193  0.4319 -0.0103  0.8752
 4975TIP3   OH236339   6.326   4.202   2.616 -0.2467 -0.1033  0.1023
 4975TIP3    H136340   6.237   4.194   2.582 -0.2675 -1.3444  0.3863
 4975TIP3    H236341   6.321   4.169   2.706  0.9364 -2.5972 -0.6464
 4976TIP3   OH236342   1.324   2.295  13.188  0.3003 -0.1068 -0.0011
 4976TIP3    H136343   1.397   2.286  13.127 -0.3679 -1.0239 -0.6842
 4976TIP3    H236344   1.303   2.388  13.187  1.6119  0.2139  0.3999
 4977TIP3   OH236345   0.585   2.508  16.959  0.2864 -0.4035 -0.3266
 4977TIP3    H136346   0.503   2.554  16.977  0.7366  0.2991 -0.0521
 4977TIP3    H236347   0.645   2.538  17.027  0.3178 -2.1219  0.4509
 4978TIP3   OH236348   1.215   3.633   4.207 -0.4287 -0.2949  0.0849
 4978TIP3    H136349   1.209   3.549   4.251 -1.5569  0.4778  1.4780
 4978TIP3    H236350   1.124   3.665   4.204 -0.7177 -0.9280 -4.1398
 4979TIP3   OH236351   6.686   0.774  16.244  0.3940 -0.5563  0.2434
 4979TIP3    H136352   6.694   0.742  16.154  0.6118 -0.8703  0.3724
 4979TIP3    H236353   6.720   0.703  16.298 -0.1937 -0.5653  0.6082
 4980TIP3   OH236354   3.928   5.702   6.610 -0.1631  0.1662 -0.1711
 4980TIP3    H136355   3.964   5.789   6.591  0.2300  0.1373  0.4267
 4980TIP3    H236356   3.917   5.701   6.705 -0.4801 -0.3183 -0.2110
 4981TIP3   OH236357   2.408   1.374   4.495  0.1813  0.0603 -0.1320
 4981TIP3    H136358   2.435   1.446   4.552  1.9528  0.9333 -1.9639
 4981TIP3    H236359   2.325   1.402   4.458 -0.4166 -0.0130  1.0882
 4982TIP3   OH236360   4.546   1.911  16.982 -0.0292  0.3802 -0.0453
 4982TIP3    H136361   4.579   1.991  17.023  0.9191 -1.2947  2.7329
 4982TIP3    H236362   4.451   1.925  16.976 -0.0188  1.3044  1.4527
 4983TIP3   OH236363   5.273   5.225  16.725  0.5927  0.1489  0.7311
 4983TIP3    H136364   5.286   5.207  16.818 -0.7831  2.3888  1.4408
 4983TIP3    H236365   5.180   5.208  16.710  1.0236 -1.2290 -0.5216
 4984TIP3   OH236366   0.111   0.301   1.522 -0.0461  0.1373  0.3396
 4984TIP3    H136367   0.117   0.228   1.583 -1.4620 -0.1013  0.2360
 4984TIP3    H236368   0.096   0.377   1.576  2.0058  0.4948  0.4922
 4985TIP3   OH236369   0.238   2.494  17.023  0.5938 -0.9496 -0.5756
 4985TIP3    H136370   0.237   2.400  17.000 -1.2424 -1.1932  0.3623
 4985TIP3    H236371   0.252   2.538  16.939 -1.8141 -1.9709 -1.6112
 4986TIP3   OH236372   3.720   0.669  14.328 -0.0355 -0.4355  0.0357
 4986TIP3    H136373   3.672   0.622  14.259 -2.2956  2.3781 -0.4876
 4986TIP3    H236374   3.715   0.611  14.404  1.5565 -3.1335 -1.7404
 4987TIP3   OH236375   4.393   3.154  14.681  0.1703  0.0843  0.3296
 4987TIP3    H136376   4.485   3.126  14.680  0.6552  1.5877 -0.5595
 4987TIP3    H236377   4.376   3.180  14.591  0.1182  3.5779  1.2147
 4988TIP3   OH236378   3.772   1.051  16.746  0.4109 -0.0681 -0.2501
 4988TIP3    H136379   3.774   1.146  16.757  0.2735 -0.2152  1.2652
 4988TIP3    H236380   3.803   1.036  16.657  0.4772  1.3907 -0.4898
 4989TIP3   OH236381   2.633   2.948  13.523  0.0851  0.6195  0.2107
 4989TIP3    H136382   2.670   3.007  13.457 -0.2742 -0.7169 -1.2384
 4989TIP3    H236383   2.688   2.869  13.518 -0.9328 -0.1141  0.3672
 4990TIP3   OH236384   6.712   0.511   2.815 -0.6911  0.5001 -0.3305
 4990TIP3    H136385   6.793   0.559   2.837 -0.3148 -0.8600  1.5315
 4990TIP3    H236386   6.665   0.569   2.756  1.0853  1.8742 -0.4858
 4991TIP3   OH236387   4.289   3.766  16.590 -0.5364 -0.5923  0.6895
 4991TIP3    H136388   4.333   3.682  16.579 -0.1769 -0.6528  2.4244
 4991TIP3    H236389   4.297   3.786  16.683 -1.0907  1.1116  0.4034
 4992TIP3   OH236390   3.851   4.023   4.209  0.7024 -0.7902 -0.3248
 4992TIP3    H136391   3.830   4.035   4.302 -1.3201 -3.7599 -0.2641
 4992TIP3    H236392   3.783   4.072   4.164  0.9148 -0.4121 -0.2391
 4993TIP3   OH236393   4.201   5.498   4.174  0.1892 -0.5206  0.2833
 4993TIP3    H136394   4.107   5.492   4.154 -0.4128 -0.6357  2.7947
 4993TIP3    H236395   4.236   5.413   4.149 -0.6831 -1.0026  0.6399
 4994TIP3   OH236396   4.985   2.147   5.008  0.0080 -0.3506 -0.4691
 4994TIP3    H136397   4.907   2.104   5.045  0.5668  0.1586  1.4047
 4994TIP3    H236398   5.006   2.216   5.070  1.9907 -0.5054 -0.9055
 4995TIP3   OH236399   3.255   5.295  11.702  0.0618 -0.2069 -0.0728
 4995TIP3    H136400   3.267   5.200  11.701 -1.4076 -0.4241  0.8181
 4995TIP3    H236401   3.161   5.308  11.700  0.1587  1.1840  1.6798
 4996TIP3   OH236402   0.438   4.804  16.860  0.8998 -0.4632  0.3519
 4996TIP3    H136403   0.383   4.858  16.803 -2.7235 -2.4386  1.6499
 4996TIP3    H236404   0.444   4.854  16.941 -0.2144 -0.7996  0.6599
 4997TIP3   OH236405   6.738   4.023   2.487 -0.1377  0.3065 -0.1529
 4997TIP3    H136406   6.669   4.049   2.427  0.2585 -0.8205 -1.1325
 4997TIP3    H236407   6.698   3.958   2.544 -1.2329  3.1027  2.5336
 4998TIP3   OH236408   4.645   4.686  15.099  0.6535  0.3146 -0.2167
 4998TIP3    H136409   4.701   4.754  15.137  1.0738 -0.9037  1.4521
 4998TIP3    H236410   4.664   4.608  15.151 -1.1337 -0.6397 -0.9291
 4999TIP3   OH236411   4.247   3.071  15.375  0.2900  0.3799  0.2080
 4999TIP3    H136412   4.255   2.995  15.432  0.9740  0.6892  0.5334
 4999TIP3    H236413   4.273   3.145  15.430 -0.1843  0.8256 -0.1623
 5000TIP3   OH236414   6.139   4.830   3.135 -0.2049  0.0074 -0.4841
 5000TIP3    H136415   6.131   4.789   3.049 -0.0778 -2.0929  0.4526
 5000TIP3    H236416   6.058   4.807   3.180  0.2883 -0.0436  0.3954
 5001TIP3   OH236417   6.324   2.462   0.386 -0.2444  0.3332 -0.8797
 5001TIP3    H136418   6.282   2.392   0.436 -0.4911  0.6114 -0.6907
 5001TIP3    H236419   6.251   2.509   0.345 -0.2853  1.8229  0.7477
 5002TIP3   OH236420   0.777   0.452  14.438 -0.4242 -0.1792 -0.1075
 5002TIP3    H136421   0.841   0.386  14.466 -0.5881 -0.3849 -0.2168
 5002TIP3    H236422   0.701   0.438  14.494 -0.4069  0.0074 -0.0383
 5003TIP3   OH236423   4.789   2.359   2.614  0.1215  0.3091  0.2842
 5003TIP3    H136424   4.860   2.368   2.677 -1.5704 -0.9821  2.5374
 5003TIP3    H236425   4.723   2.422   2.642 -0.1902  0.5667 -0.9614
 5004TIP3   OH236426   0.360   2.172  11.930 -0.1551 -0.1570  0.2275
 5004TIP3    H136427   0.424   2.232  11.968  1.0555  0.3969 -2.4987
 5004TIP3    H236428   0.298   2.156  12.002  1.3230  1.6745  2.0556
 5005TIP3   OH236429   3.667   4.147   2.392 -0.1583 -0.0332 -0.0092
 5005TIP3    H136430   3.736   4.207   2.422 -1.2564  0.9896  0.5704
 5005TIP3    H236431   3.626   4.193   2.318  0.6622 -1.2583 -1.2734
 5006TIP3   OH236432   0.962   5.038  12.036  0.0842  1.0362 -0.4146
 5006TIP3    H136433   0.972   5.070  11.946 -1.7193 -0.0235 -1.0485
 5006TIP3    H236434   0.918   5.110  12.081  0.7768  1.4791 -0.4343
 5007TIP3   OH236435   3.640   0.553  10.968 -0.0863 -0.1531  0.0963
 5007TIP3    H136436   3.720   0.600  10.991 -0.5696  0.1249  1.3190
 5007TIP3    H236437   3.625   0.573  10.876 -1.4715  4.0493  0.9741
 5008TIP3   OH236438   5.204   5.414  15.472  0.0762  0.0912  0.3161
 5008TIP3    H136439   5.139   5.463  15.522  0.4639  1.0317 -0.0673
 5008TIP3    H236440   5.157   5.339  15.438 -0.8345  0.7853  0.0043
 5009TIP3   OH236441   5.342   4.300   2.266  0.5821 -0.7271 -0.2540
 5009TIP3    H136442   5.260   4.350   2.272  0.5286 -0.7764 -0.5701
 5009TIP3    H236443   5.348   4.275   2.174  1.2950 -0.1470 -0.3692
 5010TIP3   OH236444   0.770   3.641   3.503 -0.3678 -0.3779  0.3649
 5010TIP3    H136445   0.769   3.665   3.410 -0.6974  0.1085  0.4915
 5010TIP3    H236446   0.863   3.626   3.522  0.1115  2.4455  0.6648
 5011TIP3   OH236447   2.566   0.956  13.765 -0.4571 -0.0340 -0.1285
 5011TIP3    H136448   2.491   1.015  13.771  1.7303  2.9101  0.6209
 5011TIP3    H236449   2.637   1.012  13.734  1.5625 -2.5779 -0.3595
 5012TIP3   OH236450   3.645   5.972   0.191  0.4733 -0.1357  0.4621
 5012TIP3    H136451   3.740   5.981   0.193  0.5862 -0.8928 -0.7233
 5012TIP3    H236452   3.614   6.054   0.152  0.7925 -0.6780 -0.9796
 5013TIP3   OH236453   4.927   5.520   4.123  0.3450  0.1844 -0.2050
 5013TIP3    H136454   4.862   5.587   4.143  0.6360  0.7474 -1.0977
 5013TIP3    H236455   4.876   5.440   4.112 -0.1263  0.4915 -0.2677
 5014TIP3   OH236456   3.540   0.140   5.354 -0.4862 -0.0241  0.4682
 5014TIP3    H136457   3.593   0.068   5.389  0.5201  0.0408 -0.8448
 5014TIP3    H236458   3.584   0.219   5.384  0.4014  0.0323 -0.8862
 5015TIP3   OH236459   1.092   0.540   0.828  0.3248 -0.6167 -0.3171
 5015TIP3    H136460   1.132   0.521   0.913 -0.4185 -0.9781 -0.0455
 5015TIP3    H236461   1.020   0.478   0.820  1.3567 -1.6671 -1.9227
 5016TIP3   OH236462   5.525   2.706   0.139 -0.6795 -0.4480  0.0519
 5016TIP3    H136463   5.485   2.768   0.200 -0.3784 -0.6842  0.4995
 5016TIP3    H236464   5.601   2.752   0.104 -1.5375  0.1483 -1.0992
 5017TIP3   OH236465   0.189   4.749  13.290  0.5999 -0.2493  0.7799
 5017TIP3    H136466   0.153   4.695  13.219  0.5086 -0.3209  0.8790
 5017TIP3    H236467   0.198   4.836  13.252 -0.5891  0.0012  1.0289
 5018TIP3   OH236468   0.577   1.515  10.778 -0.2057  0.2881  0.0420
 5018TIP3    H136469   0.581   1.470  10.863 -0.7300 -1.3381 -0.7660
 5018TIP3    H236470   0.648   1.476  10.727 -0.6238  0.4380 -0.6559
 5019TIP3   OH236471   5.723   4.399  12.662  0.3529 -0.4298 -0.3015
 5019TIP3    H136472   5.768   4.381  12.745  1.0266 -1.7298 -0.9194
 5019TIP3    H236473   5.730   4.494  12.652 -0.0542 -0.1955  1.2888
 5020TIP3   OH236474   0.920   3.761  13.136 -0.3184 -0.3563 -0.4303
 5020TIP3    H136475   0.863   3.833  13.108 -0.0846  0.9410  2.0881
 5020TIP3    H236476   0.878   3.726  13.215  1.0637 -1.0471  0.0455
 5021TIP3   OH236477   5.478   6.317   2.895 -0.2309 -0.3784 -0.4401
 5021TIP3    H136478   5.472   6.378   2.969  0.0128 -1.5215  0.5464
 5021TIP3    H236479   5.390   6.315   2.858  0.3857  3.0427 -2.6053
 5022TIP3   OH236480   0.273   4.061  11.010 -0.0571 -0.1043  0.1920
 5022TIP3    H136481   0.369   4.062  11.017  0.0416  1.0842 -1.0213
 5022TIP3    H236482   0.254   4.118  10.935 -1.8570  1.9182  2.0584
 5023TIP3   OH236483   4.464   0.664   2.674  0.1822  0.5621 -0.6806
 5023TIP3    H136484   4.381   0.671   2.722  1.0055 -0.1748  0.9508
 5023TIP3    H236485   4.439   0.638   2.586 -1.2932 -0.6292  0.0378
 5024TIP3   OH236486   1.531   1.749  15.132 -0.1417  0.4953  0.2198
 5024TIP3    H136487   1.562   1.747  15.041  1.1218  0.6934  0.6279
 5024TIP3    H236488   1.519   1.842  15.151 -1.4898  0.3972 -0.0828
 5025TIP3   OH236489   1.303   2.433   1.137 -0.1851  0.2249 -0.6750
 5025TIP3    H136490   1.269   2.355   1.181 -0.6307  1.0444  0.4769
 5025TIP3    H236491   1.397   2.417   1.130  0.0263  0.3674  1.2602
 5026TIP3   OH236492   4.329   4.845   1.950 -0.1200 -0.5539  0.1868
 5026TIP3    H136493   4.331   4.749   1.951  0.7211 -0.5335  0.7802
 5026TIP3    H236494   4.361   4.871   2.036 -1.3779  0.2636  0.4426
 5027TIP3   OH236495   2.002   6.677  12.801  0.0035 -0.5274 -0.5245
 5027TIP3    H136496   1.926   6.734  12.815  1.4312  1.3826 -0.1692
 5027TIP3    H236497   1.965   6.595  12.769 -2.3083 -0.1133  0.8750
 5028TIP3   OH236498   1.472   3.333  16.582 -0.6224 -0.4277 -1.0452
 5028TIP3    H136499   1.522   3.253  16.563  0.9661  0.2622  0.0419
 5028TIP3    H236500   1.530   3.404  16.555 -1.4268  0.3901 -0.6518
 5029TIP3   OH236501   0.698   2.173  15.975 -0.5854 -0.0533  0.3052
 5029TIP3    H136502   0.777   2.182  16.029 -0.5618 -1.2549  0.4999
 5029TIP3    H236503   0.638   2.240  16.009 -1.1039 -1.6392  2.8134
 5030TIP3   OH236504   1.040   1.967   3.212  0.1176 -0.1371  0.3101
 5030TIP3    H136505   1.018   2.053   3.176  1.2137  0.3937  0.8706
 5030TIP3    H236506   1.127   1.948   3.176 -0.3848 -1.3255 -0.3443
 5031TIP3   OH236507   0.596   4.633  11.325 -0.3044  0.2938  0.3445
 5031TIP3    H136508   0.521   4.616  11.383 -0.6422  1.6475  0.3409
 5031TIP3    H236509   0.665   4.573  11.357 -1.6224 -1.6120 -0.2167
 5032TIP3   OH236510   5.254   0.500   1.117  0.3205 -0.3108 -0.5449
 5032TIP3    H136511   5.276   0.537   1.202 -1.2027  1.2598 -0.7644
 5032TIP3    H236512   5.301   0.554   1.054  1.1181 -1.2093 -0.7396
 5033TIP3   OH236513   1.441   2.799  14.532 -0.0827  0.4481 -0.4522
 5033TIP3    H136514   1.383   2.805  14.456  0.6128  1.0478 -0.9517
 5033TIP3    H236515   1.519   2.848  14.506 -0.4867  2.1022  1.2627
 5034TIP3   OH236516   0.445   4.570  12.243 -0.0798 -0.3317 -0.0340
 5034TIP3    H136517   0.475   4.650  12.199 -0.4281  1.0380  2.0708
 5034TIP3    H236518   0.369   4.543  12.192 -0.5474  1.2719 -0.2640
 5035TIP3   OH236519   2.426   2.973  17.279 -0.1630  1.2498 -0.5917
 5035TIP3    H136520   2.494   3.012  17.333  1.7065 -0.4849 -1.5517
 5035TIP3    H236521   2.407   3.039  17.213  0.2325  1.9523 -0.0185
 5036TIP3   OH236522   6.347   0.832   4.316  0.1251 -0.5548 -0.1966
 5036TIP3    H136523   6.319   0.876   4.397 -2.6117  1.2492 -1.9510
 5036TIP3    H236524   6.327   0.740   4.331 -2.5507  0.0352  0.4395
 5037TIP3   OH236525   2.245   0.262  13.237 -0.3449 -0.0994  0.0433
 5037TIP3    H136526   2.307   0.321  13.280  0.3259 -0.9736  0.3037
 5037TIP3    H236527   2.249   0.286  13.145  1.6776 -1.2361 -0.2255
 5038TIP3   OH236528   3.482   0.414   0.169 -0.2787 -0.2351 -0.8252
 5038TIP3    H136529   3.540   0.377   0.236  0.5234  3.3725  0.6981
 5038TIP3    H236530   3.541   0.450   0.103 -0.9386  0.1183 -1.2319
 5039TIP3   OH236531   5.680   4.123  16.624 -0.0337 -0.2019  0.2473
 5039TIP3    H136532   5.635   4.120  16.709 -0.9372  1.2790 -0.1415
 5039TIP3    H236533   5.702   4.215  16.612 -0.3697 -0.3140 -1.3509
 5040TIP3   OH236534   6.413   0.099   3.384  0.4870  0.6040 -0.5990
 5040TIP3    H136535   6.476   0.059   3.325  0.1318 -0.7631 -0.0974
 5040TIP3    H236536   6.348   0.138   3.327  0.7885  0.3576 -1.1160
 5041TIP3   OH236537   0.042   6.729  15.267  0.1759  0.0827 -0.8507
 5041TIP3    H136538   0.122   6.777  15.286 -0.2670  1.2012 -1.6806
 5041TIP3    H236539   0.070   6.650  15.223  0.9009 -0.2209  0.1380
 5042TIP3   OH236540   0.934   1.304   0.921  0.2075 -0.5047 -0.2064
 5042TIP3    H136541   0.940   1.343   1.008 -1.3691 -0.9110  0.1201
 5042TIP3    H236542   0.860   1.243   0.926  0.8361 -1.4433 -1.4983
 5043TIP3   OH236543   4.612   3.263  15.333 -0.2995 -0.2796  0.1504
 5043TIP3    H136544   4.584   3.352  15.313 -0.5903 -0.6428 -1.2032
 5043TIP3    H236545   4.669   3.272  15.409 -0.6324  1.0058  0.2722
 5044TIP3   OH236546   0.162   5.197  15.856 -0.2212 -0.4561 -0.3533
 5044TIP3    H136547   0.149   5.104  15.835 -1.1214 -0.8238  1.6613
 5044TIP3    H236548   0.198   5.197  15.945  1.3520  1.0982 -0.9199
 5045TIP3   OH236549   4.970   0.320   2.620  0.1849  0.4108  0.1163
 5045TIP3    H136550   5.021   0.400   2.606 -1.8201  1.2541 -3.6257
 5045TIP3    H236551   4.984   0.269   2.541 -2.3801 -0.6628  0.2716
 5046TIP3   OH236552   5.542   5.824  11.315 -0.5157 -0.1002 -0.1562
 5046TIP3    H136553   5.497   5.865  11.241 -0.1557 -0.6587 -0.6964
 5046TIP3    H236554   5.515   5.876  11.391 -2.2929 -0.5739 -0.4180
 5047TIP3   OH236555   1.965   0.121  15.443 -0.2275 -0.7172 -0.1077
 5047TIP3    H136556   2.033   0.076  15.493  0.1811 -0.2216 -0.2077
 5047TIP3    H236557   2.003   0.133  15.356 -0.9060 -1.5058 -0.5225
 5048TIP3   OH236558   0.084   0.910   6.100  0.4578 -0.6906  0.1787
 5048TIP3    H136559   0.176   0.908   6.127  0.6030  1.8191  0.0593
 5048TIP3    H236560   0.036   0.885   6.179  1.1921 -1.7703  0.3102
 5049TIP3   OH236561   4.925   5.105   0.600 -0.1008 -0.5663 -0.2413
 5049TIP3    H136562   4.951   5.014   0.609 -2.1702 -1.0224  2.3381
 5049TIP3    H236563   4.879   5.125   0.682  0.3411  2.8289 -0.6745
 5050TIP3   OH236564   1.803   6.261  14.254 -0.1052  0.1512 -0.3184
 5050TIP3    H136565   1.724   6.257  14.307  0.3107  1.7038  0.4955
 5050TIP3    H236566   1.776   6.306  14.174  0.0788  1.4079  0.2954
 5051TIP3   OH236567   0.417   0.719   1.030  0.1543 -0.4065 -0.3992
 5051TIP3    H136568   0.414   0.793   0.970 -0.2403  1.0882  1.3798
 5051TIP3    H236569   0.357   0.655   0.992 -1.5743  1.2748 -0.6281
 5052TIP3   OH236570   0.770   5.487   1.094 -0.3822 -0.3328  0.1546
 5052TIP3    H136571   0.793   5.560   1.037  0.1904 -0.9699 -0.4382
 5052TIP3    H236572   0.701   5.440   1.047 -0.2745 -0.5614  0.2241
 5053TIP3   OH236573   1.513   4.996   6.093 -0.5411  0.0168  0.0855
 5053TIP3    H136574   1.561   4.960   6.168  1.3727  0.1330 -1.0240
 5053TIP3    H236575   1.465   4.921   6.058  1.3544 -0.8876 -0.6525
 5054TIP3   OH236576   4.403   5.102   5.475 -0.8347 -0.2264 -0.4983
 5054TIP3    H136577   4.410   5.016   5.517 -0.0342  0.0238 -0.1034
 5054TIP3    H236578   4.353   5.086   5.395 -1.3360 -0.9278 -0.0520
 5055TIP3   OH236579   6.651   0.863  14.544  0.0121  0.4044 -0.3370
 5055TIP3    H136580   6.637   0.799  14.613  0.7000  0.4557 -0.1404
 5055TIP3    H236581   6.585   0.930  14.559 -1.4483 -0.7669 -1.1982
 5056TIP3   OH236582   3.537   6.542  12.674 -0.5568 -0.3660  1.1437
 5056TIP3    H136583   3.444   6.532  12.694 -0.8429  2.1631  1.4962
 5056TIP3    H236584   3.564   6.457  12.640 -2.3751 -1.9467  3.3441
 5057TIP3   OH236585   5.495   3.552  11.834  0.2905  0.1103  0.1547
 5057TIP3    H136586   5.480   3.486  11.901  1.5605  0.0466  0.4100
 5057TIP3    H236587   5.514   3.503  11.754 -1.4825  0.1851 -0.3495
 5058TIP3   OH236588   6.714   0.182  15.493  0.1576 -0.0399 -0.1137
 5058TIP3    H136589   6.754   0.113  15.440 -1.5792 -0.5996 -0.7626
 5058TIP3    H236590   6.726   0.262  15.443  5.3338  1.0402  2.1647
 5059TIP3   OH236591   6.154   2.792   3.132  0.1673 -0.6122  0.6046
 5059TIP3    H136592   6.116   2.873   3.167 -2.3569 -1.9595  1.2494
 5059TIP3    H236593   6.119   2.723   3.189 -0.3817 -2.4553 -1.8368
 5060TIP3   OH236594   2.709   5.256  14.624 -0.3747 -0.2108 -0.8424
 5060TIP3    H136595   2.743   5.297  14.703 -2.2873 -1.6065  0.7982
 5060TIP3    H236596   2.769   5.283  14.555  1.1039  1.4238  0.9867
 5061TIP3   OH236597   5.062   4.337  16.702 -0.4726 -0.4971  0.2417
 5061TIP3    H136598   4.978   4.328  16.656 -0.8228  0.0373  0.7725
 5061TIP3    H236599   5.127   4.340  16.631 -0.8513 -1.3330 -0.1595
 5062TIP3   OH236600   5.029   5.622   2.303 -0.1089  0.4569 -0.0316
 5062TIP3    H136601   5.114   5.588   2.329 -0.5013 -0.3949  0.1732
 5062TIP3    H236602   4.977   5.622   2.383 -0.5567  0.1968 -0.3172
 5063TIP3   OH236603   1.338   3.676  13.767 -0.0998 -1.3650 -0.2459
 5063TIP3    H136604   1.347   3.709  13.856 -0.8664 -1.7641 -0.0155
 5063TIP3    H236605   1.359   3.751  13.711 -0.2782 -0.9304  0.2646
 5064TIP3   OH236606   5.688   4.259  11.969 -0.0427  0.0194 -0.3980
 5064TIP3    H136607   5.676   4.215  11.885 -1.2040 -0.6847  0.1024
 5064TIP3    H236608   5.599   4.275  12.000  0.3648  0.1970  0.7252
 5065TIP3   OH236609   6.718   1.684  13.829 -0.0017  0.3694 -0.8809
 5065TIP3    H136610   6.735   1.599  13.788  1.6571  0.6494 -0.8409
 5065TIP3    H236611   6.802   1.710  13.866 -0.9072  1.2303  0.6455
 5066TIP3   OH236612   0.464   2.356   3.287  0.3791  0.0165 -0.4994
 5066TIP3    H136613   0.554   2.336   3.259  0.3198  0.2944 -0.8860
 5066TIP3    H236614   0.475   2.404   3.369  0.5549 -0.7172 -0.0819
 5067TIP3   OH236615   4.868   4.635   4.970  0.0664 -0.2332  0.2168
 5067TIP3    H136616   4.843   4.589   5.050  0.2229  1.0486  1.0464
 5067TIP3    H236617   4.789   4.634   4.916 -0.6176  0.4158  1.1668
 5068TIP3   OH236618   3.910   2.257  14.935 -0.0361  0.2478  0.3313
 5068TIP3    H136619   3.927   2.270  14.842  0.8543  0.0111  0.4543
 5068TIP3    H236620   3.973   2.315  14.979  1.0892 -1.2934  0.8161
 5069TIP3   OH236621   1.871   0.805   4.415  0.1441 -0.2421 -0.7527
 5069TIP3    H136622   1.801   0.741   4.406  0.7238 -0.8049 -1.4099
 5069TIP3    H236623   1.841   0.882   4.367 -1.2919  0.6395  1.4556
 5070TIP3   OH236624   5.961   5.766  14.881  0.1486 -0.1443  0.0519
 5070TIP3    H136625   5.875   5.724  14.875  1.1665 -2.3528 -0.2244
 5070TIP3    H236626   5.944   5.858  14.864 -2.0890 -0.6081 -0.5785
 5071TIP3   OH236627   0.517   2.900  11.995 -0.3305 -0.1297 -0.1763
 5071TIP3    H136628   0.546   2.949  12.072 -1.4123  2.2628 -1.2083
 5071TIP3    H236629   0.436   2.942  11.968  0.0474 -0.8319 -2.6807
 5072TIP3   OH236630   4.475   6.563  16.558  0.7391  0.1168  0.0682
 5072TIP3    H136631   4.429   6.483  16.533  1.0693  0.0859 -0.4564
 5072TIP3    H236632   4.541   6.534  16.621  2.0956 -0.3306 -1.4965
 5073TIP3   OH236633   6.288   3.161   2.365 -0.3172 -0.1762  0.4271
 5073TIP3    H136634   6.224   3.105   2.320 -0.5077  0.5791 -0.2532
 5073TIP3    H236635   6.324   3.105   2.434 -0.1908 -1.2894 -0.5114
 5074TIP3   OH236636   5.593   0.400   0.073 -0.4544 -0.5424 -0.6772
 5074TIP3    H136637   5.674   0.373   0.030  1.4262  0.1871  2.1399
 5074TIP3    H236638   5.596   0.496   0.072 -0.5659 -0.5129  0.6847
 5075TIP3   OH236639   0.649   4.920  14.435 -0.0725  0.4790 -0.2669
 5075TIP3    H136640   0.634   5.011  14.408  2.3691  0.5791 -1.5147
 5075TIP3    H236641   0.735   4.922  14.477  1.0917 -1.6213 -2.3765
 5076TIP3   OH236642   1.085   0.406   6.352  0.3140  0.0921  0.6093
 5076TIP3    H136643   1.153   0.421   6.287 -0.3988  2.0704  0.2371
 5076TIP3    H236644   1.130   0.360   6.423  0.8643 -3.1105 -1.6306
 5077TIP3   OH236645   5.740   4.776  14.939 -0.2310 -0.6270  0.5057
 5077TIP3    H136646   5.700   4.700  14.981 -0.1784 -1.4947 -0.9567
 5077TIP3    H236647   5.809   4.740  14.884 -1.2887  0.2737 -1.5228
 5078TIP3   OH236648   3.292   4.919   3.562 -0.1291  0.0450 -0.8201
 5078TIP3    H136649   3.215   4.864   3.545  0.8269 -1.8880  0.6798
 5078TIP3    H236650   3.366   4.863   3.542  0.9064  1.0886 -0.0414
 5079TIP3   OH236651   2.706   5.323  17.298  0.0026  0.2712  0.5583
 5079TIP3    H136652   2.659   5.406  17.314  2.1287  1.5820  0.3639
 5079TIP3    H236653   2.711   5.318  17.203 -1.4097 -0.9042  0.5114
 5080TIP3   OH236654   3.071   1.832   1.499  0.8116  0.0228  0.0372
 5080TIP3    H136655   3.023   1.894   1.444  1.6966 -0.3980 -1.2923
 5080TIP3    H236656   3.120   1.779   1.436 -0.0126 -2.1264  1.1156
 5081TIP3   OH236657   0.193   6.219  11.610  0.6119  0.6109  0.0629
 5081TIP3    H136658   0.219   6.210  11.519 -0.5220  0.7630 -0.2871
 5081TIP3    H236659   0.276   6.220  11.659  1.2151  0.3274 -0.9359
 5082TIP3   OH236660   3.444   5.567   0.337 -0.2427 -0.0723 -0.0961
 5082TIP3    H136661   3.507   5.578   0.266  1.5309 -0.7424  1.3067
 5082TIP3    H236662   3.393   5.648   0.336  0.4579  0.3921 -1.4326
 5083TIP3   OH236663   0.144   2.004  16.000  0.0387 -0.4856  0.1119
 5083TIP3    H136664   0.058   1.962  16.012 -1.0746  1.9700  1.3819
 5083TIP3    H236665   0.205   1.947  16.046 -1.1119 -1.6275  0.2816
 5084TIP3   OH236666   6.720   5.118   0.815  0.1583  0.6057  0.1288
 5084TIP3    H136667   6.792   5.158   0.766  0.7651 -1.2318 -0.5931
 5084TIP3    H236668   6.728   5.154   0.903  2.5820 -0.1812  0.3185
 5085TIP3   OH236669   6.037   0.458   3.345 -0.2070  0.7299 -0.0944
 5085TIP3    H136670   5.946   0.429   3.335  0.3502 -1.0528 -0.2912
 5085TIP3    H236671   6.043   0.537   3.290 -2.0743  2.0063  1.3814
 5086TIP3   OH236672   3.990   2.109   3.418  0.3961  0.2108  0.1405
 5086TIP3    H136673   3.949   2.033   3.377  1.6009 -1.3123  1.6567
 5086TIP3    H236674   3.973   2.181   3.356 -2.0338 -0.9230 -0.6403
 5087TIP3   OH236675   1.657   5.716  12.953 -0.3931  0.1551  0.0569
 5087TIP3    H136676   1.743   5.678  12.934 -0.3444 -0.2036  0.9719
 5087TIP3    H236677   1.667   5.809  12.934  0.6659  0.4034  1.6457
 5088TIP3   OH236678   4.230   3.605   4.475 -0.3517  0.0392  0.7910
 5088TIP3    H136679   4.178   3.533   4.441 -0.0482  0.1662  0.0441
 5088TIP3    H236680   4.178   3.683   4.457 -0.6779  0.0204  1.5931
 5089TIP3   OH236681   3.960   4.122   1.968 -0.0833  0.4752 -0.8508
 5089TIP3    H136682   3.881   4.172   1.988 -0.7417  1.0752 -4.3633
 5089TIP3    H236683   4.026   4.157   2.028 -1.6992  2.1702  0.0454
 5090TIP3   OH236684   1.976   4.111  14.916 -0.5666 -0.2834 -0.4623
 5090TIP3    H136685   1.997   4.203  14.933 -1.5779 -0.0756 -0.2384
 5090TIP3    H236686   1.884   4.103  14.942 -0.6774 -1.1975 -1.0951
 5091TIP3   OH236687   4.020   5.092  11.981 -0.3398 -0.1438 -0.3648
 5091TIP3    H136688   3.965   5.120  12.054 -1.0725 -1.0859 -0.5287
 5091TIP3    H236689   4.058   5.009  12.010 -0.8193 -0.6467 -1.1136
 5092TIP3   OH236690   4.923   2.874  16.117 -0.3130 -0.6215 -0.1612
 5092TIP3    H136691   4.933   2.956  16.166 -1.1501 -1.6924  1.9007
 5092TIP3    H236692   4.855   2.826  16.164  0.2648 -2.5888 -1.2433
 5093TIP3   OH236693   4.551   4.382   5.136 -0.2418  0.0332 -0.2634
 5093TIP3    H136694   4.482   4.447   5.150 -1.3168 -1.6105  3.1555
 5093TIP3    H236695   4.633   4.431   5.151 -1.0438  0.5607  3.3377
 5094TIP3   OH236696   6.671   6.383   4.489  0.0132 -0.3821 -0.3884
 5094TIP3    H136697   6.642   6.438   4.415  0.7063 -0.6753 -0.8866
 5094TIP3    H236698   6.728   6.440   4.540  0.4185 -0.5072 -0.6916
 5095TIP3   OH236699   1.797   2.844   3.772  0.3719 -0.7005  0.3555
 5095TIP3    H136700   1.737   2.917   3.759 -1.2256 -2.4139 -3.5147
 5095TIP3    H236701   1.743   2.773   3.808  0.8771 -1.2603  0.0426
 5096TIP3   OH236702   2.514   4.876  16.092  0.7938 -0.1037  0.2263
 5096TIP3    H136703   2.513   4.781  16.081  0.9607 -0.1230  0.3761
 5096TIP3    H236704   2.510   4.889  16.186 -1.8686  0.0819  0.1473
 5097TIP3   OH236705   4.861   1.089  11.864 -0.1573  0.1544  0.1320
 5097TIP3    H136706   4.882   1.004  11.903  1.1920 -0.1569 -1.1899
 5097TIP3    H236707   4.767   1.100  11.880 -0.3634 -1.6023  0.3058
 5098TIP3   OH236708   5.581   0.155   5.664  0.2045  0.3131  0.5735
 5098TIP3    H136709   5.595   0.238   5.710 -0.1183  0.4587  0.4182
 5098TIP3    H236710   5.667   0.130   5.632  0.1404  1.1707 -0.3515
 5099TIP3   OH236711   6.172   0.191   2.877  0.2841  0.3271 -0.2698
 5099TIP3    H136712   6.112   0.116   2.877 -0.1863  0.6673  1.5769
 5099TIP3    H236713   6.145   0.244   2.952  2.4791  0.8456  0.2165
 5100TIP3   OH236714   5.448   4.060   6.777  0.2304  0.5119  0.0438
 5100TIP3    H136715   5.507   4.055   6.852  1.8177 -1.2168 -1.2320
 5100TIP3    H236716   5.497   4.109   6.711  0.0887 -0.5277 -0.8642
 5101TIP3   OH236717   6.074   3.056  12.134  0.3341  0.0319 -0.0776
 5101TIP3    H136718   5.998   3.097  12.092  1.3061  0.7078 -1.2403
 5101TIP3    H236719   6.092   2.978  12.081  0.8048  0.2094 -0.1896
 5102TIP3   OH236720   1.002   3.945   0.157 -0.1493 -0.3044 -0.0328
 5102TIP3    H136721   1.053   4.021   0.181  1.8392 -1.5690 -0.0625
 5102TIP3    H236722   1.003   3.889   0.235  0.3612 -1.3006 -0.7373
 5103TIP3   OH236723   1.323   5.938  13.889  0.3648  0.1159  0.1916
 5103TIP3    H136724   1.245   5.962  13.839  1.1969 -0.4064 -1.4582
 5103TIP3    H236725   1.304   5.851  13.923 -0.2614  0.5243  0.9066
 5104TIP3   OH236726   1.849   4.511   1.604  0.3695 -0.2481 -0.1317
 5104TIP3    H136727   1.870   4.420   1.623 -2.3203 -1.3049 -1.7218
 5104TIP3    H236728   1.839   4.515   1.509 -2.7731  0.8105  0.0993
 5105TIP3   OH236729   2.322   5.314   2.186 -0.2946 -0.0753  0.0020
 5105TIP3    H136730   2.373   5.273   2.257 -0.1576  1.4499  0.8356
 5105TIP3    H236731   2.388   5.351   2.128 -0.3453  2.6159  1.5084
 5106TIP3   OH236732   5.285   2.042  13.943 -0.0250 -0.2893  0.4950
 5106TIP3    H136733   5.262   2.103  14.012  1.8376 -0.2156  1.1118
 5106TIP3    H236734   5.380   2.053  13.932 -0.0718 -1.2274 -1.1661
 5107TIP3   OH236735   0.732   3.604   6.571  0.1513  0.0225  0.1430
 5107TIP3    H136736   0.739   3.689   6.614 -0.2430 -0.4243  1.1337
 5107TIP3    H236737   0.658   3.612   6.512  0.7334  0.6652 -0.5259
 5108TIP3   OH236738   0.510   3.788   4.644 -0.2092 -0.3578  0.6222
 5108TIP3    H136739   0.502   3.718   4.709 -0.5793  0.4134  1.4394
 5108TIP3    H236740   0.444   3.767   4.578 -0.3432 -0.7610  0.8789
 5109TIP3   OH236741   4.628   5.480   6.237 -0.0543 -0.2859  0.2356
 5109TIP3    H136742   4.537   5.509   6.231 -0.0594  0.2349  2.1375
 5109TIP3    H236743   4.677   5.545   6.186 -0.4548  1.1337  1.5831
 5110TIP3   OH236744   4.713   2.631  15.081 -0.4431 -0.3034  0.2049
 5110TIP3    H136745   4.681   2.558  15.028  0.5307 -1.0376  0.6116
 5110TIP3    H236746   4.640   2.652  15.139 -0.3578 -1.7052  0.8598
 5111TIP3   OH236747   0.824   3.285   4.022 -0.3381  0.1477  0.2181
 5111TIP3    H136748   0.865   3.198   4.027  0.6581  0.6666  1.5849
 5111TIP3    H236749   0.828   3.319   4.111 -3.6276  0.3348  0.4175
 5112TIP3   OH236750   0.612   0.861  13.594 -0.3546 -0.5314 -0.2277
 5112TIP3    H136751   0.602   0.881  13.687 -0.0351  0.1750 -0.3422
 5112TIP3    H236752   0.522   0.857  13.561 -0.5023 -1.4283  0.2338
 5113TIP3   OH236753   0.343   0.815   6.117 -0.5243  0.6863 -0.7633
 5113TIP3    H136754   0.305   0.741   6.164 -0.1270  0.4439 -0.8273
 5113TIP3    H236755   0.417   0.843   6.171  0.1825  0.1511 -1.4440
 5114TIP3   OH236756   4.657   2.016  12.715 -0.0556  0.0030 -0.4148
 5114TIP3    H136757   4.641   1.931  12.675  1.0474 -0.2366 -0.3948
 5114TIP3    H236758   4.731   2.000  12.774  0.1033  0.9534 -0.3490
 5115TIP3   OH236759   4.444   6.014   5.601 -0.0009 -0.2348 -0.4598
 5115TIP3    H136760   4.365   5.963   5.619  0.4749 -0.3804  1.4347
 5115TIP3    H236761   4.513   5.948   5.593  0.0794 -0.0585 -1.3275
 5116TIP3   OH236762   0.936   2.117   4.119 -0.6444 -0.1327  0.2001
 5116TIP3    H136763   0.999   2.073   4.063 -0.3045  0.5864 -0.0037
 5116TIP3    H236764   0.879   2.164   4.058 -1.4658 -0.8776  0.3752
 5117TIP3   OH236765   5.283   5.782   4.783  0.2487  0.4493  0.2754
 5117TIP3    H136766   5.291   5.877   4.790 -1.3423  0.5847  0.7031
 5117TIP3    H236767   5.354   5.755   4.724 -0.3126  2.0831 -1.2033
 5118TIP3   OH236768   5.248   1.731  15.479  0.0600  0.7018 -0.0809
 5118TIP3    H136769   5.316   1.743  15.546  0.1270 -1.0930  0.2265
 5118TIP3    H236770   5.292   1.749  15.396  1.7835 -2.9007 -0.1488
 5119TIP3   OH236771   2.414   1.115   1.995 -0.0927  0.2669  0.5472
 5119TIP3    H136772   2.338   1.111   1.938 -0.1301 -2.0973  0.6906
 5119TIP3    H236773   2.487   1.084   1.942 -0.1943 -2.3520  1.7550
 5120TIP3   OH236774   1.373   0.494  12.377 -0.5269  0.2137  0.2263
 5120TIP3    H136775   1.344   0.423  12.320  1.6614  1.1267 -2.2362
 5120TIP3    H236776   1.468   0.480  12.387 -0.5566  1.0967  2.2461
 5121TIP3   OH236777   4.261   4.272  13.377 -0.0030  0.2219  0.1897
 5121TIP3    H136778   4.195   4.205  13.360 -0.5456  1.2205 -1.9307
 5121TIP3    H236779   4.308   4.281  13.295  0.7290  1.7094  0.7323
 5122TIP3   OH236780   6.004   1.272  13.271  1.0318  0.1467 -0.3306
 5122TIP3    H136781   5.944   1.226  13.213 -1.0767  0.0328  1.8055
 5122TIP3    H236782   6.003   1.363  13.241  0.5365 -0.0428 -0.8907
 5123TIP3   OH236783   2.945   4.763   2.302 -0.5921 -0.0306 -0.4363
 5123TIP3    H136784   2.985   4.840   2.342  1.0355 -1.4832  0.9110
 5123TIP3    H236785   3.004   4.739   2.231 -2.8603  1.8389 -3.1641
 5124TIP3   OH236786   5.753   3.940   3.252 -0.2144  0.1938  0.0273
 5124TIP3    H136787   5.709   3.952   3.168  0.1562  2.6894  0.1091
 5124TIP3    H236788   5.682   3.928   3.315 -0.6289  0.7045 -0.3303
 5125TIP3   OH236789   5.435   6.049   2.962  0.4095  0.2358 -1.0826
 5125TIP3    H136790   5.492   6.126   2.964  0.8635 -0.0424  2.0545
 5125TIP3    H236791   5.349   6.084   2.936  0.5168  1.9458  0.6367
 5126TIP3   OH236792   2.760   1.714  15.376  0.6228 -0.1540  0.3492
 5126TIP3    H136793   2.777   1.703  15.469 -1.8707 -1.5455  0.7327
 5126TIP3    H236794   2.696   1.645  15.355  1.7145 -0.4085 -2.5755
 5127TIP3   OH236795   0.727   4.979   2.999 -0.2488 -0.0125 -0.0511
 5127TIP3    H136796   0.802   4.923   3.015 -0.1434  0.0187 -0.4349
 5127TIP3    H236797   0.678   4.978   3.081  0.9700  1.1868  0.7364
 5128TIP3   OH236798   1.109   5.410  12.890  0.1163 -0.2496  0.0795
 5128TIP3    H136799   1.079   5.319  12.887  2.4804 -1.1339  0.6421
 5128TIP3    H236800   1.197   5.404  12.927  0.3182  2.2988  0.1499
 5129TIP3   OH236801   5.707   0.502   2.691  0.1807 -0.1293  0.3269
 5129TIP3    H136802   5.694   0.464   2.604 -0.0192 -0.5365  0.5329
 5129TIP3    H236803   5.630   0.555   2.707  1.1838  1.7133 -0.6425
 5130TIP3   OH236804   0.400   2.097   3.043 -0.3206  0.3363 -0.3845
 5130TIP3    H136805   0.364   2.163   3.101  2.7295  0.0376  2.1059
 5130TIP3    H236806   0.470   2.142   2.996  0.1964 -0.5349 -0.4718
 5131TIP3   OH236807   4.988   3.894   6.256  0.4801 -0.1694 -0.4549
 5131TIP3    H136808   4.899   3.924   6.237 -0.3011 -3.1384 -2.0510
 5131TIP3    H236809   5.018   3.952   6.326 -3.1925  0.1889  1.0700
 5132TIP3   OH236810   1.501   5.995   2.925 -0.4539  0.4902 -0.0775
 5132TIP3    H136811   1.413   6.021   2.951 -0.9701 -0.5935 -0.6495
 5132TIP3    H236812   1.490   5.956   2.838  0.4825 -0.1797  0.0836
 5133TIP3   OH236813   5.447   1.539  13.144  0.5141  0.2339  0.1040
 5133TIP3    H136814   5.484   1.466  13.094 -0.6090  0.0702 -0.5341
 5133TIP3    H236815   5.424   1.604  13.077 -1.8077 -0.3415  0.2609
 5134TIP3   OH236816   0.373   2.543   6.402  0.0979 -0.2710 -0.3892
 5134TIP3    H136817   0.280   2.553   6.423  0.4801  0.5930  0.9905
 5134TIP3    H236818   0.382   2.450   6.381 -0.9481 -0.5074  0.1073
 5135TIP3   OH236819   2.474   0.085  15.752  0.4632 -0.5111 -0.0465
 5135TIP3    H136820   2.548   0.088  15.814 -0.6127 -0.7971  1.3128
 5135TIP3    H236821   2.437  -0.002  15.764 -1.2340  0.2691  0.7256
 5136TIP3   OH236822   5.714   1.674  15.591  0.1771  0.7422  0.1272
 5136TIP3    H136823   5.753   1.624  15.520 -2.2452  2.0435 -2.2786
 5136TIP3    H236824   5.789   1.719  15.632  1.6448  0.0565 -1.6667
 5137TIP3   OH236825   3.824   2.031  16.750  0.2678 -0.3490 -0.3399
 5137TIP3    H136826   3.857   2.015  16.661  0.2880  1.9791 -0.8247
 5137TIP3    H236827   3.782   2.117  16.744  1.7942  0.6787  2.3091
 5138TIP3   OH236828   1.804   2.743  12.138  0.1500  0.5275 -0.3637
 5138TIP3    H136829   1.824   2.678  12.206 -1.6915  1.4821  1.1853
 5138TIP3    H236830   1.714   2.770  12.156  0.7209  3.2874 -1.1591
 5139TIP3   OH236831   1.130   1.539   3.926 -0.4833  0.3946 -0.2425
 5139TIP3    H136832   1.220   1.572   3.930 -0.1007 -0.6812  0.3273
 5139TIP3    H236833   1.110   1.514   4.016 -1.4762  0.8951 -0.3016
 5140TIP3   OH236834   3.179   2.623  14.712 -0.4916  0.0331  0.1407
 5140TIP3    H136835   3.230   2.676  14.652 -1.6971  0.1610 -0.8247
 5140TIP3    H236836   3.107   2.680  14.740 -1.1736 -0.7064 -0.0295
 5141TIP3   OH236837   0.770   4.570   3.640 -0.7156 -0.0483  0.1085
 5141TIP3    H136838   0.730   4.559   3.726  1.0609  0.2371  1.0134
 5141TIP3    H236839   0.779   4.480   3.607  0.1109 -0.2922  0.9597
 5142TIP3   OH236840   0.869   4.568   6.304  0.1020  0.1121 -0.6289
 5142TIP3    H136841   0.929   4.521   6.362 -0.3447  1.8182  1.3406
 5142TIP3    H236842   0.924   4.637   6.265  0.2786 -0.7155 -1.9199
 5143TIP3   OH236843   3.396   6.763  16.185 -0.1255 -0.0692 -0.2302
 5143TIP3    H136844   3.432   6.705  16.118  0.1751  0.0837 -0.1990
 5143TIP3    H236845   3.453   6.839  16.185 -1.3291  0.8878 -1.2605
 5144TIP3   OH236846   4.286   6.235  13.625 -0.1150  0.1872 -0.1981
 5144TIP3    H136847   4.259   6.318  13.665 -1.0184 -0.4113  0.4863
 5144TIP3    H236848   4.380   6.230  13.641 -0.0562  1.0764 -0.2417
 5145TIP3   OH236849   5.359   5.663   3.549  0.0603 -0.0968  0.0597
 5145TIP3    H136850   5.386   5.742   3.596 -0.5049  0.9478 -1.3039
 5145TIP3    H236851   5.267   5.679   3.529 -1.5921 -3.1962  3.8976
 5146TIP3   OH236852   3.162   0.288  16.478  0.7799  0.3790  0.2758
 5146TIP3    H136853   3.210   0.206  16.467  1.6718  1.0647 -1.3627
 5146TIP3    H236854   3.074   0.262  16.507  1.3648 -1.0625  0.8058
 5147TIP3   OH236855   4.926   0.569   5.203 -0.5691 -0.2568  0.0436
 5147TIP3    H136856   5.016   0.601   5.199  0.3922 -2.7199 -0.0377
 5147TIP3    H236857   4.877   0.629   5.147  1.2766  0.3990 -0.9616
 5148TIP3   OH236858   2.298   6.226  12.861  0.1713  0.0239  0.8940
 5148TIP3    H136859   2.336   6.200  12.945 -0.6154  0.7949  1.5015
 5148TIP3    H236860   2.374   6.248  12.807  0.6519  0.4326  1.7131
 5149TIP3   OH236861   2.210   1.801   2.681  0.5695 -0.0490  0.2329
 5149TIP3    H136862   2.259   1.722   2.659 -0.3714 -0.5027 -0.2562
 5149TIP3    H236863   2.120   1.781   2.658  0.5601  1.7612 -1.4892
 5150TIP3   OH236864   0.129   4.323  17.077  0.3705  0.3971  0.2964
 5150TIP3    H136865   0.160   4.305  17.165  1.2023  0.4949  0.0305
 5150TIP3    H236866   0.150   4.243  17.028  3.1938  1.5894 -0.6548
 5151TIP3   OH236867   0.526   3.519   2.477 -0.0526  0.5133  0.4464
 5151TIP3    H136868   0.469   3.494   2.404 -0.7561 -0.4669  1.2901
 5151TIP3    H236869   0.544   3.612   2.463  0.0528  0.2903 -1.1047
 5152TIP3   OH236870   0.164   4.804   1.551  0.0819  0.0909  0.2399
 5152TIP3    H136871   0.121   4.848   1.624  0.1841 -0.2843  0.5263
 5152TIP3    H236872   0.093   4.755   1.508  0.1375 -0.1751  0.4500
 5153TIP3   OH236873   4.164   0.215  11.067  0.3871  0.5399  0.2911
 5153TIP3    H136874   4.109   0.181  11.138  1.1523  0.3752  0.8173
 5153TIP3    H236875   4.113   0.286  11.028 -2.0155 -2.1739 -1.9268
 5154TIP3   OH236876   5.413   4.936  12.502  0.2559  0.3729  0.2418
 5154TIP3    H136877   5.501   4.908  12.525  0.4861  1.7621  1.1672
 5154TIP3    H236878   5.365   4.936  12.585 -0.7651 -0.7962 -0.3177
 5155TIP3   OH236879   4.888   4.900  13.896 -0.1697 -0.9639 -0.2764
 5155TIP3    H136880   4.870   4.974  13.954  0.1495 -0.1434 -1.2117
 5155TIP3    H236881   4.801   4.866  13.873 -0.3110 -2.1010  1.6301
 5156TIP3   OH236882   3.194   3.339  15.566  0.5642 -0.0865  0.1865
 5156TIP3    H136883   3.151   3.401  15.625  0.6056 -0.2167  0.3541
 5156TIP3    H236884   3.134   3.264  15.564  0.0871  0.3008 -0.6910
 5157TIP3   OH236885   3.208   2.368   1.593 -0.5104  0.0209  0.1735
 5157TIP3    H136886   3.260   2.317   1.530  2.6791 -1.0665  3.2917
 5157TIP3    H236887   3.158   2.302   1.641  0.9716  0.0633  1.9312
 5158TIP3   OH236888   2.764   5.536   5.484 -0.4462 -0.6022 -0.3029
 5158TIP3    H136889   2.669   5.542   5.479 -0.3773  0.3193 -0.6410
 5158TIP3    H236890   2.788   5.599   5.552 -0.1012 -1.0907  0.0338
 5159TIP3   OH236891   4.062   6.336   5.923  0.2476 -0.1117  0.1274
 5159TIP3    H136892   3.983   6.380   5.955  0.5025 -1.3284  2.7306
 5159TIP3    H236893   4.030   6.256   5.881  0.0537 -1.1945  2.2121
 5160TIP3   OH236894   6.362   1.353  15.585 -0.6671 -0.0502  0.1744
 5160TIP3    H136895   6.300   1.287  15.553  1.1502 -1.8151  0.1166
 5160TIP3    H236896   6.404   1.387  15.505 -0.2887 -0.1617  0.3266
 5161TIP3   OH236897   4.460   2.597  17.046  0.5941 -0.3122 -0.0408
 5161TIP3    H136898   4.365   2.598  17.029  0.1282 -1.7189  2.1057
 5161TIP3    H236899   4.499   2.589  16.959 -1.2054  0.8129 -1.0364
 5162TIP3   OH236900   1.266   5.184   4.769  0.6136 -0.0736 -0.3013
 5162TIP3    H136901   1.296   5.159   4.682  0.6047  1.1988 -0.6952
 5162TIP3    H236902   1.313   5.266   4.788  0.3620 -0.1607  0.7437
 5163TIP3   OH236903   5.051   5.811  15.919  0.3527  0.4321  0.3770
 5163TIP3    H136904   4.964   5.800  15.881 -0.2034  3.0153  0.7429
 5163TIP3    H236905   5.099   5.732  15.893 -2.3802 -1.6085  1.0970
 5164TIP3   OH236906   5.322   5.326   6.218 -0.2967  0.5484  0.2374
 5164TIP3    H136907   5.364   5.241   6.228  1.2443  0.8543 -2.5154
 5164TIP3    H236908   5.275   5.320   6.134 -1.1292  2.0503  0.5448
 5165TIP3   OH236909   2.433   1.117  11.112 -0.2605 -0.0045  0.8321
 5165TIP3    H136910   2.390   1.032  11.101 -1.9816  1.0058 -1.0500
 5165TIP3    H236911   2.434   1.132  11.206 -3.4735 -0.4798  1.0589
 5166TIP3   OH236912   2.666   1.848   6.237  0.4098 -0.5202 -0.6287
 5166TIP3    H136913   2.619   1.918   6.192  0.2236 -0.5899 -0.5428
 5166TIP3    H236914   2.753   1.847   6.196  0.5589  0.0446 -0.3448
 5167TIP3   OH236915   2.902   5.454  15.979  0.9318 -0.2152  0.4413
 5167TIP3    H136916   2.964   5.438  16.050 -0.2718 -0.1715  1.5504
 5167TIP3    H236917   2.908   5.548  15.963  1.3549 -0.2578  0.3465
 5168TIP3   OH236918   1.328   5.822  12.860 -0.0179  0.1572  0.3228
 5168TIP3    H136919   1.378   5.749  12.823  0.8562  1.4519 -1.1946
 5168TIP3    H236920   1.238   5.790  12.862  0.4585 -1.2355  0.4319
 5169TIP3   OH236921   6.572   2.589  12.305  0.0489  0.9369  0.6247
 5169TIP3    H136922   6.589   2.671  12.353  0.3060  1.4637 -0.3444
 5169TIP3    H236923   6.496   2.609  12.251 -1.0622 -0.0625  1.7347
 5170TIP3   OH236924   1.939   5.136  13.691 -0.2370  0.1291 -0.6430
 5170TIP3    H136925   1.872   5.189  13.648 -0.6681 -0.6596 -0.9713
 5170TIP3    H236926   1.938   5.165  13.782 -0.8372  0.3074 -0.7022
 5171TIP3   OH236927   0.186   4.150   2.181 -0.3056  0.2692 -0.1044
 5171TIP3    H136928   0.183   4.210   2.255  0.0928 -1.1716  1.1128
 5171TIP3    H236929   0.216   4.067   2.218 -1.0240 -0.7491 -1.7132
 5172TIP3   OH236930   6.502   5.705   3.700 -0.0200  0.7691 -0.6045
 5172TIP3    H136931   6.442   5.682   3.771  0.7235  1.8989  0.4121
 5172TIP3    H236932   6.458   5.775   3.653 -1.8300 -1.8016 -3.1020
 5173TIP3   OH236933   3.530   5.247   1.802 -0.5789 -0.1167 -0.2225
 5173TIP3    H136934   3.580   5.166   1.792 -1.3097 -0.5816 -0.1781
 5173TIP3    H236935   3.592   5.309   1.841 -0.3544 -1.0098  0.8918
 5174TIP3   OH236936   5.926   3.929  12.450 -0.0030  0.1924  0.0300
 5174TIP3    H136937   5.840   3.948  12.413  0.0407  1.4269  0.5186
 5174TIP3    H236938   5.906   3.889  12.535 -0.0869 -0.5446 -0.3270
 5175TIP3   OH236939   5.069   3.443   1.468  0.4619  0.0501  0.7342
 5175TIP3    H136940   5.120   3.368   1.437  2.6876  1.2156  1.3536
 5175TIP3    H236941   5.086   3.513   1.405  1.0253  0.9572  1.8355
 5176TIP3   OH236942   5.721   3.820   6.197  0.1258  0.5080  0.4523
 5176TIP3    H136943   5.750   3.879   6.267  0.9801  0.4939  0.1289
 5176TIP3    H236944   5.793   3.758   6.187 -1.0263 -1.0116  1.2116
 5177TIP3   OH236945   2.326   0.004  15.065 -0.3639  0.2057  0.5665
 5177TIP3    H136946   2.353  -0.034  14.982 -0.5616  2.7188 -0.7377
 5177TIP3    H236947   2.399  -0.012  15.124 -0.4281 -2.0509  0.1086
 5178TIP3   OH236948   6.184   4.666  11.340 -0.1055  0.1203  0.1558
 5178TIP3    H136949   6.089   4.665  11.354 -0.1326  3.1374  0.7850
 5178TIP3    H236950   6.196   4.722  11.263  1.2307  0.9892  0.9802
 5179TIP3   OH236951   2.603   1.861  12.816 -1.0440  0.2285 -0.1620
 5179TIP3    H136952   2.651   1.792  12.771 -0.0208  1.0231 -0.3351
 5179TIP3    H236953   2.602   1.934  12.753  3.2717  2.5969  2.0514
 5180TIP3   OH236954   2.751   2.254  16.957  0.6116  0.2969  0.1669
 5180TIP3    H136955   2.676   2.282  17.009 -1.0258 -1.7736 -0.9153
 5180TIP3    H236956   2.788   2.180  17.006  0.8101  0.1539 -0.1916
 5181TIP3   OH236957   5.882   4.041   5.135 -0.8468 -0.6148  0.2053
 5181TIP3    H136958   5.848   3.953   5.151  0.7170 -0.9619  2.0308
 5181TIP3    H236959   5.838   4.096   5.199 -0.8652 -0.3071 -0.0667
 5182TIP3   OH236960   2.978   5.789   4.124 -0.2726 -0.1498 -0.1112
 5182TIP3    H136961   3.021   5.834   4.196  1.0518  1.1569 -1.6310
 5182TIP3    H236962   3.006   5.698   4.131  2.2791  0.5241 -0.6418
 5183TIP3   OH236963   5.555   6.084  12.951 -0.5229  0.3718  0.2457
 5183TIP3    H136964   5.483   6.029  12.979 -0.8075 -1.0454 -2.8097
 5183TIP3    H236965   5.515   6.148  12.893  0.2628  1.8221  1.2449
 5184TIP3   OH236966   5.200   3.601   4.455  0.1535  0.4422  0.9003
 5184TIP3    H136967   5.187   3.506   4.454 -0.5343  0.5330  0.2502
 5184TIP3    H236968   5.288   3.613   4.492  1.0115 -0.5411 -0.7065
 5185TIP3   OH236969   3.746   6.068  13.180  0.2310 -0.0369 -0.1351
 5185TIP3    H136970   3.840   6.069  13.167  0.1386  1.7569 -0.9700
 5185TIP3    H236971   3.712   6.021  13.103  0.4222 -0.7314  0.1927
 5186TIP3   OH236972   3.198   2.802  13.512 -0.2484 -0.1119 -0.1785
 5186TIP3    H136973   3.268   2.825  13.451  0.9793 -0.2174  1.1406
 5186TIP3    H236974   3.183   2.882  13.562  0.3205 -0.6275  0.8525
 5187TIP3   OH236975   4.448   5.806   5.373 -0.6779 -0.0695 -0.0261
 5187TIP3    H136976   4.358   5.825   5.347 -0.8164  1.5587  1.5311
 5187TIP3    H236977   4.494   5.889   5.364 -0.0309 -0.1825  1.9446
 5188TIP3   OH236978   5.348   4.833  11.539  0.4157  0.2036 -0.7120
 5188TIP3    H136979   5.317   4.831  11.448 -2.2334  1.1354  0.0776
 5188TIP3    H236980   5.298   4.904  11.580  1.0478 -0.6010  1.6283
 5189TIP3   OH236981   6.473   2.788   5.740 -0.5319  0.4637  0.0935
 5189TIP3    H136982   6.381   2.782   5.715 -0.3631  0.4979 -0.5713
 5189TIP3    H236983   6.481   2.873   5.783 -1.1803 -0.3255  1.8556
 5190TIP3   OH236984   0.485   6.388  13.149 -0.5085  0.2762 -0.1495
 5190TIP3    H136985   0.485   6.419  13.239 -1.3184 -0.5095  0.1242
 5190TIP3    H236986   0.426   6.313  13.148  0.8836 -0.8854 -0.9322
 5191TIP3   OH236987   5.803   2.823  13.984  0.0141 -0.5155  0.1648
 5191TIP3    H136988   5.871   2.758  14.001  0.1943 -0.0930  1.1340
 5191TIP3    H236989   5.816   2.890  14.051 -0.1794  0.5200 -0.8066
 5192TIP3   OH236990   0.266   6.336   0.164 -0.4557 -0.4068 -0.0021
 5192TIP3    H136991   0.328   6.409   0.164 -0.4501 -0.4119 -0.0506
 5192TIP3    H236992   0.216   6.347   0.245 -0.5143 -0.2992 -0.0536
 5193TIP3   OH236993   5.227   4.459  14.661 -0.0549  0.5868 -0.1414
 5193TIP3    H136994   5.156   4.495  14.715 -0.3895 -0.6832  0.2997
 5193TIP3    H236995   5.226   4.365  14.680  0.9359  0.3682 -1.0898
 5194TIP3   OH236996   2.439   3.985  13.006  0.0446  0.2570 -0.5466
 5194TIP3    H136997   2.503   3.928  13.048 -0.3666  0.0987 -0.1206
 5194TIP3    H236998   2.458   3.978  12.912 -0.6017 -1.3580 -0.5926
 5195TIP3   OH236999   5.548   6.291   2.274  0.8011 -0.2148 -0.3830
 5195TIP3    H137000   5.523   6.373   2.318 -0.1401 -0.7792  0.1635
 5195TIP3    H237001   5.465   6.249   2.252  1.2685 -0.5486 -1.5960
 5196TIP3   OH237002   2.505   2.432  11.408  0.0923  0.2167 -0.4458
 5196TIP3    H137003   2.516   2.363  11.343  1.5338  0.9194 -0.9907
 5196TIP3    H237004   2.579   2.491  11.393 -0.0189  0.8435  1.2878
 5197TIP3   OH237005   2.863   1.999  17.053  0.2490  0.0873 -0.0991
 5197TIP3    H137006   2.951   1.980  17.085  0.4670  2.3079  0.8431
 5197TIP3    H237007   2.805   1.977  17.126  0.2961  0.9320  0.2053
 5198TIP3   OH237008   3.136   2.136   2.378  0.0133 -0.0094 -0.3232
 5198TIP3    H137009   3.045   2.150   2.403  0.5077  1.0055  1.0095
 5198TIP3    H237010   3.147   2.190   2.299 -0.4336  0.1904 -0.2562
 5199TIP3   OH237011   4.665   2.705   0.319 -0.2005  0.0493 -0.3055
 5199TIP3    H137012   4.687   2.741   0.404  0.5960  0.7272 -0.7920
 5199TIP3    H237013   4.617   2.774   0.275 -1.9024 -0.8083  0.1052
 5200TIP3   OH237014   5.290   6.596  16.366  0.1847 -0.1952  0.3741
 5200TIP3    H137015   5.250   6.565  16.285  1.1860 -0.9753  0.1587
 5200TIP3    H237016   5.230   6.664  16.398 -0.8456 -0.7276 -0.3720
 5201TIP3   OH237017   5.808   0.565  16.993 -0.1476  0.0997  0.1420
 5201TIP3    H137018   5.830   0.658  17.007  0.2440 -0.1937  1.7890
 5201TIP3    H237019   5.763   0.563  16.909 -0.8325  1.8965  0.4187
 5202TIP3   OH237020   0.896   2.892  16.927 -0.4861 -0.0918 -0.3903
 5202TIP3    H137021   0.975   2.851  16.891 -0.0923 -0.1813  0.5407
 5202TIP3    H237022   0.929   2.956  16.990 -1.1329 -1.8945  1.9335
 5203TIP3   OH237023   4.262   6.340  16.642  0.5565 -0.1512  0.6368
 5203TIP3    H137024   4.226   6.261  16.601 -0.8556 -0.2245  1.9200
 5203TIP3    H237025   4.272   6.316  16.734  1.8026  0.6227  0.7107
 5204TIP3   OH237026   5.043   5.171   6.274  0.2801  0.1538 -0.4812
 5204TIP3    H137027   4.999   5.256   6.287 -1.8626 -0.8488 -0.6804
 5204TIP3    H237028   5.096   5.184   6.195 -1.6405  0.7709 -1.7545
 5205TIP3   OH237029   6.120   5.354   3.920 -0.8186  0.2576  0.6407
 5205TIP3    H137030   6.131   5.334   3.828  0.7824 -1.4373  1.1344
 5205TIP3    H237031   6.026   5.349   3.936 -1.1310  0.7626 -0.9007
 5206TIP3   OH237032   2.349   3.579  16.293 -0.3478 -0.4405 -0.0945
 5206TIP3    H137033   2.436   3.613  16.272 -0.4108 -0.7427 -0.8685
 5206TIP3    H237034   2.314   3.642  16.357 -0.1513  0.5250 -0.9068
 5207TIP3   OH237035   3.369   5.014  14.165  0.0654  0.2391  0.6951
 5207TIP3    H137036   3.355   5.037  14.073  1.9602  2.1035  0.7975
 5207TIP3    H237037   3.463   5.027  14.179 -0.4897  2.1721  3.4071
 5208TIP3   OH237038   2.568   5.845   5.852 -0.4624 -0.3586  0.5779
 5208TIP3    H137039   2.516   5.913   5.808 -0.2175  0.0248  0.8824
 5208TIP3    H237040   2.557   5.862   5.945 -0.1001 -0.5183  0.6495
 5209TIP3   OH237041   2.656   5.153   6.574 -0.8354  0.6593 -0.3906
 5209TIP3    H137042   2.680   5.237   6.535 -1.6179  1.5315  0.8979
 5209TIP3    H237043   2.733   5.127   6.624  0.0271 -0.2706 -2.1404
 5210TIP3   OH237044   3.406   1.924  16.716  0.5689 -0.2529 -0.1496
 5210TIP3    H137045   3.312   1.925  16.733  0.5004 -1.2695 -0.4226
 5210TIP3    H237046   3.427   1.833  16.697  1.4363  0.1113 -1.0734
 5211TIP3   OH237047   1.281   3.993  15.291 -0.1997 -0.0635  0.2215
 5211TIP3    H137048   1.247   4.034  15.211 -0.0896 -0.0490  0.1814
 5211TIP3    H237049   1.286   4.064  15.355 -1.3239 -0.2831  0.5780
 5212TIP3   OH237050   4.221   4.145  16.312  0.4209 -0.5964 -0.0239
 5212TIP3    H137051   4.126   4.139  16.318  0.2739 -0.3946 -1.6057
 5212TIP3    H237052   4.252   4.056  16.330  0.0107 -0.4842  1.3339
 5213TIP3   OH237053   2.740   2.248  12.258 -0.6407 -0.2261  0.0877
 5213TIP3    H137054   2.653   2.224  12.292 -0.8863  1.3254  0.6246
 5213TIP3    H237055   2.768   2.171  12.208 -0.1634 -2.7839  3.8585
 5214TIP3   OH237056   0.469   3.565  11.623  0.0634 -0.0455 -0.4974
 5214TIP3    H137057   0.408   3.619  11.673  0.7224  0.1787  0.0719
 5214TIP3    H237058   0.444   3.475  11.644  0.6037  0.0448  0.5851
 5215TIP3   OH237059   3.415   6.421  14.709 -0.3848  0.0229 -0.2310
 5215TIP3    H137060   3.482   6.354  14.721 -0.3448 -0.2239 -1.6599
 5215TIP3    H237061   3.350   6.379  14.653 -1.4693  0.4569  0.6555
 5216TIP3   OH237062   6.223   4.205   1.536  0.5882 -0.5357 -0.0004
 5216TIP3    H137063   6.269   4.138   1.586 -0.0141 -0.4869  0.6229
 5216TIP3    H237064   6.188   4.265   1.602  0.9817  0.3099 -0.5358
 5217TIP3   OH237065   6.520   5.974   3.970  0.0432  0.6503 -0.0772
 5217TIP3    H137066   6.527   5.882   3.994  0.6387  0.7489  0.1586
 5217TIP3    H237067   6.455   6.010   4.031 -1.8643 -0.0670 -1.5908
 5218TIP3   OH237068   0.442   1.750  11.621  0.7557 -0.2381 -0.9718
 5218TIP3    H137069   0.404   1.838  11.626 -0.1257 -0.6684  0.3875
 5218TIP3    H237070   0.516   1.752  11.682  1.3567 -0.1808 -1.6717
 5219TIP3   OH237071   1.230   0.432  15.927  0.0384 -0.6628 -0.2629
 5219TIP3    H137072   1.213   0.468  16.014 -1.3920 -1.3853 -0.2116
 5219TIP3    H237073   1.280   0.353  15.943 -0.0926 -0.7141 -0.1009
 5220TIP3   OH237074   1.845   3.513  15.076  0.7599 -0.3370  0.0551
 5220TIP3    H137075   1.779   3.470  15.131  2.2815 -0.0412  2.2740
 5220TIP3    H237076   1.924   3.461  15.089  1.4395  0.3788 -1.0756
 5221TIP3   OH237077   2.895   6.169   0.421 -0.1612 -0.1141 -0.1302
 5221TIP3    H137078   2.822   6.153   0.480  0.3320  0.2801  0.5977
 5221TIP3    H237079   2.956   6.097   0.439  1.1886  1.3944  1.7732
 5222TIP3   OH237080   6.183   1.958  15.426 -0.9216 -0.0906  0.2060
 5222TIP3    H137081   6.135   2.016  15.484  0.6216  0.3692  1.0790
 5222TIP3    H237082   6.238   1.905  15.484  0.4199  0.1510 -0.7783
 5223TIP3   OH237083   6.745   5.998   1.002 -0.2725  0.3744 -0.3319
 5223TIP3    H137084   6.694   5.932   0.953  0.3965  0.8015 -1.6515
 5223TIP3    H237085   6.723   5.981   1.094  1.4448 -3.0954 -0.3766
 5224TIP3   OH237086   5.624   0.283   1.236 -0.0788  0.6540 -0.7393
 5224TIP3    H137087   5.612   0.238   1.152 -0.5029  1.3849 -1.0800
 5224TIP3    H237088   5.623   0.213   1.301  0.9957  0.0055 -1.4042
 5225TIP3   OH237089   2.380   0.650  15.701  0.5418  0.1973 -0.1895
 5225TIP3    H137090   2.347   0.665  15.612 -0.5128 -0.6701  0.0254
 5225TIP3    H237091   2.301   0.635  15.753  1.2495 -2.0061  0.3574
 5226TIP3   OH237092   2.234   2.734  13.777 -0.1862  0.0543 -0.6940
 5226TIP3    H137093   2.299   2.803  13.763 -0.5986  0.8410  1.0476
 5226TIP3    H237094   2.192   2.757  13.860 -0.6043 -2.0913 -0.2678
 5227TIP3   OH237095   0.411   6.392  13.739  0.4329 -0.2666 -0.4822
 5227TIP3    H137096   0.488   6.445  13.762 -0.6927  1.1994  0.0229
 5227TIP3    H237097   0.337   6.453  13.745 -0.9834 -1.9965  0.5427
 5228TIP3   OH237098   5.768   2.655   5.448  0.3716 -0.4495  0.0312
 5228TIP3    H137099   5.718   2.717   5.502 -1.2375 -2.0720  0.5144
 5228TIP3    H237100   5.754   2.686   5.358 -0.8931 -0.4134  0.2183
 5229TIP3   OH237101   1.124   3.464   3.210 -0.0704  0.0216 -0.0582
 5229TIP3    H137102   1.194   3.433   3.268 -0.5752 -0.9278  0.0607
 5229TIP3    H237103   1.152   3.552   3.184  0.5934  0.1141  0.9183
 5230TIP3   OH237104   3.788   0.257   1.532 -0.4825  0.0871 -0.5678
 5230TIP3    H137105   3.720   0.217   1.478 -0.4881  0.4913 -0.8647
 5230TIP3    H237106   3.866   0.255   1.477  0.3266 -2.3486  0.5375
 5231TIP3   OH237107   0.675   6.238   1.863  0.2578 -0.2631 -0.3475
 5231TIP3    H137108   0.663   6.232   1.769  0.1152  1.9125 -0.5138
 5231TIP3    H237109   0.600   6.192   1.900  2.2210 -4.5694 -1.1431
 5232TIP3   OH237110   5.881   1.117   4.437  0.5389  0.0929 -0.3520
 5232TIP3    H137111   5.917   1.197   4.474 -0.0184  0.5599 -0.8081
 5232TIP3    H237112   5.787   1.122   4.454  0.8298 -2.1454  2.8049
 5233TIP3   OH237113   1.644   4.792   5.494 -0.3551  0.0796 -0.3228
 5233TIP3    H137114   1.639   4.884   5.467  0.6124  0.4766  0.7680
 5233TIP3    H237115   1.610   4.791   5.583 -0.3732 -0.6244 -0.3333
 5234TIP3   OH237116   3.733   3.810   0.993 -0.1509 -0.0893 -0.6460
 5234TIP3    H137117   3.741   3.905   0.988 -4.7455  0.6598  1.3718
 5234TIP3    H237118   3.770   3.787   1.078  2.4468 -0.5156 -1.7857
 5235TIP3   OH237119   3.009   3.509  16.768  0.1114  0.2059 -0.2172
 5235TIP3    H137120   3.009   3.424  16.810  1.9191 -0.1504 -0.8513
 5235TIP3    H237121   3.049   3.493  16.682 -0.3473  1.5310 -0.7035
 5236TIP3   OH237122   2.135   4.010   2.505  0.2347  0.4718  0.2290
 5236TIP3    H137123   2.128   4.101   2.477 -0.3857  0.2833 -0.2456
 5236TIP3    H237124   2.067   3.999   2.571 -0.8001 -0.0604 -0.8757
 5237TIP3   OH237125   2.824   1.422   5.492 -0.0358  0.3882 -0.0020
 5237TIP3    H137126   2.897   1.366   5.465 -1.0137 -1.1876  0.4501
 5237TIP3    H237127   2.746   1.379   5.456 -1.0097  0.3361  2.0085
 5238TIP3   OH237128   6.659   4.914   2.398  0.1780  0.6883  0.0266
 5238TIP3    H137129   6.615   4.978   2.453 -0.3560  0.5152 -0.1914
 5238TIP3    H237130   6.664   4.955   2.311  2.3256  1.5659  0.4948
 5239TIP3   OH237131   3.677   1.810   2.729 -0.3656  0.5361  0.1261
 5239TIP3    H137132   3.628   1.891   2.718 -0.3692  0.4194 -0.7577
 5239TIP3    H237133   3.613   1.747   2.763 -0.6076  0.6266 -0.1653
 5240TIP3   OH237134   2.270   0.185   2.300 -0.3496 -0.3281  0.3944
 5240TIP3    H137135   2.358   0.148   2.301 -0.2546 -0.1870 -1.0723
 5240TIP3    H237136   2.250   0.201   2.392  0.5050 -1.8865  0.8851
 5241TIP3   OH237137   2.333   2.848   2.249 -0.1822 -0.0172  0.2103
 5241TIP3    H137138   2.295   2.785   2.188 -3.4825  1.0177  0.9813
 5241TIP3    H237139   2.264   2.912   2.264  2.3648  2.8087  0.9015
 5242TIP3   OH237140   6.499   1.439  12.737 -0.3763  0.1316  0.3179
 5242TIP3    H137141   6.534   1.385  12.666 -0.2889 -0.5373  0.8548
 5242TIP3    H237142   6.423   1.389  12.769 -0.2464  0.2893  0.8794
 5243TIP3   OH237143   2.390   2.755  16.758  0.0758  0.2097 -0.7295
 5243TIP3    H137144   2.452   2.728  16.690  1.5071 -1.9527  1.2817
 5243TIP3    H237145   2.411   2.847  16.773  1.8116 -0.0752 -1.1604
 5244TIP3   OH237146   6.642   5.988  13.230 -0.5823 -0.2325  0.0342
 5244TIP3    H137147   6.598   6.070  13.253 -0.8371  0.0333 -1.2933
 5244TIP3    H237148   6.659   5.945  13.314 -2.1696  0.2834  0.6612
 5245TIP3   OH237149   5.784   6.300  17.203  0.3618 -0.6116 -0.3051
 5245TIP3    H137150   5.690   6.311  17.190  0.5316  0.5440 -0.6397
 5245TIP3    H237151   5.791   6.235  17.272 -0.7156  0.3947  0.7961
 5246TIP3   OH237152   3.157   0.496   3.377 -0.2022 -0.2029 -0.0863
 5246TIP3    H137153   3.207   0.558   3.430  0.4289 -0.4061 -0.4404
 5246TIP3    H237154   3.167   0.528   3.287 -1.8420  0.5443 -0.0437
 5247TIP3   OH237155   4.318   3.449   5.905  0.1145  0.3941 -0.5426
 5247TIP3    H137156   4.240   3.394   5.905  1.7120 -2.0473  0.7292
 5247TIP3    H237157   4.374   3.410   5.837  1.2499  0.4496  0.3393
 5248TIP3   OH237158   2.998   5.049   5.128  0.3373  0.2273 -0.5255
 5248TIP3    H137159   3.047   5.061   5.046  2.3134 -2.0431  0.2282
 5248TIP3    H237160   2.995   5.136   5.167  1.4331  0.9068 -1.8775
 5249TIP3   OH237161   0.474   1.269  12.500  0.4856 -0.2057  0.0068
 5249TIP3    H137162   0.525   1.281  12.420  0.8946 -1.1487  0.1166
 5249TIP3    H237163   0.539   1.254  12.569  0.0817 -1.1111  0.2066
 5250TIP3   OH237164   0.838   5.704  13.196 -0.8551  0.0573  0.0021
 5250TIP3    H137165   0.911   5.648  13.172  0.6626  1.8567  0.1773
 5250TIP3    H237166   0.764   5.671  13.144 -0.0564 -2.0291  0.1015
 5251TIP3   OH237167   0.848   6.480  12.033  0.3301 -0.0743  0.0879
 5251TIP3    H137168   0.754   6.498  12.042  0.0502 -1.4267  0.1670
 5251TIP3    H237169   0.862   6.475  11.939 -0.3118 -2.6434  0.0480
 5252TIP3   OH237170   5.597   5.999   0.454 -1.0517  0.1696  0.2506
 5252TIP3    H137171   5.558   6.081   0.483 -0.5619 -0.3215  2.4452
 5252TIP3    H237172   5.533   5.962   0.394 -1.1021  2.3203 -1.1419
 5253TIP3   OH237173   5.188   6.170   3.893 -0.6586 -0.1939 -0.1946
 5253TIP3    H137174   5.192   6.239   3.959  1.3240 -0.0306 -0.4301
 5253TIP3    H237175   5.278   6.141   3.883 -1.2094 -1.6283 -1.3728
 5254TIP3   OH237176   1.948   2.417   2.915  0.4716  0.1544 -0.1964
 5254TIP3    H137177   2.039   2.422   2.947 -0.0558 -1.3498  1.7847
 5254TIP3    H237178   1.914   2.336   2.954 -1.3638  0.0221 -1.9256
 5255TIP3   OH237179   6.757   2.619   0.233 -0.3315  0.3711 -0.9370
 5255TIP3    H137180   6.781   2.710   0.254 -2.6438  0.8976 -0.3516
 5255TIP3    H237181   6.833   2.568   0.261  0.6833  2.0240 -0.4768
 5256TIP3   OH237182   6.245   4.575  13.873 -0.0129 -0.4577 -0.2358
 5256TIP3    H137183   6.287   4.519  13.939 -0.4061 -0.8157 -0.2830
 5256TIP3    H237184   6.259   4.664  13.904 -1.2013 -0.6477  0.9718
 5257TIP3   OH237185   4.333   3.599   4.736  0.3963 -0.2662  0.1982
 5257TIP3    H137186   4.416   3.554   4.724  0.4626  0.0539 -0.6010
 5257TIP3    H237187   4.292   3.597   4.649 -0.8899 -1.3159  0.8024
 5258TIP3   OH237188   0.031   6.349   2.936 -0.7936 -0.2208 -0.8678
 5258TIP3    H137189  -0.006   6.376   2.851 -1.5158  0.1519 -0.4416
 5258TIP3    H237190  -0.012   6.406   3.000  0.1087 -0.1648 -0.2922
 5259TIP3   OH237191   4.543   5.132  12.493 -0.2712  0.1316  0.1277
 5259TIP3    H137192   4.595   5.194  12.545 -0.4910  0.3014  0.1458
 5259TIP3    H237193   4.608   5.072  12.456 -0.1303 -0.1402  0.7971
 5260TIP3   OH237194   3.413   4.318   2.654 -0.3094 -0.3999 -0.5991
 5260TIP3    H137195   3.370   4.369   2.723 -0.7146 -1.3023 -0.1767
 5260TIP3    H237196   3.455   4.246   2.700  1.7988  0.5097 -0.9882
 5261TIP3   OH237197   4.130   2.072  12.599  0.1459 -0.6833 -0.1654
 5261TIP3    H137198   4.037   2.086  12.582  0.4284  0.4226 -0.9438
 5261TIP3    H237199   4.171   2.155  12.575  0.9998 -0.0469  3.0549
 5262TIP3   OH237200   4.037   0.332  13.898 -0.1557  0.5935  0.2552
 5262TIP3    H137201   4.095   0.345  13.823 -1.1764 -0.8934 -0.8580
 5262TIP3    H237202   4.027   0.237  13.904 -1.8443  0.7783  0.8865
 5263TIP3   OH237203   4.845   2.052  15.442  0.2860 -0.0112 -0.1881
 5263TIP3    H137204   4.781   1.981  15.445 -1.8301  1.8219  1.6732
 5263TIP3    H237205   4.922   2.018  15.488 -1.2356 -0.6396  2.0101
 5264TIP3   OH237206   1.761   3.991   2.508 -0.1692  0.1074  0.0691
 5264TIP3    H137207   1.675   3.951   2.496  0.3902 -0.7375 -1.3866
 5264TIP3    H237208   1.744   4.073   2.555 -1.6454 -0.4979  0.6320
 5265TIP3   OH237209   5.866   1.095   3.559 -0.7455  0.1148  0.5836
 5265TIP3    H137210   5.803   1.160   3.590 -1.0153  1.3079 -2.2155
 5265TIP3    H237211   5.813   1.027   3.519 -0.3520 -0.6927  1.3956
 5266TIP3   OH237212   0.012   1.000   4.558 -0.2646  0.6670  0.7554
 5266TIP3    H137213   0.103   0.973   4.547 -0.6190 -0.6090  0.8416
 5266TIP3    H237214  -0.020   0.951   4.634 -1.4623 -0.1035 -0.1956
 5267TIP3   OH237215   0.323   6.564   3.304 -0.0640  0.4250 -0.7140
 5267TIP3    H137216   0.405   6.542   3.348 -0.3822  1.1166  0.2581
 5267TIP3    H237217   0.350   6.604   3.221  0.5352 -1.7897 -1.6639
 5268TIP3   OH237218   0.354   3.345   1.127  0.1336 -0.0245 -0.4083
 5268TIP3    H137219   0.420   3.410   1.151 -1.2135  0.1631  3.5232
 5268TIP3    H237220   0.296   3.340   1.204 -1.1054 -4.3162 -1.3552
 5269TIP3   OH237221   1.084   1.529   2.237 -0.6026 -0.0141 -0.1419
 5269TIP3    H137222   1.033   1.548   2.158 -1.0892 -1.2313 -0.1298
 5269TIP3    H237223   1.022   1.489   2.297  0.1095 -0.4940  0.2879
 5270TIP3   OH237224   0.162   4.990   0.198  0.5934 -0.4522 -0.0965
 5270TIP3    H137225   0.251   4.998   0.234  0.0372 -1.8993  1.7305
 5270TIP3    H237226   0.110   4.955   0.269 -2.2259  3.1655 -0.0748
 5271TIP3   OH237227   1.253   5.034  14.360 -0.2057  0.5747  0.2020
 5271TIP3    H137228   1.313   5.021  14.286 -0.0893  0.4436  0.3181
 5271TIP3    H237229   1.256   5.128  14.377  0.2691  0.5149  0.4581
 5272TIP3   OH237230   3.799   0.051   3.162 -0.1681  0.3091 -0.8626
 5272TIP3    H137231   3.761   0.081   3.079  0.6400  2.2506 -0.5925
 5272TIP3    H237232   3.873   0.110   3.178  0.5502 -0.8937  0.5671
 5273TIP3   OH237233   5.556   4.586  15.291  0.6793  0.2806 -0.0512
 5273TIP3    H137234   5.478   4.637  15.313  0.6984 -0.0159  0.7241
 5273TIP3    H237235   5.527   4.495  15.290  1.2533  0.0619  1.4075
 5274TIP3   OH237236   2.198   4.858  12.115  0.0521 -0.5343 -0.0204
 5274TIP3    H137237   2.231   4.789  12.173  0.4338  0.6387  1.2175
 5274TIP3    H237238   2.177   4.813  12.034 -0.0670 -2.1634  0.8748
 5275TIP3   OH237239   2.289   4.943  13.886 -0.5022 -0.2520 -0.0029
 5275TIP3    H137240   2.370   4.897  13.863 -0.2257  1.0779 -1.8864
 5275TIP3    H237241   2.228   4.873  13.912  0.4685 -1.5041 -0.9839
 5276TIP3   OH237242   0.454   1.307   2.187  0.1183  0.0206 -0.3184
 5276TIP3    H137243   0.427   1.385   2.236  1.5812  0.0149  0.5394
 5276TIP3    H237244   0.550   1.305   2.195  0.0489 -2.6530  0.8886
 5277TIP3   OH237245   1.005   2.378  15.769  0.2866  0.4659 -0.2282
 5277TIP3    H137246   1.095   2.360  15.796 -0.4723  0.6663  2.7986
 5277TIP3    H237247   0.957   2.298  15.791 -0.6798  1.2041  0.4160
 5278TIP3   OH237248   3.774   1.470  15.931  0.2930 -0.3733  0.0264
 5278TIP3    H137249   3.723   1.491  15.853  0.1526 -0.4640  0.0944
 5278TIP3    H237250   3.716   1.416  15.984 -0.1366  0.8204  0.8349
 5279TIP3   OH237251   2.679   6.346   4.931 -0.0032 -0.4985  0.3654
 5279TIP3    H137252   2.734   6.336   4.854 -1.3215  0.9902 -0.8100
 5279TIP3    H237253   2.737   6.385   4.997  0.7500 -0.4015 -0.3398
 5280TIP3   OH237254   0.814   3.420  12.027  0.2023  0.1965 -0.2605
 5280TIP3    H137255   0.725   3.435  12.056 -0.0356 -0.1722 -0.7701
 5280TIP3    H237256   0.856   3.373  12.099 -0.1152  0.0747 -0.1541
 5281TIP3   OH237257   0.400   2.663  12.903  0.2334  0.2467 -0.0726
 5281TIP3    H137258   0.419   2.676  12.996 -0.9233 -1.9209  0.5575
 5281TIP3    H237259   0.325   2.719  12.885  0.9727  1.3012  0.0548
 5282TIP3   OH237260   4.883   4.504   3.148 -0.0756 -0.3744 -0.3068
 5282TIP3    H137261   4.940   4.433   3.177  0.3180  0.3023  0.6579
 5282TIP3    H237262   4.923   4.537   3.068  1.9034  1.1674  1.2137
 5283TIP3   OH237263   0.900   0.434  14.745 -0.0497 -0.1501 -0.2164
 5283TIP3    H137264   0.979   0.465  14.788  0.0817 -2.0236  1.0075
 5283TIP3    H237265   0.932   0.377  14.674 -0.2550 -1.3094  0.5913
 5284TIP3   OH237266   3.139   3.799  12.190  0.9312  0.2284  0.1377
 5284TIP3    H137267   3.233   3.807  12.174  0.8731  0.8531  0.1094
 5284TIP3    H237268   3.104   3.886  12.172  0.3931  0.0817  0.4655
 5285TIP3   OH237269   5.714   5.545   4.050  0.2934  0.1770  0.2412
 5285TIP3    H137270   5.776   5.613   4.024  0.7977  0.7813  2.7719
 5285TIP3    H237271   5.764   5.463   4.044  0.1747  0.1964 -1.2503
 5286TIP3   OH237272   5.404   4.072   2.520  0.5660  0.1024 -0.6854
 5286TIP3    H137273   5.421   4.066   2.426  0.5822  0.4993 -0.7082
 5286TIP3    H237274   5.427   4.162   2.543  3.2607 -0.7264  0.2403
 5287TIP3   OH237275   0.114   5.506  14.866  0.2028 -0.0232  0.4198
 5287TIP3    H137276   0.181   5.548  14.812  0.3807  0.3413  0.9136
 5287TIP3    H237277   0.044   5.571  14.872  0.0177 -0.2124  0.3108
 5288TIP3   OH237278   4.580   3.931  15.766 -0.2717  0.1736 -0.1194
 5288TIP3    H137279   4.512   3.998  15.760 -1.4513 -0.8492  1.2140
 5288TIP3    H237280   4.600   3.909  15.674 -0.1463  2.0096 -0.5670
 5289TIP3   OH237281   1.420   2.630   3.489 -0.3223 -0.1618 -0.0142
 5289TIP3    H137282   1.364   2.600   3.561 -1.3746  0.0976 -0.6918
 5289TIP3    H237283   1.504   2.586   3.504  0.3236  1.7256  2.7024
 5290TIP3   OH237284   2.636   3.465  15.685 -0.2164 -0.1186  0.2142
 5290TIP3    H137285   2.553   3.512  15.673  0.2816  0.6114 -0.5122
 5290TIP3    H237286   2.696   3.531  15.720  1.1681  0.5572 -3.0380
 5291TIP3   OH237287   6.287   2.998   0.976 -0.3656 -0.4737 -0.2579
 5291TIP3    H137288   6.217   2.934   0.984  0.2814 -0.9597  1.8971
 5291TIP3    H237289   6.290   3.043   1.060  2.5864 -1.1946  0.1409
 5292TIP3   OH237290   1.052   6.182   3.492 -0.2585  0.2355 -0.2740
 5292TIP3    H137291   1.099   6.264   3.509  1.2271 -0.8031  0.9889
 5292TIP3    H237292   0.974   6.187   3.547  0.1334  0.5638  0.2621
 5293TIP3   OH237293   1.045   1.834  15.816 -0.2174 -0.5428 -0.0245
 5293TIP3    H137294   1.084   1.854  15.730 -0.1527  0.8557  0.3006
 5293TIP3    H237295   1.107   1.871  15.879 -1.3576  0.4783  0.5379
 5294TIP3   OH237296   6.592   0.168  14.384  0.0681  0.1834 -0.2686
 5294TIP3    H137297   6.599   0.200  14.475  0.7659 -1.3394  0.2389
 5294TIP3    H237298   6.523   0.221  14.346 -0.1689  0.9337  1.1262
 5295TIP3   OH237299   5.259   3.025   4.928 -0.2936  0.5240 -0.4361
 5295TIP3    H137300   5.295   3.032   4.839 -0.0761  2.8987 -0.2375
 5295TIP3    H237301   5.311   3.087   4.980 -2.5753  1.7492  0.5602
 5296TIP3   OH237302   4.243   0.005   4.441 -0.2788 -0.1374 -0.4998
 5296TIP3    H137303   4.318  -0.054   4.433 -1.0758 -1.0368 -1.7104
 5296TIP3    H237304   4.216  -0.004   4.533  1.0886  0.2242 -0.0387
 5297TIP3   OH237305   0.245   5.529  13.434 -0.4829 -0.0503 -0.0346
 5297TIP3    H137306   0.197   5.609  13.413 -0.7241 -0.3877 -0.8189
 5297TIP3    H237307   0.326   5.560  13.474 -1.0240  0.5497  0.6317
 5298TIP3   OH237308   5.374   0.264   5.505  0.7086 -0.3209 -0.2518
 5298TIP3    H137309   5.423   0.252   5.424  0.2284 -1.0783 -0.4396
 5298TIP3    H237310   5.428   0.223   5.573 -0.2992 -2.4931 -0.6832
 5299TIP3   OH237311   1.661   2.219  14.096 -0.4388  0.2596  0.6107
 5299TIP3    H137312   1.705   2.244  14.015  0.5613  0.7333  1.2710
 5299TIP3    H237313   1.623   2.133  14.078  1.1058 -0.3460  0.1276
 5300TIP3   OH237314   3.223   1.655   5.668  0.0900 -0.0688  0.2377
 5300TIP3    H137315   3.168   1.598   5.614 -0.5979 -1.1076  1.9457
 5300TIP3    H237316   3.305   1.606   5.678  0.7009  0.6954 -0.8752
 5301TIP3   OH237317   4.355   5.914  13.484 -0.0355  0.6868 -0.5196
 5301TIP3    H137318   4.413   5.982  13.450  1.2620  0.6223  1.3790
 5301TIP3    H237319   4.304   5.885  13.409  1.4690  1.6919 -1.9838
 5302TIP3   OH237320   5.421   1.098  14.717  0.3920  0.2072 -0.1078
 5302TIP3    H137321   5.456   1.011  14.699  1.3632  0.3300  1.0969
 5302TIP3    H237322   5.493   1.158  14.700  0.4605  0.5619  1.2931
 5303TIP3   OH237323   1.932   6.681  13.798 -0.0540 -0.0965  0.3431
 5303TIP3    H137324   1.860   6.708  13.741 -1.4384 -0.3387  1.9171
 5303TIP3    H237325   1.997   6.643  13.738 -0.6665  1.2329 -1.2477
 5304TIP3   OH237326   6.446   2.126   4.889 -0.1199 -0.4786  0.0476
 5304TIP3    H137327   6.361   2.081   4.892  0.4835 -1.5893  1.0881
 5304TIP3    H237328   6.502   2.067   4.839  0.6085 -0.7861  1.1966
 5305TIP3   OH237329   1.944   0.450   3.952  0.1555 -0.0318 -0.7333
 5305TIP3    H137330   1.869   0.476   4.006  0.6015  1.6890 -0.8939
 5305TIP3    H237331   1.912   0.374   3.903 -0.0461 -2.0856  2.3519
 5306TIP3   OH237332   5.754   2.678   5.155  0.4325  0.8338  0.2433
 5306TIP3    H137333   5.703   2.635   5.086  1.8861  0.4257 -0.6259
 5306TIP3    H237334   5.831   2.623   5.167 -0.6359 -0.1498  3.6007
 5307TIP3   OH237335   1.214   3.277   1.105  0.4396 -0.5401 -0.1554
 5307TIP3    H137336   1.206   3.187   1.137  2.4702 -0.0932  1.8052
 5307TIP3    H237337   1.128   3.316   1.122  0.3471 -1.3701  1.4280
 5308TIP3   OH237338   5.309   3.850  15.611 -0.2609 -0.3944  0.7845
 5308TIP3    H137339   5.284   3.901  15.688 -0.6903 -0.3023  0.5866
 5308TIP3    H237340   5.281   3.903  15.536  1.7788  0.3676  0.5116
 5309TIP3   OH237341   3.485   2.578  14.838 -0.1352  0.0228  0.0010
 5309TIP3    H137342   3.428   2.614  14.770  0.1630  0.6542  0.0764
 5309TIP3    H237343   3.566   2.557  14.792  1.0828  2.9405  0.5530
 5310TIP3   OH237344   2.682   1.462  16.598  0.0364  0.2037 -0.2884
 5310TIP3    H137345   2.715   1.449  16.509  0.1467  2.5617 -0.6643
 5310TIP3    H237346   2.590   1.486  16.587 -0.2772 -0.6543  0.3391
 5311TIP3   OH237347   0.230   5.444   2.727 -0.3109  0.2815 -0.2806
 5311TIP3    H137348   0.280   5.502   2.784  0.2399 -1.0250  0.6078
 5311TIP3    H237349   0.266   5.459   2.640  1.2859 -0.2523  0.2670
 5312TIP3   OH237350   1.189   4.485  11.894 -0.3331  0.1304 -0.7922
 5312TIP3    H137351   1.162   4.433  11.818 -0.3065  1.1131 -1.4947
 5312TIP3    H237352   1.273   4.448  11.920 -0.0056  0.2245 -1.6858
 5313TIP3   OH237353   6.070   3.579   3.548 -0.1209  0.4275 -0.3262
 5313TIP3    H137354   6.040   3.563   3.459 -0.9377  0.1077 -0.0081
 5313TIP3    H237355   6.165   3.585   3.542 -0.1430 -0.0466 -1.1434
 5314TIP3   OH237356   2.659   0.715   2.455 -0.0970  0.5215 -0.2814
 5314TIP3    H137357   2.687   0.631   2.491  0.4429  0.8142 -0.0112
 5314TIP3    H237358   2.648   0.772   2.531  0.6343  1.0199 -0.5382
 5315TIP3   OH237359   2.456   3.309   3.418  0.2828 -0.6606 -0.1999
 5315TIP3    H137360   2.533   3.253   3.406  0.7965 -0.4517  1.7362
 5315TIP3    H237361   2.397   3.284   3.348  0.0699 -4.3995  1.0856
 5316TIP3   OH237362   1.394   0.058   6.306  0.0564  0.1804  0.1433
 5316TIP3    H137363   1.317   0.041   6.360 -0.7855  0.3355 -0.9707
 5316TIP3    H237364   1.454   0.105   6.364 -0.8532  0.4229  0.9170
 5317TIP3   OH237365   3.047   4.230  16.799 -0.4280 -0.4154 -0.0396
 5317TIP3    H137366   3.036   4.225  16.704 -2.2917 -1.1450  0.1827
 5317TIP3    H237367   2.959   4.246  16.833  0.0933 -0.8640  1.6088
 5318TIP3   OH237368   2.323   5.214  13.140 -0.4246 -0.1024  0.0434
 5318TIP3    H137369   2.357   5.128  13.166 -1.2840 -0.3164  0.5147
 5318TIP3    H237370   2.230   5.211  13.163 -0.3875  1.1041  0.4410
 5319TIP3   OH237371   6.177   6.658   3.871 -0.5054 -0.5024  0.3620
 5319TIP3    H137372   6.225   6.705   3.803  0.3728 -0.3962  1.0241
 5319TIP3    H237373   6.239   6.654   3.945 -1.8791  0.5647  1.6299
 5320TIP3   OH237374   5.950   1.356   4.640 -0.3216  0.7289 -0.1634
 5320TIP3    H137375   5.933   1.276   4.689 -0.8234  0.7989 -0.2201
 5320TIP3    H237376   6.019   1.332   4.578  0.8148  0.8188  1.0138
 5321TIP3   OH237377   6.424   2.908  14.567  0.1666 -0.2268  0.0728
 5321TIP3    H137378   6.331   2.890  14.554  0.1804 -0.3464  0.1440
 5321TIP3    H237379   6.438   2.899  14.661  0.2437 -0.1763  0.0667
 5322TIP3   OH237380   2.029   1.813   4.400 -0.5088 -0.4145  0.2033
 5322TIP3    H137381   2.087   1.815   4.324 -1.5115 -0.5871 -0.5851
 5322TIP3    H237382   2.069   1.874   4.462  0.0312  0.1662 -0.6908
 5323TIP3   OH237383   1.437   0.746   3.874  0.6127 -0.0193 -0.5561
 5323TIP3    H137384   1.412   0.659   3.846 -0.6916  0.4361 -0.8632
 5323TIP3    H237385   1.362   0.801   3.853  1.8667  1.4180 -1.5405
 5324TIP3   OH237386   2.421   2.317   3.197 -0.6522 -0.0425 -0.4572
 5324TIP3    H137387   2.442   2.224   3.208  0.0397  0.2744  1.0649
 5324TIP3    H237388   2.505   2.358   3.176 -0.2656  0.6969  2.1812
 5325TIP3   OH237389   2.270   5.654   3.670  0.4258 -0.5797  0.2477
 5325TIP3    H137390   2.293   5.723   3.608 -1.6596 -0.3425 -0.3552
 5325TIP3    H237391   2.238   5.582   3.615 -0.1184 -0.9037  0.9677
 5326TIP3   OH237392   6.565   3.841  12.115 -0.4821  0.0095  0.5960
 5326TIP3    H137393   6.608   3.915  12.073 -0.2184 -1.3053 -1.5800
 5326TIP3    H237394   6.623   3.817  12.187  0.3884  0.7338  0.1522
 5327TIP3   OH237395   0.605   1.294  13.332 -0.4966  0.4411  0.2154
 5327TIP3    H137396   0.606   1.344  13.250 -0.4344 -1.2326 -0.8576
 5327TIP3    H237397   0.587   1.204  13.305  1.6402 -0.5573  1.8170
 5328TIP3   OH237398   5.708   2.315  10.919  0.3548 -0.2765 -0.2088
 5328TIP3    H137399   5.690   2.404  10.888  0.5199  0.1601  0.9121
 5328TIP3    H237400   5.762   2.277  10.850 -1.7864 -0.4033 -1.9564
 5329TIP3   OH237401   1.572   2.042  16.205  0.1053 -0.0550  0.0337
 5329TIP3    H137402   1.612   1.957  16.227  0.0833 -0.5349 -1.6339
 5329TIP3    H237403   1.599   2.058  16.114  1.2240  2.3951  0.7285
 5330TIP3   OH237404   0.941   2.521   5.128  0.1816 -0.4444  0.1278
 5330TIP3    H137405   1.036   2.508   5.126  0.1593 -0.6992  0.7269
 5330TIP3    H237406   0.905   2.438   5.158 -0.1853 -0.1234  0.6003
 5331TIP3   OH237407   5.819   0.922  14.003 -0.2873  0.4847  0.2732
 5331TIP3    H137408   5.748   0.975  14.041  0.2782  0.8523  0.8604
 5331TIP3    H237409   5.791   0.832  14.016 -0.5868  0.6241  0.6401
 5332TIP3   OH237410   6.627   0.590  12.025 -0.3908 -0.3057  0.2845
 5332TIP3    H137411   6.592   0.613  11.939  1.8918  1.3261 -0.2941
 5332TIP3    H237412   6.659   0.501  12.015  0.2551  0.0190 -0.7405
 5333TIP3   OH237413   5.050   4.334   3.314 -0.2568 -0.1367  0.1999
 5333TIP3    H137414   5.089   4.382   3.387  1.6169  0.2853 -1.0239
 5333TIP3    H237415   5.020   4.252   3.354  0.2086  0.3136  1.5442
 5334TIP3   OH237416   4.762   1.235   0.858  0.1321  0.1085  0.2265
 5334TIP3    H137417   4.676   1.227   0.816 -0.0743  0.0427  0.6613
 5334TIP3    H237418   4.817   1.172   0.810  0.6221  1.9150 -1.7357
 5335TIP3   OH237419   2.140   0.506  11.935 -0.4113 -0.7778 -0.4060
 5335TIP3    H137420   2.217   0.514  11.879  0.4956 -0.5132  0.8347
 5335TIP3    H237421   2.126   0.412  11.944 -1.5849 -0.8347 -2.3883
 5336TIP3   OH237422   0.591   0.445   5.104 -0.0971  0.3951 -0.6714
 5336TIP3    H137423   0.628   0.476   5.187 -0.6028  0.6975 -0.5564
 5336TIP3    H237424   0.667   0.426   5.049  0.5087 -3.8351  1.2457
 5337TIP3   OH237425   2.299   1.130   5.641  0.4402 -0.4750 -0.1527
 5337TIP3    H137426   2.329   1.045   5.610 -0.0312  0.2034 -2.7094
 5337TIP3    H237427   2.368   1.161   5.699  1.5388 -1.7712 -0.7242
 5338TIP3   OH237428   1.071   5.787  15.112 -0.0095 -0.1948  0.4079
 5338TIP3    H137429   0.984   5.753  15.093 -0.6827  1.2554  0.6809
 5338TIP3    H237430   1.054   5.877  15.141  1.3727 -0.6042  2.7026
 5339TIP3   OH237431   2.902   3.839   1.882  0.0970 -0.1373  0.1414
 5339TIP3    H137432   2.972   3.780   1.853  0.1763  0.0804 -0.1124
 5339TIP3    H237433   2.923   3.922   1.840 -1.2820 -0.4997 -1.3675
 5340TIP3   OH237434   6.622   5.318   4.392 -0.9128 -0.4263 -0.2938
 5340TIP3    H137435   6.617   5.301   4.298  1.0252  0.4475 -0.5916
 5340TIP3    H237436   6.670   5.244   4.427 -0.0611  0.1253 -0.2793
 5341TIP3   OH237437   2.766   4.009  10.654 -0.2002 -0.4354 -0.0991
 5341TIP3    H137438   2.786   4.016  10.747 -3.5727 -0.9267  0.7906
 5341TIP3    H237439   2.785   3.917  10.633  1.9862  0.0332 -0.3384
 5342TIP3   OH237440   3.880   0.504  10.475 -0.1584 -0.0228  0.0621
 5342TIP3    H137441   3.803   0.466  10.518 -0.1908  1.4306  1.4135
 5342TIP3    H237442   3.844   0.552  10.400 -0.0477 -3.0344 -2.0588
 5343TIP3   OH237443   2.887   3.491   5.555 -0.8731  0.0014  0.2265
 5343TIP3    H137444   2.948   3.420   5.534  0.2642  0.7416  0.8794
 5343TIP3    H237445   2.884   3.544   5.475  1.2300  1.2561  0.9074
 5344TIP3   OH237446   1.327   4.836   5.280  0.7242 -0.5736  0.2266
 5344TIP3    H137447   1.351   4.885   5.201 -2.0311 -0.6903 -0.7787
 5344TIP3    H237448   1.336   4.744   5.255 -3.0466 -0.7560 -1.1922
 5345TIP3   OH237449   5.327   2.369  11.200  0.5992 -0.1672  0.0645
 5345TIP3    H137450   5.402   2.416  11.237  0.4958 -0.8247  1.1574
 5345TIP3    H237451   5.363   2.321  11.125  0.6499  1.8397 -1.2735
 5346TIP3   OH237452   2.388   0.094   2.825 -0.1418  0.5563 -0.1190
 5346TIP3    H137453   2.444   0.046   2.764 -0.9148  0.1740 -0.5399
 5346TIP3    H237454   2.326   0.140   2.768  0.4386  1.8938  0.2845
 5347TIP3   OH237455   3.366   1.464  14.169 -0.4079 -0.4158  0.3404
 5347TIP3    H137456   3.434   1.428  14.227 -1.1378 -2.1339  0.1949
 5347TIP3    H237457   3.366   1.558  14.188  0.5433 -0.6796  1.8845
 5348TIP3   OH237458   3.287   5.357  10.692 -0.0606 -0.1942  0.4270
 5348TIP3    H137459   3.313   5.443  10.660 -0.9256  0.2362  0.8332
 5348TIP3    H237460   3.263   5.309  10.613  1.3753 -0.4077  0.1064
 5349TIP3   OH237461   1.156   4.912   1.403  0.3370  0.5820 -0.0415
 5349TIP3    H137462   1.239   4.880   1.439  0.6225  0.0402 -1.1737
 5349TIP3    H237463   1.182   4.981   1.342  0.0827 -0.6574 -1.5954
 5350TIP3   OH237464   0.522   5.109  15.945 -0.1127  0.1013 -0.3505
 5350TIP3    H137465   0.452   5.170  15.921  0.4769  0.4964 -1.1565
 5350TIP3    H237466   0.594   5.132  15.885  0.9003  0.0786  0.8211
 5351TIP3   OH237467   5.383   3.976  10.910 -0.5025 -0.1068  0.6653
 5351TIP3    H137468   5.324   3.992  10.984  0.4240  0.6831  1.2611
 5351TIP3    H237469   5.356   4.039  10.844 -1.0404 -0.5080  0.4945
 5352TIP3   OH237470   5.070   6.537  16.575 -0.3632 -0.3048  0.1206
 5352TIP3    H137471   5.066   6.621  16.529  0.4484  0.8445  2.0311
 5352TIP3    H237472   5.158   6.536  16.613 -0.4394 -1.9472  0.2920
 5353TIP3   OH237473   3.307   4.465  13.743  0.0702 -0.3262 -1.0987
 5353TIP3    H137474   3.365   4.536  13.772 -0.5669 -0.0186 -0.5476
 5353TIP3    H237475   3.294   4.480  13.650  1.3749 -0.7596 -1.3654
 5354TIP3   OH237476   5.073   5.198  15.367  0.2453 -0.2597  0.1861
 5354TIP3    H137477   5.131   5.123  15.382  2.7726  1.2926 -1.2019
 5354TIP3    H237478   5.072   5.210  15.272 -0.0256  1.4843  0.3722
 5355TIP3   OH237479   4.785   2.963   0.942  0.0002 -0.1365  0.2258
 5355TIP3    H137480   4.694   2.934   0.950  0.1565 -0.6146  0.3474
 5355TIP3    H237481   4.780   3.045   0.894 -0.3794 -1.0124 -1.3273
 5356TIP3   OH237482   0.663   5.119  15.014  0.2913  0.1457  0.1425
 5356TIP3    H137483   0.615   5.049  15.057 -0.0836  1.0381  1.2278
 5356TIP3    H237484   0.756   5.099  15.030  0.3324 -1.3462 -1.5904
 5357TIP3   OH237485   3.591   5.041   2.353  0.1872  0.2434 -0.3837
 5357TIP3    H137486   3.502   5.020   2.380 -0.2661  0.2488 -1.7960
 5357TIP3    H237487   3.604   5.132   2.381  0.2772 -0.2095  1.0932
 5358TIP3   OH237488   0.161   0.004  16.040  0.4772 -0.2960  0.4058
 5358TIP3    H137489   0.120  -0.072  15.999 -0.5611 -0.1220  1.0888
 5358TIP3    H237490   0.096   0.035  16.103  1.4747  0.2748  1.1840
 5359TIP3   OH237491   2.736   1.060  15.219 -0.1982  0.0364 -0.3094
 5359TIP3    H137492   2.698   1.109  15.292  1.3929  2.4160 -0.9725
 5359TIP3    H237493   2.819   1.026  15.253  1.2521  2.3578 -1.2893
 5360TIP3   OH237494   3.687   4.692   5.105  0.3655 -0.8067 -0.2837
 5360TIP3    H137495   3.726   4.655   5.026 -0.7955 -1.1467 -0.7144
 5360TIP3    H237496   3.626   4.625   5.136  1.3411 -0.9998  1.3456
 5361TIP3   OH237497   3.833   2.317   0.862 -0.8534 -0.0431 -0.2625
 5361TIP3    H137498   3.890   2.381   0.819 -1.1458  0.4615  0.1033
 5361TIP3    H237499   3.866   2.311   0.951 -0.3241 -1.0027 -0.5057
 5362TIP3   OH237500   2.982   4.760  13.767  0.1603  0.1396 -0.1812
 5362TIP3    H137501   3.072   4.762  13.800  0.7541 -0.7258 -1.6553
 5362TIP3    H237502   2.976   4.677  13.719 -1.2004  0.5140 -0.6975
 5363TIP3   OH237503   5.391   0.953   4.504  0.1748 -0.2597 -0.5981
 5363TIP3    H137504   5.375   0.892   4.431 -0.9293 -0.6056 -0.0792
 5363TIP3    H237505   5.336   1.028   4.484  0.5432  0.0230 -0.5592
 5364TIP3   OH237506   5.776   0.841  12.216  0.3195 -0.3201  0.2687
 5364TIP3    H137507   5.818   0.896  12.150  1.2746 -0.5997  0.6307
 5364TIP3    H237508   5.698   0.890  12.241 -1.0322 -0.9806 -2.2952
 5365TIP3   OH237509   2.785   5.740   1.753  0.0257  0.4821  0.0059
 5365TIP3    H137510   2.830   5.734   1.837 -0.9348 -2.1989  0.4248
 5365TIP3    H237511   2.692   5.748   1.776 -0.3823 -1.6003 -0.7314
 5366TIP3   OH237512   4.041   4.036   5.972 -0.1132  0.4225 -0.4709
 5366TIP3    H137513   3.979   4.080   5.914  0.5054  0.3706 -1.1862
 5366TIP3    H237514   4.002   4.043   6.059 -0.8498  0.8741 -0.8309
 5367TIP3   OH237515   6.014   3.384  15.967  0.2583  0.6748  0.1578
 5367TIP3    H137516   6.109   3.383  15.979  0.4121  2.1251 -0.7269
 5367TIP3    H237517   5.992   3.476  15.958 -1.3579  0.4112  1.0919
 5368TIP3   OH237518   3.033   2.260  16.004  0.5319 -0.2963  0.2759
 5368TIP3    H137519   3.102   2.249  16.069 -0.5744 -0.3613  1.4913
 5368TIP3    H237520   2.998   2.348  16.020  0.7947  0.0179 -0.8058
 5369TIP3   OH237521   1.516   6.116  14.772  0.2804  0.1934 -0.1558
 5369TIP3    H137522   1.611   6.119  14.784  0.2815 -0.7500  0.1231
 5369TIP3    H237523   1.496   6.024  14.755 -0.4852  0.5135 -1.1253
 5370TIP3   OH237524   1.481   3.198   3.339  0.2594  1.0743  0.0092
 5370TIP3    H137525   1.467   3.277   3.287 -1.0028 -0.3868 -2.0689
 5370TIP3    H237526   1.522   3.136   3.277 -1.9778 -1.0018  0.4681
 5371TIP3   OH237527   4.448   2.904  10.791 -1.1228  0.2950 -0.4186
 5371TIP3    H137528   4.436   2.952  10.873  1.4816 -1.6335  1.2585
 5371TIP3    H237529   4.492   2.967  10.733  1.4260  0.3972  1.4234
 5372TIP3   OH237530   1.181   1.618   5.255  0.2537  0.0365 -0.2420
 5372TIP3    H137531   1.242   1.643   5.185 -0.1646  2.0293  0.0473
 5372TIP3    H237532   1.095   1.617   5.212  0.0475  0.8741  0.1289
 5373TIP3   OH237533   3.436   2.165  16.580 -0.4316 -0.3117 -0.0869
 5373TIP3    H137534   3.419   2.086  16.632  0.9178  0.2228  1.2433
 5373TIP3    H237535   3.365   2.225  16.604  0.2153 -0.0410  1.2669
 5374TIP3   OH237536   5.743   5.768  15.755 -0.3689  0.3720 -0.2645
 5374TIP3    H137537   5.653   5.794  15.777 -0.2575  0.3103  0.2931
 5374TIP3    H237538   5.736   5.677  15.727 -0.3194 -0.0563  1.0398
 5375TIP3   OH237539   4.089   4.796  12.722  0.2724 -0.2900 -0.0836
 5375TIP3    H137540   4.182   4.805  12.700  0.2180  0.7178  0.0319
 5375TIP3    H237541   4.086   4.730  12.791  0.9737  0.1514  0.3752
 5376TIP3   OH237542   2.370   3.025  13.235 -0.1313  0.3527 -0.2137
 5376TIP3    H137543   2.421   3.106  13.244 -0.7489  1.5577 -4.7449
 5376TIP3    H237544   2.285   3.047  13.272 -0.0995  1.5914 -0.8120
 5377TIP3   OH237545   5.499   1.578   2.247 -0.1284  0.3139  0.1143
 5377TIP3    H137546   5.537   1.666   2.248  1.3530 -0.3130  0.9879
 5377TIP3    H237547   5.441   1.577   2.323  0.1608  0.4091  0.3394
 5378TIP3   OH237548   4.678   6.121  16.540  0.5613  0.4858 -0.1705
 5378TIP3    H137549   4.702   6.048  16.596 -0.1044  0.5089  0.1563
 5378TIP3    H237550   4.710   6.097  16.453 -0.2890 -0.5371 -0.2282
 5379TIP3   OH237551   6.284   3.347   4.188  0.4968 -0.0046  0.1194
 5379TIP3    H137552   6.267   3.348   4.093 -2.3344 -1.9592  0.4620
 5379TIP3    H237553   6.330   3.429   4.205 -0.7336  1.4204 -2.6757
 5380TIP3   OH237554   0.156   3.686   2.614 -0.4076  0.4832  0.1026
 5380TIP3    H137555   0.078   3.637   2.642  0.1906  0.3179  1.5341
 5380TIP3    H237556   0.222   3.666   2.680  1.1252 -0.0270 -1.5130
 5381TIP3   OH237557   3.710   4.631   6.255 -0.6820  0.0688  0.1537
 5381TIP3    H137558   3.698   4.726   6.257 -2.0224 -0.0550 -0.7705
 5381TIP3    H237559   3.723   4.606   6.347 -1.5478  1.0095  0.5448
 5382TIP3   OH237560   1.908   2.365   0.942 -0.0462  0.6221  0.0949
 5382TIP3    H137561   1.861   2.324   0.869  1.0432  0.9304 -0.8133
 5382TIP3    H237562   1.933   2.451   0.909  1.3279  0.3826  0.4505
 5383TIP3   OH237563   4.454   1.183   6.068  0.1668 -0.0499  0.2519
 5383TIP3    H137564   4.405   1.181   5.986  2.5787 -0.8107 -1.2719
 5383TIP3    H237565   4.463   1.277   6.088 -0.6524  0.1385 -0.2186
 5384TIP3   OH237566   2.694   5.941   6.573 -0.1228 -0.0439  0.0461
 5384TIP3    H137567   2.745   6.019   6.549 -0.5903 -0.3172 -1.9904
 5384TIP3    H237568   2.659   5.962   6.659  0.4253  1.6689 -0.1016
 5385TIP3   OH237569   5.175   3.877  12.777 -0.1359 -0.8651 -0.7345
 5385TIP3    H137570   5.142   3.964  12.755  1.9237 -0.3303 -1.9981
 5385TIP3    H237571   5.106   3.817  12.748 -0.6665  0.2500 -1.8741
 5386TIP3   OH237572   1.425   3.455   4.096  0.0366 -0.3071 -0.0087
 5386TIP3    H137573   1.455   3.528   4.043 -2.2526 -0.0074 -1.0002
 5386TIP3    H237574   1.330   3.467   4.104 -0.0265 -1.5996  2.2491
 5387TIP3   OH237575   4.858   4.846  13.499  0.4964 -0.1699 -0.1097
 5387TIP3    H137576   4.855   4.755  13.529 -0.2170 -0.0987  0.0731
 5387TIP3    H237577   4.778   4.856  13.447  0.3298  0.4739  0.2556
 5388TIP3   OH237578   1.723   5.626  11.690  0.1046  0.0328  0.1178
 5388TIP3    H137579   1.752   5.547  11.736  0.9081  0.4771  0.3925
 5388TIP3    H237580   1.800   5.654  11.640 -0.2860  0.4428 -0.2675
 5389TIP3   OH237581   0.516   5.204   3.583  0.3410  0.4791  1.1429
 5389TIP3    H137582   0.570   5.125   3.575 -2.9693 -2.2534  3.0622
 5389TIP3    H237583   0.481   5.218   3.494  0.5988 -0.5553  0.8659
 5390TIP3   OH237584   3.310   2.186  15.497 -0.2564  0.7516 -0.0806
 5390TIP3    H137585   3.397   2.224  15.506  0.9915 -1.8693  0.0139
 5390TIP3    H237586   3.265   2.210  15.578  1.4612 -0.2642  1.2414
 5391TIP3   OH237587   3.826   3.616  13.547 -0.0939 -0.3540 -0.1800
 5391TIP3    H137588   3.778   3.574  13.618  1.1729  1.1052  1.6480
 5391TIP3    H237589   3.917   3.620  13.579  0.3029  1.3854 -1.3757
 5392TIP3   OH237590   2.212   0.495   3.087 -0.6741  0.0720  0.1375
 5392TIP3    H137591   2.242   0.523   3.001  0.1498  1.6160  0.8935
 5392TIP3    H237592   2.137   0.550   3.106 -0.8278 -0.2343  0.4320
 5393TIP3   OH237593   0.956   2.815   3.411  0.3356  0.0284 -0.0265
 5393TIP3    H137594   0.927   2.884   3.351  2.9150  0.3924 -0.9977
 5393TIP3    H237595   1.007   2.755   3.356  2.1733 -0.0239  1.6033
 5394TIP3   OH237596   1.442   3.237  13.349 -0.3325  0.4396 -0.1326
 5394TIP3    H137597   1.415   3.290  13.274 -0.6925  0.6241  0.1286
 5394TIP3    H237598   1.435   3.146  13.318 -1.8898  0.4452  0.1360
 5395TIP3   OH237599   3.405   3.669  13.393 -0.3132 -0.0541 -0.7793
 5395TIP3    H137600   3.443   3.751  13.424  0.4808 -1.2502  1.6612
 5395TIP3    H237601   3.455   3.648  13.314  0.7343  0.8798 -0.3918
 5396TIP3   OH237602   3.011   0.141  12.713 -0.4994  0.0490 -0.1893
 5396TIP3    H137603   2.917   0.150  12.696 -0.7083 -1.7583 -0.1864
 5396TIP3    H237604   3.040   0.230  12.735 -2.3088  0.5490  0.3658
 5397TIP3   OH237605   2.583   3.830   2.967 -0.0094  0.2471  0.0942
 5397TIP3    H137606   2.554   3.740   2.951  0.0317 -0.0059  1.3428
 5397TIP3    H237607   2.503   3.882   2.963 -0.0231  0.1860 -0.7151
 5398TIP3   OH237608   3.387   2.642   3.737  0.0774  0.5439 -0.6366
 5398TIP3    H137609   3.306   2.685   3.712  0.2770 -0.1588 -2.7297
 5398TIP3    H237610   3.376   2.622   3.830 -2.3172  0.1053 -0.9403
 5399TIP3   OH237611   3.717   2.335   3.852  0.2240  0.0967 -0.1978
 5399TIP3    H137612   3.686   2.283   3.926  0.9649 -1.2138 -0.7617
 5399TIP3    H237613   3.648   2.326   3.786  0.1113  0.2652 -0.1027
 5400TIP3   OH237614   5.575   2.608  16.021  0.5204 -0.1666  0.0304
 5400TIP3    H137615   5.540   2.693  15.995  0.1441 -0.5365 -0.7013
 5400TIP3    H237616   5.619   2.576  15.943  2.0794  0.0584  0.7731
 5401TIP3   OH237617   1.850   6.312  17.247  0.2083 -0.1538  0.8712
 5401TIP3    H137618   1.935   6.289  17.284 -0.2401 -1.0923  1.3604
 5401TIP3    H237619   1.793   6.239  17.271 -0.4919 -0.0330 -0.3245
 5402TIP3   OH237620   0.066   1.485  15.714 -0.2825  0.0715  0.5327
 5402TIP3    H137621   0.014   1.406  15.731 -0.1418 -1.0611 -3.2406
 5402TIP3    H237622   0.114   1.464  15.634  1.7468  3.1287  0.8053
 5403TIP3   OH237623   2.657   2.939  12.323  0.1731  0.0282  0.1312
 5403TIP3    H137624   2.639   3.028  12.294  1.1234 -0.4070 -1.9196
 5403TIP3    H237625   2.574   2.910  12.362 -1.0188  0.8839 -1.6152
 5404TIP3   OH237626   2.766   1.153  16.338 -0.2830 -0.3400  0.5577
 5404TIP3    H137627   2.842   1.119  16.292  0.0617  0.2473  0.6848
 5404TIP3    H237628   2.709   1.077  16.350  0.0833 -0.6961  0.0776
 5405TIP3   OH237629   5.855   1.331   5.251  0.6349 -0.3221  0.3036
 5405TIP3    H137630   5.937   1.358   5.293  0.7839 -1.4909  0.7978
 5405TIP3    H237631   5.883   1.284   5.172  0.4990 -1.6277  1.0065
 5406TIP3   OH237632   4.178   6.542  17.249 -0.4118  0.4950 -0.6006
 5406TIP3    H137633   4.246   6.482  17.280  0.1600  1.4079 -0.0098
 5406TIP3    H237634   4.130   6.567  17.328  2.1105  4.1511  0.0759
 5407TIP3   OH237635   5.492   1.877  11.463 -0.2511  0.5129 -0.0688
 5407TIP3    H137636   5.582   1.911  11.465 -0.7725  1.9336  1.7512
 5407TIP3    H237637   5.444   1.938  11.407 -0.1519 -0.1543 -0.9080
 5408TIP3   OH237638   0.338   6.620  14.342 -0.0412 -0.1698 -0.5022
 5408TIP3    H137639   0.320   6.682  14.271  2.9899 -0.3320 -1.5568
 5408TIP3    H237640   0.420   6.578  14.317 -0.8599 -3.1041  1.2403
 5409TIP3   OH237641   0.020   5.933   5.454 -0.1821  0.9536  0.0566
 5409TIP3    H137642  -0.006   5.925   5.546  0.1642  0.9374  0.1552
 5409TIP3    H237643  -0.023   6.013   5.424 -0.5781  0.7729  0.1345
 5410TIP3   OH237644   0.935   3.211  16.055 -0.3602  0.1950 -0.3784
 5410TIP3    H137645   1.025   3.226  16.025 -0.6549  2.4208 -0.3678
 5410TIP3    H237646   0.942   3.206  16.150  0.2221 -4.0736 -0.4811
 5411TIP3   OH237647   3.644   5.466   2.320 -1.1294 -0.2654  0.1523
 5411TIP3    H137648   3.628   5.497   2.231 -0.6969  0.9080  0.4694
 5411TIP3    H237649   3.558   5.439   2.352 -1.4180  0.0609 -0.3430
 5412TIP3   OH237650   1.753   5.334   3.514 -0.3196 -0.7789 -0.4109
 5412TIP3    H137651   1.672   5.369   3.552 -1.0942 -1.5069 -1.3390
 5412TIP3    H237652   1.775   5.397   3.446 -0.3174 -0.7839 -0.4148
 5413TIP3   OH237653   0.847   2.781   3.958 -0.1026  0.0241 -0.0916
 5413TIP3    H137654   0.820   2.747   3.873 -0.8955  1.7071 -0.5460
 5413TIP3    H237655   0.895   2.708   3.998  0.5845 -0.6976 -2.0946
 5414TIP3   OH237656   5.404   4.049  11.394  0.7599 -0.1785 -0.4685
 5414TIP3    H137657   5.479   4.089  11.349  1.2690  2.3491  2.3204
 5414TIP3    H237658   5.342   4.121  11.406 -0.6633 -1.4637  0.2252
 5415TIP3   OH237659   0.013   2.828  15.863  0.5807  0.3175 -0.5982
 5415TIP3    H137660  -0.045   2.759  15.894  1.3549  0.4908  1.4148
 5415TIP3    H237661   0.058   2.790  15.787 -0.9211 -0.3884 -1.1818
 5416TIP3   OH237662   4.714   0.755   5.069 -0.1801  0.2582  0.3078
 5416TIP3    H137663   4.655   0.720   5.002  1.0079 -1.2283 -0.0230
 5416TIP3    H237664   4.764   0.823   5.023 -2.5227  2.5783  0.9607
 5417TIP3   OH237665   2.264   3.402   5.404 -0.2431  0.2436 -0.0367
 5417TIP3    H137666   2.249   3.496   5.414  0.3984  0.1991  1.7948
 5417TIP3    H237667   2.176   3.365   5.395 -0.7968  0.7383  2.4948
 5418TIP3   OH237668   1.243   6.168  16.313  0.2394  0.2571  0.0775
 5418TIP3    H137669   1.196   6.182  16.231  1.0346  1.3834 -0.2036
 5418TIP3    H237670   1.219   6.079  16.340  0.2042 -0.2533 -1.5350
 5419TIP3   OH237671   0.560   3.969  15.645  0.3778 -0.4242 -0.4130
 5419TIP3    H137672   0.585   3.969  15.553  0.5498  0.4677 -0.3676
 5419TIP3    H237673   0.642   3.984  15.692  0.1939 -0.2807 -0.1380
 5420TIP3   OH237674   5.000   0.252  16.759  0.4834 -0.2009  0.7564
 5420TIP3    H137675   5.092   0.281  16.765  0.3719 -0.0681  2.2486
 5420TIP3    H237676   4.955   0.302  16.828 -0.2656 -1.8776  1.5335
 5421TIP3   OH237677   3.167   5.505   6.646  0.4412 -0.3646 -0.1076
 5421TIP3    H137678   3.223   5.580   6.629  0.6876 -1.1202 -3.3000
 5421TIP3    H237679   3.213   5.431   6.606 -1.1802 -1.6547  0.2901
 5422TIP3   OH237680   0.316   6.763  12.262 -0.3412  0.3889 -0.3460
 5422TIP3    H137681   0.268   6.846  12.270  0.1077  0.5408  1.2602
 5422TIP3    H237682   0.367   6.757  12.343 -0.3014 -1.4213 -0.4526
 5423TIP3   OH237683   6.083   2.190   1.763  0.0788 -0.3502 -0.1546
 5423TIP3    H137684   6.177   2.176   1.758  0.4971  1.4461  1.2462
 5423TIP3    H237685   6.070   2.277   1.724 -0.9690 -0.4859 -0.1349
 5424TIP3   OH237686   0.075   2.477   1.784 -0.3259  0.3311 -0.0165
 5424TIP3    H137687   0.035   2.415   1.723 -0.1843 -0.0920  0.3124
 5424TIP3    H237688   0.019   2.474   1.862 -0.4583  0.8055 -0.0865
 5425TIP3   OH237689   3.151   3.798  14.733 -0.3754  0.6079 -0.2676
 5425TIP3    H137690   3.139   3.721  14.678 -1.2176  1.0709 -0.7386
 5425TIP3    H237691   3.213   3.769  14.800 -2.3402 -1.1934  0.9078
 5426TIP3   OH237692   6.589   3.583   4.308  1.1437 -0.3213  0.6076
 5426TIP3    H137693   6.624   3.493   4.307  0.2937 -0.6866  2.0257
 5426TIP3    H237694   6.665   3.638   4.289  2.1155 -1.2225  1.7116
 5427TIP3   OH237695   5.092   4.036   4.990  0.1583 -0.8702 -0.6438
 5427TIP3    H137696   5.074   4.130   4.995  0.9130 -0.7375 -0.2205
 5427TIP3    H237697   5.006   3.995   4.995 -0.1055 -0.2358  0.4124
 5428TIP3   OH237698   4.453   2.668   2.885  0.5429 -0.1542  0.5210
 5428TIP3    H137699   4.376   2.723   2.901  0.5194 -0.1583  0.4224
 5428TIP3    H237700   4.524   2.710   2.933  0.1116 -1.0548  2.0304
 5429TIP3   OH237701   1.698   1.010   5.731  0.4789  0.6443  0.2457
 5429TIP3    H137702   1.730   0.985   5.645  0.4120  2.3234 -0.3172
 5429TIP3    H237703   1.777   1.039   5.778  0.1506  2.7379 -0.3937
 5430TIP3   OH237704   6.600   5.509  16.721  0.0153 -0.2583 -1.0034
 5430TIP3    H137705   6.657   5.485  16.794  1.9760 -0.1579 -2.4134
 5430TIP3    H237706   6.540   5.435  16.712 -0.2728 -0.2676  0.6707
 5431TIP3   OH237707   1.330   1.855   1.806 -0.1354  0.5612 -0.5183
 5431TIP3    H137708   1.351   1.808   1.726  0.4996  1.0157 -0.6261
 5431TIP3    H237709   1.247   1.900   1.788  0.3089  1.1518 -1.1378
 5432TIP3   OH237710   2.037   1.410  14.631 -0.6693 -0.4086  0.2061
 5432TIP3    H137711   2.132   1.406  14.628 -0.6889 -0.7752 -1.7287
 5432TIP3    H237712   2.012   1.355  14.705  0.5920 -1.3270 -0.0295
 5433TIP3   OH237713   6.103   4.108   4.709 -0.2962 -0.2234 -0.0835
 5433TIP3    H137714   6.037   4.173   4.686 -2.8930 -1.7687  2.2927
 5433TIP3    H237715   6.117   4.121   4.803  0.9875 -1.4941 -0.0674
 5434TIP3   OH237716   3.232   4.636   1.408  0.5128 -0.0773 -0.3946
 5434TIP3    H137717   3.149   4.653   1.363  0.7235  0.3599 -0.6126
 5434TIP3    H237718   3.281   4.718   1.401  0.2783  0.2268  1.2025
 5435TIP3   OH237719   4.452   3.271  11.207 -0.3191 -0.0465  0.0204
 5435TIP3    H137720   4.449   3.311  11.294  0.2185  1.2939 -0.5426
 5435TIP3    H237721   4.417   3.339  11.148 -1.0079 -1.0619 -0.7654
 5436TIP3   OH237722   6.052   3.090   5.102 -0.2662 -0.0756  0.3045
 5436TIP3    H137723   6.048   3.180   5.069 -3.8186 -0.5873 -1.1307
 5436TIP3    H237724   6.118   3.048   5.047  0.9456  1.4434  0.5289
 5437TIP3   OH237725   4.044   3.010   0.956  0.6627  0.0376  0.4471
 5437TIP3    H137726   3.963   3.011   0.905  0.6532 -1.8761  0.3550
 5437TIP3    H237727   4.019   3.045   1.042  0.6918  3.3520 -0.7425
 5438TIP3   OH237728   3.060   6.436   3.749  0.0156 -0.1847 -0.0609
 5438TIP3    H137729   3.062   6.403   3.659  0.1944  0.3408 -0.2514
 5438TIP3    H237730   3.138   6.400   3.791  0.1369 -0.1117 -0.2271
 5439TIP3   OH237731   2.623   4.205  14.559  0.4113 -0.2101  0.0490
 5439TIP3    H137732   2.582   4.287  14.529  2.3650  1.2647  1.1343
 5439TIP3    H237733   2.711   4.231  14.586  1.4029 -2.8632 -0.3153
 5440TIP3   OH237734   3.958   4.004   1.191  0.5168 -0.2634 -0.0751
 5440TIP3    H137735   3.915   3.919   1.203  0.6166 -0.2233  0.5731
 5440TIP3    H237736   4.036   4.000   1.246  0.4481  0.3039  0.0697
 5441TIP3   OH237737   0.837   1.641  13.952  0.1674  0.1884 -0.3287
 5441TIP3    H137738   0.865   1.726  13.986 -1.1378  0.1833  0.8694
 5441TIP3    H237739   0.800   1.596  14.028 -0.3294 -0.9434 -1.2130
 5442TIP3   OH237740   4.317   3.018  16.585  0.4423  0.3132  0.0438
 5442TIP3    H137741   4.269   3.088  16.627 -1.8633 -1.7774  1.1502
 5442TIP3    H237742   4.314   3.039  16.491 -1.5885  0.9121  0.1967
 5443TIP3   OH237743   1.617   4.655   0.124  0.2595  0.5725  0.4336
 5443TIP3    H137744   1.694   4.710   0.108  0.5471 -0.0126 -0.2670
 5443TIP3    H237745   1.652   4.573   0.156 -0.2379  1.1406  2.5589
 5444TIP3   OH237746   3.922   2.686  17.280 -0.5216 -0.4883  0.1986
 5444TIP3    H137747   3.934   2.604  17.231 -1.8271 -0.7092  0.2001
 5444TIP3    H237748   3.928   2.755  17.214 -2.8206 -0.8153 -0.4412
 5445TIP3   OH237749   5.727   6.337   4.016  0.0852  0.5378 -0.2918
 5445TIP3    H137750   5.804   6.394   4.008  2.1662 -1.9685  0.8010
 5445TIP3    H237751   5.702   6.319   3.925  1.3922  0.6171 -0.6872
 5446TIP3   OH237752   2.080   5.449  11.546  0.4313  0.4632 -0.0962
 5446TIP3    H137753   2.035   5.394  11.483  0.8807  0.3194 -0.2917
 5446TIP3    H237754   2.162   5.472  11.504  0.5762  0.6623  0.2897
 5447TIP3   OH237755   5.919   2.446  11.051 -0.1556 -0.1237  0.2644
 5447TIP3    H137756   6.004   2.455  11.009  0.2579  0.9545  1.2863
 5447TIP3    H237757   5.872   2.383  10.996  0.8123  0.2591 -1.0567
 5448TIP3   OH237758   1.491   4.870   4.491  0.1725  0.0230  0.5937
 5448TIP3    H137759   1.552   4.903   4.425 -1.0982  0.2188 -0.5466
 5448TIP3    H237760   1.511   4.776   4.496  1.1357  0.2361  0.8866
 5449TIP3   OH237761   6.084   6.019   5.750  0.4315  0.1480  0.4990
 5449TIP3    H137762   6.059   6.017   5.842  0.4053  1.0433  0.5187
 5449TIP3    H237763   6.010   5.979   5.704 -0.2015  0.9999  0.7403
 5450TIP3   OH237764   3.049   5.127  10.647 -0.2250  0.1146  0.1370
 5450TIP3    H137765   2.957   5.115  10.623 -0.6979  2.2928  0.6830
 5450TIP3    H237766   3.096   5.064  10.593 -2.0545 -1.4098  0.1922
 5451TIP3   OH237767   0.159   2.966  11.707  0.0306  0.0410 -0.4565
 5451TIP3    H137768   0.114   2.913  11.774 -1.4284  0.1576 -1.2924
 5451TIP3    H237769   0.173   2.906  11.634  0.9342  0.1029 -0.3373
 5452TIP3   OH237770   2.457   1.874   2.189 -0.0882 -0.0991  1.2285
 5452TIP3    H137771   2.369   1.850   2.216 -0.9875  0.0131 -1.3011
 5452TIP3    H237772   2.452   1.968   2.170 -0.3798 -0.6180 -1.8384
 5453TIP3   OH237773   2.989   4.298   4.959  0.2661  0.1776  0.1942
 5453TIP3    H137774   2.945   4.214   4.948  0.8654 -0.0075 -0.9839
 5453TIP3    H237775   2.949   4.337   5.036 -2.0848  0.0826 -0.8916
 5454TIP3   OH237776   2.612   1.635  10.907 -0.0294 -0.0276  0.5633
 5454TIP3    H137777   2.567   1.662  10.827  1.9540  1.7874 -0.0293
 5454TIP3    H237778   2.551   1.575  10.950 -2.5442  1.5275 -0.6476
 5455TIP3   OH237779   5.500   4.360   3.549 -0.4421 -0.0460 -0.0881
 5455TIP3    H137780   5.466   4.406   3.626 -2.0791 -0.3513 -0.5945
 5455TIP3    H237781   5.568   4.302   3.584  0.1311  1.1470  0.8542
 5456TIP3   OH237782   5.631   2.289  11.180 -0.6032 -0.4671  0.3707
 5456TIP3    H137783   5.656   2.296  11.088 -2.0148  0.5012  0.0172
 5456TIP3    H237784   5.590   2.374  11.200 -1.3404 -1.0730  1.5659
 5457TIP3   OH237785   1.752   3.837   5.453  0.6905 -0.6197  0.0574
 5457TIP3    H137786   1.737   3.902   5.521 -1.2980  0.1270 -1.0124
 5457TIP3    H237787   1.677   3.778   5.460 -1.1817  1.1056 -3.1932
 5458TIP3   OH237788   1.149   5.667  15.787  0.2207 -0.4561 -0.4041
 5458TIP3    H137789   1.105   5.679  15.871 -2.2649 -1.3080 -1.4945
 5458TIP3    H237790   1.215   5.737  15.784  1.0370 -0.9401  2.5848
 5459TIP3   OH237791   5.245   4.400  17.058 -0.0581 -0.4716 -0.0454
 5459TIP3    H137792   5.157   4.426  17.032  0.7369 -0.1565 -2.6986
 5459TIP3    H237793   5.293   4.482  17.068  0.2517 -0.6804  0.2234
 5460TIP3   OH237794   4.154   4.125   3.459 -0.7527 -0.3011  0.1816
 5460TIP3    H137795   4.075   4.080   3.429  0.2029 -1.5800 -0.4720
 5460TIP3    H237796   4.185   4.173   3.383 -1.1855  0.6588  0.5927
 5461TIP3   OH237797   3.990   4.834  13.506 -0.0920 -0.5499 -0.9441
 5461TIP3    H137798   4.012   4.917  13.464 -1.4854 -1.2983 -3.3549
 5461TIP3    H237799   4.072   4.785  13.507  0.2075 -0.0793 -1.8015
 5462TIP3   OH237800   3.082   5.171   3.092 -0.2148  0.2733 -1.1467
 5462TIP3    H137801   3.050   5.260   3.077  0.8895  0.4926 -2.4266
 5462TIP3    H237802   3.050   5.120   3.018  0.2585 -0.0904 -1.1100
 5463TIP3   OH237803   0.734   1.491   0.745 -0.1633  0.1415  0.2330
 5463TIP3    H137804   0.786   1.441   0.682 -1.4913 -0.7880 -0.1624
 5463TIP3    H237805   0.774   1.578   0.745  2.0654 -0.8067  0.7615
 5464TIP3   OH237806   3.258   4.681   4.319  0.4980  0.1557  0.0241
 5464TIP3    H137807   3.296   4.599   4.288  1.3135  0.9320 -1.1013
 5464TIP3    H237808   3.288   4.746   4.256 -2.2058  0.9179 -0.6018
 5465TIP3   OH237809   5.970   4.922   1.475 -0.0596 -0.3760  0.0200
 5465TIP3    H137810   6.033   4.926   1.547 -0.0640 -1.8642  0.1374
 5465TIP3    H237811   6.020   4.886   1.401 -0.5800 -0.8839 -0.0930
 5466TIP3   OH237812   4.191   3.998  11.770  0.0884  0.1153 -0.3465
 5466TIP3    H137813   4.260   3.982  11.835 -0.4376  1.9014  0.7532
 5466TIP3    H237814   4.191   3.921  11.714  0.2563 -1.7782  2.0731
 5467TIP3   OH237815   4.595   0.279   0.634  0.5943  0.5026 -0.0292
 5467TIP3    H137816   4.582   0.217   0.706 -0.1987 -1.3770 -1.6813
 5467TIP3    H237817   4.547   0.357   0.661 -0.1641 -0.3645  1.2490
 5468TIP3   OH237818   5.019   3.772   4.534 -0.2985 -0.7212  0.5716
 5468TIP3    H137819   5.080   3.706   4.501  1.5499  0.8762  0.6682
 5468TIP3    H237820   5.050   3.790   4.623 -0.8702  0.1709  0.5935
 5469TIP3   OH237821   4.935   4.693   0.881  0.1437 -0.0521 -0.3567
 5469TIP3    H137822   5.014   4.659   0.840  1.6898  3.1288 -0.2813
 5469TIP3    H237823   4.863   4.646   0.838  1.9584 -3.9112  0.3913
 5470TIP3   OH237824   1.238   6.377  15.698  0.4822 -0.0358 -0.5623
 5470TIP3    H137825   1.232   6.437  15.773  0.0553 -1.5034  0.6302
 5470TIP3    H237826   1.299   6.419  15.638  3.0736 -0.0771  1.8566
 5471TIP3   OH237827   1.009   4.388   4.040 -0.3479 -0.1556  0.2340
 5471TIP3    H137828   0.965   4.392   4.125 -1.1216  1.7312 -0.2076
 5471TIP3    H237829   0.950   4.336   3.986 -1.0180  0.5993  0.2250
 5472TIP3   OH237830   1.903   6.468  17.052 -0.6718 -0.1250 -0.4780
 5472TIP3    H137831   1.900   6.416  17.133  0.9013 -1.5266 -1.2471
 5472TIP3    H237832   1.940   6.552  17.079  0.0421 -0.6493  0.2440
 5473TIP3   OH237833   0.560   3.535   1.172  0.2368 -0.0468  0.5762
 5473TIP3    H137834   0.591   3.554   1.261 -0.5601 -3.0071  1.5927
 5473TIP3    H237835   0.637   3.501   1.127  0.4431  0.6859  0.3572
 5474TIP3   OH237836   3.882   2.022  16.461  0.7136 -0.0759 -0.4640
 5474TIP3    H137837   3.950   1.956  16.448  2.3142  1.2626  0.6513
 5474TIP3    H237838   3.869   2.062  16.375  0.2745 -1.3093 -0.9811
 5475TIP3   OH237839   1.044   1.041  14.016  0.0538  0.1947 -0.2684
 5475TIP3    H137840   1.002   1.108  14.070 -2.5328  0.2215 -2.1046
 5475TIP3    H237841   1.012   0.958  14.052  0.6649  0.0744  0.0086
 5476TIP3   OH237842   3.925   3.090  17.173  0.1895  0.3470  0.2410
 5476TIP3    H137843   3.909   3.183  17.162 -0.3139  0.1175 -1.1740
 5476TIP3    H237844   3.842   3.054  17.205  0.3149  0.3453  0.5708
 5477TIP3   OH237845   2.644   0.651   4.041  0.1348 -0.3515 -0.1270
 5477TIP3    H137846   2.652   0.556   4.032 -0.7014 -0.4800  0.4682
 5477TIP3    H237847   2.645   0.667   4.135  0.4936  0.2554 -0.2259
 5478TIP3   OH237848   2.458   1.491   4.728  0.2152 -0.1190 -0.4161
 5478TIP3    H137849   2.479   1.582   4.709  1.5923 -0.1907  0.5816
 5478TIP3    H237850   2.407   1.494   4.808 -2.4898 -0.0599 -2.0296
 5479TIP3   OH237851   6.302   0.741   2.568 -0.1493 -0.1306 -0.0872
 5479TIP3    H137852   6.213   0.757   2.536  0.1210  0.1704 -0.7175
 5479TIP3    H237853   6.294   0.669   2.630 -1.0269  0.7251  0.8264
 5480TIP3   OH237854   2.512   4.814  14.260  0.1038  0.0024 -0.0010
 5480TIP3    H137855   2.531   4.754  14.188  0.8838 -1.0937  1.0663
 5480TIP3    H237856   2.453   4.879  14.223 -1.0897 -1.6476 -1.1361
 5481TIP3   OH237857   4.917   3.184   0.377 -0.2804  0.1671 -0.3559
 5481TIP3    H137858   4.937   3.277   0.362  0.6683  0.0366  0.0219
 5481TIP3    H237859   4.923   3.143   0.291  1.4677  0.0802 -0.2280
 5482TIP3   OH237860   6.742   0.320  12.028  0.1614  0.5556  0.0995
 5482TIP3    H137861   6.766   0.228  12.017  0.1282  0.5489  0.0825
 5482TIP3    H237862   6.711   0.327  12.118  0.0604  0.5271  0.0678
 5483TIP3   OH237863   1.911   6.225  16.652  0.0454 -0.4568  0.0351
 5483TIP3    H137864   1.959   6.294  16.697 -2.2223 -0.2293  2.3229
 5483TIP3    H237865   1.822   6.230  16.688 -1.4630 -1.5399 -3.1604
 5484TIP3   OH237866   2.097   6.414  13.809 -0.0544 -0.4390  0.3667
 5484TIP3    H137867   2.107   6.324  13.781 -0.4692 -1.3322  2.8357
 5484TIP3    H237868   2.036   6.410  13.883 -1.6693  2.1121 -0.6459
 5485TIP3   OH237869   0.939   4.630   4.768  0.4882  0.8161 -0.1557
 5485TIP3    H137870   1.012   4.660   4.823 -1.2099  1.2460  2.0253
 5485TIP3    H237871   0.865   4.622   4.829 -1.0914 -0.4083 -2.1079
 5486TIP3   OH237872   3.786   1.560  14.182  0.5793  0.1741 -0.0823
 5486TIP3    H137873   3.742   1.502  14.120  0.1608  1.1856 -0.7683
 5486TIP3    H237874   3.716   1.594  14.237  1.0173 -1.1209  1.3287
 5487TIP3   OH237875   1.370   5.200   5.316  0.1950 -0.1151  0.4746
 5487TIP3    H137876   1.395   5.174   5.405  1.3017 -0.6265  0.0465
 5487TIP3    H237877   1.335   5.288   5.325  0.0562 -0.2584  1.4515
 5488TIP3   OH237878   4.222   4.601  15.132 -0.2063  0.1335 -0.4493
 5488TIP3    H137879   4.136   4.639  15.150 -0.6421 -0.6586 -0.8200
 5488TIP3    H237880   4.251   4.566  15.216 -0.3219  0.2309 -0.3679
 5489TIP3   OH237881   3.217   5.323  13.937  0.3006  0.5052  0.8417
 5489TIP3    H137882   3.303   5.345  13.974 -0.3160  1.7102  1.6060
 5489TIP3    H237883   3.213   5.227  13.942  2.7866  0.0963 -1.9339
 5490TIP3   OH237884   5.061   2.179  15.921  0.5896 -0.5125 -0.1949
 5490TIP3    H137885   5.097   2.093  15.945  0.6734 -0.6778 -0.8959
 5490TIP3    H237886   5.135   2.239  15.931  1.1616 -0.8865 -1.8445
 5491TIP3   OH237887   4.477   3.030   5.983 -0.3688 -0.8086  0.2846
 5491TIP3    H137888   4.467   3.120   6.013 -2.9342 -1.2781  1.1262
 5491TIP3    H237889   4.541   2.991   6.044  1.4604  0.6126 -0.6503
 5492TIP3   OH237890   5.079   4.399   5.929  0.2782  0.4843  0.4590
 5492TIP3    H137891   5.129   4.441   5.999 -1.0184  1.4609  0.8193
 5492TIP3    H237892   5.087   4.458   5.855 -0.9303  1.0271  0.7422
 5493TIP3   OH237893   4.825   3.049   2.611  0.6423 -0.5902 -0.2689
 5493TIP3    H137894   4.746   3.021   2.566  0.5752  1.2572 -1.3586
 5493TIP3    H237895   4.801   3.130   2.656  1.7974 -0.2249 -0.2586
 5494TIP3   OH237896   1.213   1.498  12.980 -0.0379  0.5364 -0.0330
 5494TIP3    H137897   1.264   1.549  13.043  0.9414  0.6193 -0.8767
 5494TIP3    H237898   1.201   1.556  12.906 -0.9933  0.3597 -0.0289
 5495TIP3   OH237899   0.558   6.735   4.768 -0.2491  0.1763  0.3865
 5495TIP3    H137900   0.479   6.787   4.755 -0.6738 -0.5985 -0.2094
 5495TIP3    H237901   0.554   6.667   4.701  0.1246 -0.8310  1.3513
 5496TIP3   OH237902   6.598   0.676   0.563  0.0828  0.5963 -1.1703
 5496TIP3    H137903   6.648   0.638   0.636 -1.4943 -0.8203 -0.7483
 5496TIP3    H237904   6.614   0.770   0.569  0.5480  0.4461  0.5961
 5497TIP3   OH237905   3.101   5.339  12.502  0.5532  0.3426 -0.7711
 5497TIP3    H137906   3.140   5.421  12.532  0.1561  0.1726  0.2575
 5497TIP3    H237907   3.048   5.310  12.575  0.5452 -0.7470 -1.1906
 5498TIP3   OH237908   3.811   3.091   4.597 -0.6462  0.4126 -0.6332
 5498TIP3    H137909   3.864   3.031   4.544 -1.9152 -0.8575 -0.5214
 5498TIP3    H237910   3.852   3.089   4.684 -0.6266 -0.2477 -0.6515
 5499TIP3   OH237911   5.126   4.217  12.123  0.6440  0.2246 -0.0480
 5499TIP3    H137912   5.186   4.241  12.052  2.2605 -0.9384  0.8833
 5499TIP3    H237913   5.176   4.157  12.178 -0.8955  0.3561  1.5752
 5500TIP3   OH237914   6.171   4.304  11.947  0.7953 -0.2136  0.2700
 5500TIP3    H137915   6.242   4.262  11.996  2.0117  0.7852 -0.5807
 5500TIP3    H237916   6.148   4.240  11.879  0.4677 -0.7821  0.9089
 5501TIP3   OH237917   2.333   5.818   2.793 -0.6605  0.0277  0.0157
 5501TIP3    H137918   2.339   5.724   2.773 -2.0488 -0.1522  0.3108
 5501TIP3    H237919   2.423   5.844   2.814  0.0113 -0.8769 -1.5851
 5502TIP3   OH237920   5.609   3.394   0.543 -0.1740 -0.4285  0.5191
 5502TIP3    H137921   5.697   3.431   0.551 -1.2151  2.3727  0.0675
 5502TIP3    H237922   5.577   3.387   0.633  0.5252 -1.5907  0.6933
 5503TIP3   OH237923   4.508   2.579  15.516 -0.9932 -0.2074 -0.3424
 5503TIP3    H137924   4.596   2.567  15.553 -0.4455  0.5770 -1.3408
 5503TIP3    H237925   4.456   2.510  15.556 -0.1916 -0.0164  1.1178
 5504TIP3   OH237926   5.946   4.241  16.366  0.0244  0.6544 -0.2635
 5504TIP3    H137927   5.871   4.185  16.350  0.6178 -0.0226 -0.7090
 5504TIP3    H237928   5.929   4.321  16.315 -0.9639  1.0228  0.6154
 5505TIP3   OH237929   4.492   3.042  13.695  0.4349 -0.4131 -0.3220
 5505TIP3    H137930   4.451   2.956  13.706 -1.1196 -0.0939 -2.8820
 5505TIP3    H237931   4.448   3.097  13.761 -1.3773 -0.7350 -1.1931
 5506TIP3   OH237932   1.689   3.710   4.222 -0.1155 -0.0592  0.0779
 5506TIP3    H137933   1.620   3.644   4.220  0.5402 -0.7349 -0.8863
 5506TIP3    H237934   1.761   3.671   4.174  1.2610  0.3082  1.7691
 5507TIP3   OH237935   1.475   5.350   4.819 -0.0932  0.2500 -0.1725
 5507TIP3    H137936   1.507   5.377   4.905 -0.6175  0.3246  0.0021
 5507TIP3    H237937   1.546   5.297   4.783 -0.2369 -0.5647  0.6954
 5508TIP3   OH237938   6.376   4.251  14.597  0.3869  0.1465 -0.1504
 5508TIP3    H137939   6.337   4.279  14.514 -0.0188  1.7223  0.5208
 5508TIP3    H237940   6.322   4.178  14.625 -1.3403  1.4471  0.1086
 5509TIP3   OH237941   1.067   5.847  16.744  0.5390  0.1853 -0.5267
 5509TIP3    H137942   1.093   5.755  16.746  0.5030  0.1483 -1.3792
 5509TIP3    H237943   1.074   5.876  16.835 -0.5609 -0.9556 -0.0554
 5510TIP3   OH237944   1.686   2.160  12.041 -0.5401  0.5062 -0.8101
 5510TIP3    H137945   1.699   2.129  11.951 -0.5274  0.3425 -0.7523
 5510TIP3    H237946   1.625   2.233  12.032 -1.0295  0.0958 -0.8911
 5511TIP3   OH237947   6.426   2.547  14.751 -0.0051  0.0876  0.8703
 5511TIP3    H137948   6.345   2.523  14.706 -0.0004  0.6947  0.5171
 5511TIP3    H237949   6.434   2.484  14.823 -0.5236 -0.2884  0.6045
 5512TIP3   OH237950   4.034   4.305   6.151  0.3794  0.0010  0.3349
 5512TIP3    H137951   3.987   4.229   6.185  2.3946 -1.6164 -0.2308
 5512TIP3    H237952   4.126   4.285   6.168  0.9758  2.3711  0.1929
 5513TIP3   OH237953   3.751   1.531   4.263  0.3754 -0.0685  0.6987
 5513TIP3    H137954   3.656   1.539   4.255  0.2931  0.9078  2.1907
 5513TIP3    H237955   3.773   1.586   4.339  1.9128 -1.6757  1.4809
 5514TIP3   OH237956   5.653   5.367   0.862  0.1576 -0.1124 -0.0531
 5514TIP3    H137957   5.601   5.318   0.926 -0.3690 -0.8846 -1.0433
 5514TIP3    H237958   5.739   5.325   0.863 -0.5955 -1.8896 -1.6909
 5515TIP3   OH237959   0.120   3.364   3.316 -0.5003  0.0283  0.2923
 5515TIP3    H137960   0.048   3.386   3.375  0.1846 -0.0436  1.1881
 5515TIP3    H237961   0.090   3.392   3.230 -2.2077 -1.3679  0.3706
 5516TIP3   OH237962   4.212   3.662   1.926 -0.2128 -0.2309 -1.0958
 5516TIP3    H137963   4.196   3.722   1.999  1.2962 -0.6609 -0.3884
 5516TIP3    H237964   4.199   3.716   1.848 -0.3763  0.6225 -0.4990
 5517TIP3   OH237965   1.526   4.435  14.969 -0.2500 -0.2528 -0.3797
 5517TIP3    H137966   1.513   4.523  15.003  1.5466  1.1467 -2.9774
 5517TIP3    H237967   1.610   4.407  15.006 -0.6071 -0.7182  0.0970
 5518TIP3   OH237968   1.605   1.243   5.635 -0.1351 -0.1335  0.3010
 5518TIP3    H137969   1.625   1.154   5.662  0.2427  0.2409  1.3393
 5518TIP3    H237970   1.592   1.290   5.718 -0.4016  0.7515 -0.2308
 5519TIP3   OH237971   1.734   1.510  16.134  0.2741 -0.2602 -0.1231
 5519TIP3    H137972   1.800   1.527  16.066  0.3140 -1.0042 -0.2731
 5519TIP3    H237973   1.752   1.576  16.201  0.9034 -0.1952 -0.3502
 5520TIP3   OH237974   4.019   4.462  11.339 -0.5099 -0.7242  0.1497
 5520TIP3    H137975   3.968   4.407  11.280 -1.0814 -1.4120  1.2551
 5520TIP3    H237976   3.955   4.521  11.379  0.2131  1.4646 -1.7187
 5521TIP3   OH237977   2.340   3.359   4.821  0.7169  0.5376  1.1656
 5521TIP3    H137978   2.369   3.445   4.851  0.6192  1.1235 -0.3129
 5521TIP3    H237979   2.412   3.300   4.842  1.3710  1.2538  0.9642
 5522TIP3   OH237980   2.514   5.945   4.250  0.0937  0.0624 -0.2774
 5522TIP3    H137981   2.586   5.891   4.218 -0.0894 -1.6178  1.9275
 5522TIP3    H237982   2.470   5.890   4.315 -3.2525  0.9569 -1.5602
 5523TIP3   OH237983   0.652   6.420   3.014  0.4541  0.0094  0.2245
 5523TIP3    H137984   0.690   6.346   3.061  1.8535 -1.3455 -2.8219
 5523TIP3    H237985   0.582   6.382   2.961  3.1767 -0.0103 -3.8227
 5524TIP3   OH237986   6.495   2.257   2.116 -0.0649 -0.7060  0.4269
 5524TIP3    H137987   6.527   2.317   2.183 -0.1946 -1.2744  1.0025
 5524TIP3    H237988   6.568   2.250   2.054  0.0247 -0.1150  0.4579
 5525TIP3   OH237989   2.460   1.618  11.721 -0.1303  0.2962 -0.1713
 5525TIP3    H137990   2.431   1.529  11.740 -0.1024  0.4047  0.3733
 5525TIP3    H237991   2.452   1.664  11.804  3.3054 -0.1132  0.5141
 5526TIP3   OH237992   0.287   3.130  12.401 -0.1971  0.2509  0.2219
 5526TIP3    H137993   0.260   3.135  12.492  1.8820 -0.0270  0.9023
 5526TIP3    H237994   0.355   3.062  12.399  0.4476  0.8865 -1.3346
 5527TIP3   OH237995   5.796   3.813   0.078  0.5034  0.1463  0.1971
 5527TIP3    H137996   5.775   3.905   0.061  0.2214  0.6240  2.7865
 5527TIP3    H237997   5.890   3.813   0.098 -0.0470  0.4892  3.2984
 5528TIP3   OH237998   1.077   4.391   0.454 -0.2361  0.1030  0.7793
 5528TIP3    H137999   1.139   4.342   0.509 -0.7631 -0.0389  1.2559
 5528TIP3    H238000   1.009   4.419   0.514 -0.1719  1.0457  0.4229
 5529TIP3   OH238001   3.345   5.724  12.785 -0.3528  0.4350  0.0958
 5529TIP3    H138002   3.411   5.751  12.849  0.1679  0.0210 -0.2584
 5529TIP3    H238003   3.263   5.719  12.835  0.2888 -1.1781  1.0451
 5530TIP3   OH238004   0.536   1.059  13.240 -0.0009  0.2453 -0.3041
 5530TIP3    H138005   0.606   0.999  13.266 -0.6212 -0.4377 -0.1799
 5530TIP3    H238006   0.515   1.033  13.150 -0.9831 -0.4148  0.1102
 5531TIP3   OH238007   2.798   3.185   4.454 -0.2798  0.2527 -0.0931
 5531TIP3    H138008   2.822   3.220   4.540  0.1677  1.5357 -0.7098
 5531TIP3    H238009   2.875   3.202   4.399 -0.3970 -0.9463 -0.6463
 5532TIP3   OH238010   1.477   4.242   3.786  0.5338 -0.0339  0.1534
 5532TIP3    H138011   1.391   4.255   3.826  1.2176  0.3530  1.5747
 5532TIP3    H238012   1.460   4.183   3.712 -0.7809 -0.9198  1.0958
 5533TIP3   OH238013   1.601   3.218   5.122  0.2280 -0.2575 -0.1062
 5533TIP3    H138014   1.695   3.235   5.128  0.2548  0.1834 -1.3165
 5533TIP3    H238015   1.594   3.146   5.059 -0.2093 -0.7203  0.4716
 5534TIP3   OH238016   4.523   5.122  14.832  0.0159 -0.5762  0.8230
 5534TIP3    H138017   4.471   5.099  14.909 -1.2332  0.8722  0.4502
 5534TIP3    H238018   4.574   5.198  14.859  0.9430 -1.1558  0.7553
 5535TIP3   OH238019   5.282   6.373  13.351 -0.2064 -0.2121  0.0560
 5535TIP3    H138020   5.331   6.450  13.322 -1.1875  0.7428  0.8484
 5535TIP3    H238021   5.280   6.380  13.447  1.1020 -2.1324  0.2884
 5536TIP3   OH238022   5.478   1.677  12.409  0.0094  0.3396 -0.5898
 5536TIP3    H138023   5.508   1.723  12.488  2.6186  0.2104 -1.3929
 5536TIP3    H238024   5.447   1.746  12.351  0.2102  0.6799 -0.2990
 5537TIP3   OH238025   3.768   3.842  12.505  0.0841 -0.3990  0.5299
 5537TIP3    H138026   3.815   3.922  12.531  0.4026 -0.7211  0.9450
 5537TIP3    H238027   3.684   3.847  12.551  0.0401 -0.2367  0.4369
 5538TIP3   OH238028   4.617   0.597   5.652  0.3737  0.4178  0.1227
 5538TIP3    H138029   4.701   0.593   5.605  1.6116 -0.3073  2.2580
 5538TIP3    H238030   4.633   0.658   5.724 -0.1958 -1.4139  1.8812
 5539TIP3   OH238031   5.980   0.931  16.367 -0.3426 -0.3479  0.4004
 5539TIP3    H138032   5.985   0.893  16.454 -2.1134 -1.5104  0.0451
 5539TIP3    H238033   5.950   0.860  16.311  0.3432  0.4873 -1.0868
 5540TIP3   OH238034   3.021   2.982  14.676 -0.1046  0.4561  0.5869
 5540TIP3    H138035   3.027   3.074  14.701  1.1291  0.4077  0.5285
 5540TIP3    H238036   3.004   2.936  14.758  1.9639  0.4900  1.0755
 5541TIP3   OH238037   6.006   6.530  13.136 -0.3489  0.0189  0.3150
 5541TIP3    H138038   5.971   6.446  13.166  0.0120 -0.2301  0.0382
 5541TIP3    H238039   6.036   6.574  13.216  2.0822 -1.3007  0.1990
 5542TIP3   OH238040   3.105   0.771  11.975  0.2723 -0.1724  0.0230
 5542TIP3    H138041   3.036   0.722  11.932  1.8573 -1.3409 -1.3385
 5542TIP3    H238042   3.106   0.856  11.930 -1.6223  0.6921  1.5034
 5543TIP3   OH238043   5.652   1.143   2.883 -0.0969  0.0319  0.2677
 5543TIP3    H138044   5.684   1.061   2.844  2.5441  0.8420  0.5292
 5543TIP3    H238045   5.601   1.114   2.959  1.5356 -1.4157  0.8932
 5544TIP3   OH238046   0.073   4.572  13.109 -0.1042  0.9180  0.3555
 5544TIP3    H138047   0.073   4.536  13.020  2.6261  0.9865  0.2248
 5544TIP3    H238048   0.014   4.647  13.105 -1.3688 -0.1019 -0.9293
 5545TIP3   OH238049   5.461   5.968   2.174  0.2522 -0.2157  0.5927
 5545TIP3    H138050   5.366   5.960   2.166  0.1030  0.9881  1.0161
 5545TIP3    H238051   5.485   6.037   2.113  0.6891  0.3729  1.4132
 5546TIP3   OH238052   2.935   2.923  12.384  0.1970  1.0638  0.7398
 5546TIP3    H138053   2.923   2.984  12.457  1.8719  2.6347 -0.2082
 5546TIP3    H238054   2.855   2.932  12.332 -1.1945 -0.3658  2.5018
 5547TIP3   OH238055   0.658   1.336   6.993 -0.1577 -0.0209 -0.1700
 5547TIP3    H138056   0.733   1.389   6.965  0.8750 -0.3973  1.6878
 5547TIP3    H238057   0.690   1.246   6.994 -0.9073 -0.2980 -0.1792
 5548TIP3   OH238058   1.729   5.207   0.979  0.1165 -0.6417  0.0176
 5548TIP3    H138059   1.717   5.259   1.058  1.8964 -0.4607  0.2084
 5548TIP3    H238060   1.768   5.125   1.010 -0.9318 -1.3562 -0.4866
 5549TIP3   OH238061   6.012   5.026   0.255  0.3347  0.1388 -0.2413
 5549TIP3    H138062   6.067   5.090   0.299 -0.0113  0.6116 -0.4875
 5549TIP3    H238063   5.966   5.076   0.188 -0.9054 -0.1107  0.4018
 5550TIP3   OH238064   1.745   4.250  11.138  0.2703  0.2117 -0.2107
 5550TIP3    H138065   1.721   4.198  11.062  1.6950 -2.0439  0.7930
 5550TIP3    H238066   1.840   4.260  11.132  0.4236 -0.1298  1.3176
 5551TIP3   OH238067   0.785   2.368  16.858  0.0099  0.0067  0.3629
 5551TIP3    H138068   0.862   2.420  16.834  0.1911 -0.9049 -1.1284
 5551TIP3    H238069   0.728   2.431  16.903  1.4234  0.7930  1.1595
 5552TIP3   OH238070   3.402   1.190  17.120 -0.0988 -0.2105 -0.2073
 5552TIP3    H138071   3.410   1.151  17.207 -2.2727 -1.4682 -0.4780
 5552TIP3    H238072   3.491   1.190  17.085  0.9287  0.9019  2.2090
 5553TIP3   OH238073   2.041   2.195   0.524  0.4753  0.0693 -0.3523
 5553TIP3    H138074   2.047   2.225   0.433 -1.6209  2.3533  0.1480
 5553TIP3    H238075   2.128   2.212   0.561  0.7030  1.2517 -1.3668
 5554TIP3   OH238076   1.628   0.040  15.514  0.4377 -0.3285 -0.6810
 5554TIP3    H138077   1.664  -0.047  15.532  2.1491  0.5652  0.5384
 5554TIP3    H238078   1.696   0.101  15.545 -1.0622  1.4564 -0.7299
 5555TIP3   OH238079   2.906   2.380   2.870 -0.4182  0.2515  0.0537
 5555TIP3    H138080   2.869   2.468   2.867  0.1567  0.6120  2.0132
 5555TIP3    H238081   2.983   2.385   2.813 -0.4069  1.0142  0.1200
 5556TIP3   OH238082   2.741   1.100   2.091  0.4647  0.3723 -0.3133
 5556TIP3    H138083   2.701   1.130   2.009 -1.4343 -0.0595  0.3809
 5556TIP3    H238084   2.806   1.167   2.112 -0.1033  1.3040 -1.3866
 5557TIP3   OH238085   2.394   0.463  14.304  0.9097  0.1105 -0.8568
 5557TIP3    H138086   2.431   0.544  14.268 -0.2850  0.7637 -0.6483
 5557TIP3    H238087   2.451   0.442  14.378  0.0962  1.8773  0.3402
 5558TIP3   OH238088   4.374   5.980   5.161 -0.7562  0.0421 -0.1440
 5558TIP3    H138089   4.432   5.908   5.137  1.7383  1.4188  1.2635
 5558TIP3    H238090   4.348   6.019   5.077 -1.1255 -1.6864 -0.8661
 5559TIP3   OH238091   5.382   3.042   1.210  0.7692  0.0938  0.1942
 5559TIP3    H138092   5.375   3.066   1.303 -1.8369  2.6681 -0.5298
 5559TIP3    H238093   5.352   2.951   1.207  0.9598 -0.0542  1.8514
 5560TIP3   OH238094   2.256   3.515   0.987 -0.0675 -1.0528 -0.2958
 5560TIP3    H138095   2.239   3.610   0.987  1.8918 -0.6512 -0.8149
 5560TIP3    H238096   2.287   3.497   1.075 -1.2584 -1.3914  0.0606
 5561TIP3   OH238097   6.516   2.908   5.279 -0.2107  0.1275 -0.6728
 5561TIP3    H138098   6.560   2.885   5.361  1.2909  0.5368 -1.3269
 5561TIP3    H238099   6.509   3.003   5.281  0.8983  0.2422 -1.5175
 5562TIP3   OH238100   2.596   0.940   4.172 -0.4231  0.4487  0.0440
 5562TIP3    H138101   2.658   1.010   4.193 -0.6949  0.9404 -0.7377
 5562TIP3    H238102   2.607   0.876   4.242  1.6450  0.0707 -0.5506
 5563TIP3   OH238103   4.676   0.504  11.367  0.2909 -0.3876  0.3965
 5563TIP3    H138104   4.746   0.439  11.371  0.7296 -0.0512 -1.1598
 5563TIP3    H238105   4.634   0.489  11.282 -0.5923  0.3753  0.6815
 5564TIP3   OH238106   1.816   3.220  14.788 -0.5380 -0.3121  0.6031
 5564TIP3    H138107   1.740   3.241  14.843 -0.8434  0.9471 -0.2500
 5564TIP3    H238108   1.777   3.184  14.708 -0.1649 -0.8955  0.6841
 5565TIP3   OH238109   4.777   5.666  12.261  0.3219 -0.8757 -0.0815
 5565TIP3    H138110   4.801   5.755  12.236  0.3811 -0.5833  0.9436
 5565TIP3    H238111   4.709   5.641  12.199 -0.4695  0.3085  0.2723
 5566TIP3   OH238112   6.754   1.804   1.634 -0.2374  0.1957 -0.2888
 5566TIP3    H138113   6.722   1.719   1.664 -1.0894 -0.4861 -2.8587
 5566TIP3    H238114   6.849   1.793   1.626 -0.3581 -0.5792 -0.7424
 5567TIP3   OH238115   0.440   3.116   3.915 -0.2231 -0.2416  0.2119
 5567TIP3    H138116   0.511   3.176   3.891  0.2882 -0.3172  1.4551
 5567TIP3    H238117   0.471   3.074   3.995 -1.0742 -1.3305 -0.0181
 5568TIP3   OH238118   2.472   4.321   3.858  0.1493 -0.0553 -0.2555
 5568TIP3    H138119   2.516   4.404   3.873 -0.0747  0.0786 -0.3400
 5568TIP3    H238120   2.542   4.260   3.835  0.5835 -0.3887  1.7794
 5569TIP3   OH238121   6.346   6.667   1.444  0.4167 -0.2141  0.1313
 5569TIP3    H138122   6.340   6.589   1.499 -1.2150 -0.7948 -0.7628
 5569TIP3    H238123   6.255   6.683   1.417  1.0653  0.3431 -1.9192
 5570TIP3   OH238124   6.029   4.373   3.340  0.5750  0.5683 -0.1435
 5570TIP3    H138125   5.963   4.435   3.311  0.5270  0.1609 -0.9140
 5570TIP3    H238126   5.980   4.299   3.375  0.5546 -0.6064 -2.5057
 5571TIP3   OH238127   0.643   1.774  16.054 -0.1471  0.0075  0.2359
 5571TIP3    H138128   0.706   1.781  15.983  0.6512 -1.0891  0.8167
 5571TIP3    H238129   0.651   1.856  16.102  1.9164 -0.6787  1.1598
 5572TIP3   OH238130   3.985   4.137   0.926  0.2242  0.2925 -0.1535
 5572TIP3    H138131   3.936   4.130   1.008 -1.7108 -1.6454 -1.3838
 5572TIP3    H238132   3.966   4.224   0.894 -0.5866  0.3769  0.5154
 5573TIP3   OH238133   5.696   4.306  14.217 -0.5457 -0.0080  0.6264
 5573TIP3    H138134   5.777   4.285  14.264 -0.3268 -0.9721 -0.1459
 5573TIP3    H238135   5.704   4.260  14.133 -2.3531 -1.0309  0.9536
 5574TIP3   OH238136   3.247   0.845   1.075  0.2679 -0.3782  0.5330
 5574TIP3    H138137   3.190   0.887   1.011  1.3879 -1.2096 -1.0705
 5574TIP3    H238138   3.192   0.835   1.153 -1.2966  0.1972 -0.4501
 5575TIP3   OH238139   2.683   3.607   3.792 -0.6829  0.6922 -0.1242
 5575TIP3    H138140   2.727   3.655   3.722  0.3390 -0.0040  0.0245
 5575TIP3    H238141   2.667   3.520   3.756  2.2774 -0.5985  1.2953
 5576TIP3   OH238142   3.956   5.722  16.798  0.4008 -0.8868 -0.4827
 5576TIP3    H138143   3.968   5.630  16.775  3.7895 -0.1704 -2.2272
 5576TIP3    H238144   4.024   5.739  16.863 -0.9752  0.1495  0.7449
 5577TIP3   OH238145   0.343   3.310  13.392 -0.5490 -0.1724 -0.0908
 5577TIP3    H138146   0.360   3.403  13.407 -0.8449 -0.0627 -0.4204
 5577TIP3    H238147   0.384   3.266  13.466 -1.8613  0.3369  0.9802
 5578TIP3   OH238148   3.511   1.385   1.726 -0.4005  0.7516  0.0680
 5578TIP3    H138149   3.513   1.444   1.651  0.6456  0.5108 -0.1079
 5578TIP3    H238150   3.589   1.330   1.716 -0.4449  0.4699  1.1236
 5579TIP3   OH238151   1.810   0.657   1.296 -0.5631 -0.0430 -0.2132
 5579TIP3    H138152   1.772   0.738   1.329  0.2139  0.9967 -1.7389
 5579TIP3    H238153   1.759   0.636   1.219 -0.2430 -0.5587 -0.2918
 5580TIP3   OH238154   5.431   0.712   0.435 -0.0601 -0.3845  0.2110
 5580TIP3    H138155   5.432   0.807   0.419  1.0881 -0.5063 -0.4976
 5580TIP3    H238156   5.389   0.703   0.521  0.2880  0.8043  0.5236
 5581TIP3   OH238157   1.486   4.623   0.899 -0.9298 -0.4464 -0.1324
 5581TIP3    H138158   1.403   4.595   0.937 -0.4611 -1.7458 -0.0003
 5581TIP3    H238159   1.537   4.542   0.892  0.2873  0.3141 -0.2992
 5582TIP3   OH238160   2.866   0.557   3.103  0.1740  0.4678  0.4638
 5582TIP3    H138161   2.957   0.552   3.130  0.8716 -2.2532 -1.8359
 5582TIP3    H238162   2.835   0.466   3.106 -2.7644  1.3715  1.8724
 5583TIP3   OH238163   2.901   4.865  15.178  0.3235 -0.3032 -0.4603
 5583TIP3    H138164   2.930   4.867  15.269  0.6750 -4.2007 -0.3036
 5583TIP3    H238165   2.971   4.820  15.131 -1.0834 -0.9637 -2.0593
 5584TIP3   OH238166   3.181   3.912   3.812  0.7709  0.1282 -0.1163
 5584TIP3    H138167   3.109   3.914   3.875 -0.5061 -2.9199 -1.2798
 5584TIP3    H238168   3.227   3.830   3.830  3.7573  1.7120  0.2315
 5585TIP3   OH238169   3.686   4.509   1.902  0.0164 -0.5330 -0.5010
 5585TIP3    H138170   3.757   4.573   1.902 -0.1972 -0.2425 -2.6739
 5585TIP3    H238171   3.664   4.498   1.995  1.4971  0.9133  0.0653
 5586TIP3   OH238172   5.461   3.818  17.258 -0.2276 -0.3322  0.6894
 5586TIP3    H138173   5.371   3.791  17.238 -0.2290 -0.8605  1.3520
 5586TIP3    H238174   5.467   3.809  17.353  0.6491 -0.6986  0.6064
 5587TIP3   OH238175   2.643   3.950  17.059  0.5550 -0.1962  0.0977
 5587TIP3    H138176   2.704   3.905  17.117 -0.6465 -2.5278 -0.3111
 5587TIP3    H238177   2.569   3.890  17.051 -0.8913  1.6138 -1.0513
 5588TIP3   OH238178   6.523   4.391   2.558  0.2433 -0.2136 -0.0460
 5588TIP3    H138179   6.460   4.323   2.580 -0.5300  0.0211 -1.4241
 5588TIP3    H238180   6.549   4.372   2.468  1.0658  0.5199  0.0193
 5589TIP3   OH238181   5.586   1.427  11.654 -0.7412  0.1486  0.2834
 5589TIP3    H138182   5.499   1.392  11.670 -0.6162 -1.0360 -1.3895
 5589TIP3    H238183   5.619   1.451  11.741 -2.4048 -0.1057  1.0191
 5590TIP3   OH238184   3.951   5.080  15.725 -0.2142  0.6800  0.7872
 5590TIP3    H138185   3.876   5.024  15.742  0.1072 -0.9970 -2.5302
 5590TIP3    H238186   4.001   5.034  15.658  1.1548  4.0329 -0.7459
 5591TIP3   OH238187   0.716   5.691  11.392 -0.2785 -0.6002  0.3499
 5591TIP3    H138188   0.703   5.612  11.340 -0.4495  0.3797 -1.1614
 5591TIP3    H238189   0.811   5.696  11.405 -0.2560 -0.9674  0.3317
 5592TIP3   OH238190   5.007   6.773   4.552  0.0779  0.1113  0.5912
 5592TIP3    H138191   5.035   6.819   4.473 -1.2940  0.6442  0.3953
 5592TIP3    H238192   5.048   6.821   4.623  0.7552  0.0506  0.2517
 5593TIP3   OH238193   3.846   6.326   4.579  0.0776  0.3607  0.2490
 5593TIP3    H138194   3.828   6.420   4.573  2.3648  0.8703  0.3717
 5593TIP3    H238195   3.883   6.303   4.493  0.1227 -0.2791  0.4359
 5594TIP3   OH238196   1.751   5.851   2.100 -0.1121 -0.3395 -0.3673
 5594TIP3    H138197   1.703   5.892   2.028  0.5196 -0.8634 -1.1026
 5594TIP3    H238198   1.843   5.875   2.086  0.0217 -0.4436  0.2648
 5595TIP3   OH238199   3.149   3.923   2.554  0.2420  0.3896 -0.2377
 5595TIP3    H138200   3.081   3.879   2.503 -0.8127  1.6177  0.0504
 5595TIP3    H238201   3.170   4.002   2.504  1.5372  0.0048 -0.3565
 5596TIP3   OH238202   6.083   6.114   5.387  0.4207 -0.5077  0.7450
 5596TIP3    H138203   6.047   6.170   5.456 -0.4573 -0.5424  0.3415
 5596TIP3    H238204   6.051   6.026   5.408  0.0927 -0.5092  0.2794
 5597TIP3   OH238205   2.637   4.284  15.959  0.2418  0.3125  0.3029
 5597TIP3    H138206   2.627   4.212  15.896 -1.1251  1.8597 -1.3378
 5597TIP3    H238207   2.727   4.314  15.947  0.8096 -1.0351  0.9631
 5598TIP3   OH238208   2.114   1.667   3.575 -0.0260  0.0316  0.0067
 5598TIP3    H138209   2.059   1.627   3.508 -0.9418 -0.4606  1.0172
 5598TIP3    H238210   2.053   1.696   3.642  0.8770  0.3602  0.7156
 5599TIP3   OH238211   3.894   2.038   3.687 -0.7351 -0.5610  0.2679
 5599TIP3    H138212   3.920   2.072   3.601  0.1074  0.4982  0.9070
 5599TIP3    H238213   3.804   2.068   3.699 -0.5157  0.1488  0.1732
 5600TIP3   OH238214   3.145   6.062   1.014  0.0649 -0.6242 -0.2352
 5600TIP3    H138215   3.068   6.071   0.958  0.5409 -2.5437 -1.2600
 5600TIP3    H238216   3.204   6.132   0.986 -0.8455  0.2012 -0.1510
 5601TIP3   OH238217   2.264   0.354  16.323 -0.7185  0.1371  0.0144
 5601TIP3    H138218   2.340   0.305  16.354 -0.7161  0.6495  0.8414
 5601TIP3    H238219   2.298   0.406  16.250 -0.6289 -0.7617 -0.6044
 5602TIP3   OH238220   5.568   6.127  17.235  0.3227  0.3532 -0.7836
 5602TIP3    H138221   5.520   6.084  17.305  1.7660  0.4331  0.2903
 5602TIP3    H238222   5.501   6.146  17.169 -1.0475  0.1751  0.4982
 5603TIP3   OH238223   4.728   4.216  11.799  0.2605  0.4777  0.0870
 5603TIP3    H138224   4.797   4.270  11.837 -0.1599  1.3009 -0.3188
 5603TIP3    H238225   4.684   4.177  11.874  1.6143 -0.6650  0.3521
 5604TIP3   OH238226   2.503   0.978  17.218 -0.2986  0.0816 -0.0560
 5604TIP3    H138227   2.528   1.042  17.285  0.1089 -0.7189  0.5837
 5604TIP3    H238228   2.550   1.006  17.139 -2.9049  2.6330 -0.8517
 5605TIP3   OH238229   5.172   3.505   3.697  1.1114 -0.1271 -0.0096
 5605TIP3    H138230   5.132   3.591   3.707 -0.0289 -0.7513  0.9398
 5605TIP3    H238231   5.110   3.444   3.737  2.6222 -1.2150  0.7738
 5606TIP3   OH238232   2.345   4.858   2.636 -0.9877  0.0537 -0.5266
 5606TIP3    H138233   2.364   4.842   2.729  1.0009  0.8979 -0.7497
 5606TIP3    H238234   2.277   4.793   2.615 -2.5700  0.7726  1.8544
 5607TIP3   OH238235   4.590   0.127   2.806 -0.7555 -0.0478  0.6170
 5607TIP3    H138236   4.515   0.082   2.845 -1.1650 -0.4315 -0.5517
 5607TIP3    H238237   4.617   0.069   2.735  0.1899  0.4443  0.5658
 5608TIP3   OH238238   3.329   0.500   4.689 -0.2257  0.2679  0.3802
 5608TIP3    H138239   3.419   0.531   4.678 -1.4827  4.7262  0.6588
 5608TIP3    H238240   3.308   0.521   4.780 -1.6252 -0.4588  0.2470
 5609TIP3   OH238241   4.342   5.385  13.481 -0.1595 -0.1191 -0.6747
 5609TIP3    H138242   4.363   5.313  13.541  1.3402 -0.5017 -1.6083
 5609TIP3    H238243   4.269   5.352  13.429 -1.1957  0.0563  0.6150
 5610TIP3   OH238244   4.942   1.449  16.334  0.2844  0.2150  0.2287
 5610TIP3    H138245   4.940   1.386  16.262  0.7400  1.0731 -0.5630
 5610TIP3    H238246   5.024   1.431  16.380  0.5897  0.4517 -0.2146
 5611TIP3   OH238247   6.222   5.481   1.276 -0.1269  0.2868  0.1694
 5611TIP3    H138248   6.189   5.488   1.366  1.4620 -0.2820  0.8334
 5611TIP3    H238249   6.245   5.389   1.266 -1.6717  0.0180 -1.3672
 5612TIP3   OH238250   1.440   1.124   4.077 -0.1626  0.3349  0.3157
 5612TIP3    H138251   1.422   1.157   3.989  0.8561 -1.7677 -0.7709
 5612TIP3    H238252   1.396   1.039   4.080  0.7892 -0.1408  1.3979
 5613TIP3   OH238253   5.232   4.912  13.754  0.2206  0.1626  0.1029
 5613TIP3    H138254   5.325   4.912  13.731 -0.2596  1.6796 -2.1883
 5613TIP3    H238255   5.210   4.819  13.765  1.9140 -0.2420  0.3917
 5614TIP3   OH238256   2.860   0.178   6.057 -0.3894  0.0526  0.1710
 5614TIP3    H138257   2.876   0.085   6.076 -0.5781 -0.2070 -0.8625
 5614TIP3    H238258   2.907   0.225   6.125  0.1610 -0.7936  0.3911
 5615TIP3   OH238259   4.598   6.571   1.857  0.8571 -0.3062 -0.0694
 5615TIP3    H138260   4.593   6.645   1.798 -1.5199 -0.5068 -0.1991
 5615TIP3    H238261   4.619   6.496   1.801  1.5936 -0.0105 -0.1892
 5616TIP3   OH238262   6.173   1.262   4.175 -1.0066 -0.4320  0.1126
 5616TIP3    H138263   6.139   1.316   4.103 -3.3828 -0.2243  1.2813
 5616TIP3    H238264   6.254   1.225   4.141 -1.3656  0.6951 -2.1841
 5617TIP3   OH238265   2.265   5.550  12.821 -0.1621  0.1195  0.1454
 5617TIP3    H138266   2.290   5.616  12.886  0.6367  0.4737 -0.4954
 5617TIP3    H238267   2.184   5.512  12.854  0.7378 -0.4036  1.8379
 5618TIP3   OH238268   4.271   2.517   4.267 -0.4830  0.4124  0.0123
 5618TIP3    H138269   4.356   2.513   4.310 -0.0038  1.1020 -0.8412
 5618TIP3    H238270   4.249   2.426   4.249  1.7917  0.3117 -3.0020
 5619TIP3   OH238271   4.347   6.480  13.171  0.1626  0.0512 -0.0079
 5619TIP3    H138272   4.321   6.534  13.246 -1.7179 -0.2717 -0.3977
 5619TIP3    H238273   4.352   6.542  13.098  1.8111  0.3302  0.2791
 5620TIP3   OH238274   0.816   6.455  15.553  0.2455  0.0472 -0.6862
 5620TIP3    H138275   0.890   6.397  15.570  0.1906 -1.0377 -3.5567
 5620TIP3    H238276   0.788   6.485  15.640  1.5453 -2.6165  0.7772
 5621TIP3   OH238277   5.929   2.618   2.222 -0.4681  0.0632 -0.0122
 5621TIP3    H138278   5.895   2.635   2.310  0.9032  1.7042  0.2508
 5621TIP3    H238279   6.022   2.597   2.237 -1.1112 -4.2704 -0.6784
 5622TIP3   OH238280   2.045   4.889   2.399  0.5183 -0.0105 -0.4138
 5622TIP3    H138281   2.105   4.849   2.336 -0.3923  0.8290 -1.8515
 5622TIP3    H238282   2.075   4.857   2.484  0.9517 -2.2794 -1.3554
 5623TIP3   OH238283   6.234   1.454  12.347 -0.2544  0.4413 -0.6549
 5623TIP3    H138284   6.140   1.465  12.333 -0.5420 -1.1031 -0.0947
 5623TIP3    H238285   6.240   1.392  12.419  1.1974 -0.1582 -1.2694
 5624TIP3   OH238286   6.316   2.594  11.258  0.4598  0.1860  0.0854
 5624TIP3    H138287   6.367   2.674  11.265  1.9063 -0.6096 -0.7292
 5624TIP3    H238288   6.319   2.572  11.165 -1.1083 -0.0759  0.0791
 5625TIP3   OH238289   6.737   4.627   1.206  0.7641 -0.4325 -0.5685
 5625TIP3    H138290   6.738   4.632   1.301 -0.2842 -1.0819 -0.5016
 5625TIP3    H238291   6.753   4.535   1.186  0.7376 -0.3460 -1.0100
 5626TIP3   OH238292   1.279   0.950  12.958  0.4759 -0.6631 -0.2104
 5626TIP3    H138293   1.374   0.950  12.949  0.4255 -1.7540 -0.9690
 5626TIP3    H238294   1.247   0.913  12.875 -0.5465 -1.3625  0.4708
 5627TIP3   OH238295   3.063   4.818   0.295 -0.2598  0.7890 -0.3762
 5627TIP3    H138296   3.159   4.817   0.300 -0.3076 -0.0744  2.0775
 5627TIP3    H238297   3.043   4.769   0.215  1.3434  0.7653 -0.8042
 5628TIP3   OH238298   1.205   6.197  12.071 -0.0322  0.0098 -0.2120
 5628TIP3    H138299   1.152   6.247  12.134  0.0730  0.3754 -0.4107
 5628TIP3    H238300   1.220   6.113  12.114  0.1225  0.2921  0.2950
 5629TIP3   OH238301   5.625   0.937  11.965  0.4160  0.0991  0.3312
 5629TIP3    H138302   5.712   0.902  11.943  1.0813  0.2856  2.4520
 5629TIP3    H238303   5.564   0.868  11.938  1.5360 -1.8374  2.4210
 5630TIP3   OH238304   1.929   3.700  16.183 -0.2061 -0.1264  0.3867
 5630TIP3    H138305   1.907   3.684  16.091 -0.7034  1.5235  0.1916
 5630TIP3    H238306   2.013   3.745  16.181  0.4813 -1.3457  0.8396
 5631TIP3   OH238307   3.947   6.208   0.952 -0.2140 -0.6231 -0.3979
 5631TIP3    H138308   3.923   6.230   0.862  1.5802  2.2802 -0.3074
 5631TIP3    H238309   3.889   6.261   1.006  0.5215 -0.2686  0.0558
 5632TIP3   OH238310   2.137   2.324   4.880  0.2324  0.7069  0.2501
 5632TIP3    H138311   2.164   2.321   4.788  0.3882  1.4409  0.2645
 5632TIP3    H238312   2.219   2.332   4.929  0.2372 -0.8243  0.5404
 5633TIP3   OH238313   1.624   3.591  16.598 -0.3363  0.5083 -0.4411
 5633TIP3    H138314   1.602   3.638  16.517  1.3578  0.0438 -1.2251
 5633TIP3    H238315   1.707   3.629  16.625  0.0189 -0.5982  0.0637
 5634TIP3   OH238316   0.920   2.956  13.024 -0.1898 -0.2757  0.3019
 5634TIP3    H138317   0.872   3.007  12.958  1.4377  0.4874 -0.3558
 5634TIP3    H238318   0.856   2.893  13.057 -1.7857  1.0305 -0.1377
 5635TIP3   OH238319   5.369   0.087  14.702  0.3213  0.8740  0.0033
 5635TIP3    H138320   5.296   0.026  14.698 -0.0034  0.7967  3.5295
 5635TIP3    H238321   5.357   0.144  14.627 -2.8243  0.2540 -0.1051
 5636TIP3   OH238322   2.817   6.224   3.707  0.2112  0.3589  0.4808
 5636TIP3    H138323   2.753   6.268   3.652  0.0754  1.3277  1.4013
 5636TIP3    H238324   2.902   6.260   3.679  0.1717  0.6000  0.6702
 5637TIP3   OH238325   1.924   5.125   3.576 -0.1974  0.3369 -0.1629
 5637TIP3    H138326   1.996   5.167   3.622  0.7536 -1.4479  0.0624
 5637TIP3    H238327   1.868   5.198   3.548  0.2458  1.6043  2.0038
 5638TIP3   OH238328   4.800   5.848  13.942  0.0174 -0.1321  0.2101
 5638TIP3    H138329   4.869   5.815  13.999 -0.6869 -0.7225  0.7216
 5638TIP3    H238330   4.759   5.770  13.906 -0.4355  0.2185 -0.0414
 5639TIP3   OH238331   1.260   1.640  17.049 -0.6899  0.3984  0.4122
 5639TIP3    H138332   1.288   1.716  17.100 -0.7856  0.5383  0.2583
 5639TIP3    H238333   1.228   1.677  16.967 -1.4291  0.2545  0.6278
 5640TIP3   OH238334   4.101   2.088   1.704 -0.0826 -0.0810  0.5474
 5640TIP3    H138335   4.181   2.127   1.671  0.4298 -0.1232  1.6931
 5640TIP3    H238336   4.089   2.009   1.652  1.8335 -1.2578  1.7777
 5641TIP3   OH238337   2.307   2.324  10.959  0.1911  0.0238 -0.4002
 5641TIP3    H138338   2.265   2.252  10.912 -1.3884 -0.0427  1.0155
 5641TIP3    H238339   2.263   2.403  10.925 -2.2685 -0.1309  2.0563
 5642TIP3   OH238340   1.023   0.336   2.279  0.8063 -0.1952  0.3901
 5642TIP3    H138341   1.071   0.417   2.264 -0.0911  0.7172  2.1004
 5642TIP3    H238342   1.031   0.287   2.198  1.7368  1.4264 -0.5295
 5643TIP3   OH238343   6.186   5.039   5.204 -0.1986 -0.2569 -0.3319
 5643TIP3    H138344   6.157   5.036   5.113  0.0735 -0.9408 -0.4008
 5643TIP3    H238345   6.186   5.132   5.226  0.9207  0.0207 -1.4005
 5644TIP3   OH238346   5.640   6.532  12.098  0.4407 -0.0302 -0.4039
 5644TIP3    H138347   5.580   6.569  12.034  1.5554 -0.6232 -1.8548
 5644TIP3    H238348   5.667   6.606  12.152 -1.3671  0.2811  0.1281
 5645TIP3   OH238349   2.366   3.648   2.618  0.2435  0.7983  0.0326
 5645TIP3    H138350   2.308   3.627   2.544 -1.1010  0.2389  1.1874
 5645TIP3    H238351   2.371   3.566   2.668 -1.1166  1.8281  2.0027
 5646TIP3   OH238352   1.355   5.710   1.101 -0.4908 -0.3891 -0.2635
 5646TIP3    H138353   1.369   5.666   1.018 -0.1705  0.0868 -0.4680
 5646TIP3    H238354   1.370   5.803   1.082  1.7647 -0.4694  0.7772
 5647TIP3   OH238355   6.404   5.330  14.619 -0.0584  0.4138  0.7856
 5647TIP3    H138356   6.441   5.266  14.557  1.1658 -0.6698  2.5311
 5647TIP3    H238357   6.448   5.412  14.598 -0.8781  0.4860 -0.8129
 5648TIP3   OH238358   3.889   0.960  11.479  0.0055 -0.0905  0.6757
 5648TIP3    H138359   3.806   0.967  11.526  0.7271 -1.1684  2.2291
 5648TIP3    H238360   3.897   0.866  11.458 -0.8650  0.4744 -2.8254
 5649TIP3   OH238361   1.614   5.805   3.443 -0.1842 -0.3617  0.1465
 5649TIP3    H138362   1.686   5.832   3.386 -0.6249  0.3024 -0.1071
 5649TIP3    H238363   1.577   5.887   3.474 -0.6456 -0.7078  0.5142
 5650TIP3   OH238364   4.352   0.199   2.678 -0.7843  0.3299 -0.0812
 5650TIP3    H138365   4.420   0.162   2.734 -1.4015 -2.9931 -1.3057
 5650TIP3    H238366   4.399   0.258   2.620  0.4427  0.9066  1.4175
 5651TIP3   OH238367   2.767   3.362   6.124 -0.1623 -0.3387  0.2929
 5651TIP3    H138368   2.699   3.429   6.123  0.2285  0.1072  1.5781
 5651TIP3    H238369   2.792   3.354   6.216  0.4230 -1.6270  0.0495
 5652TIP3   OH238370   0.553   0.671   1.896 -0.3193  0.0200 -0.5096
 5652TIP3    H138371   0.472   0.701   1.936  0.5303  1.3653  0.2653
 5652TIP3    H238372   0.614   0.744   1.907  1.6347 -1.7110  0.8011
 5653TIP3   OH238373   6.538   2.045  16.684 -0.2870  0.3375  0.3854
 5653TIP3    H138374   6.460   2.041  16.740 -0.1413 -1.5718  0.5285
 5653TIP3    H238375   6.610   2.019  16.742  0.6104  2.6659  0.4211
 5654TIP3   OH238376   6.204   4.080  15.825 -0.0774  0.1327  0.1844
 5654TIP3    H138377   6.131   4.036  15.781  0.5774 -0.4321 -0.3535
 5654TIP3    H238378   6.181   4.173  15.821 -1.2080 -0.1077  0.8488
 5655TIP3   OH238379   3.882   4.491  15.054 -0.1435  0.1515 -0.4704
 5655TIP3    H138380   3.886   4.440  15.135 -2.4392 -0.3595 -0.6311
 5655TIP3    H238381   3.907   4.580  15.080 -0.4318 -0.0960  0.6924
 5656TIP3   OH238382   1.710   5.707  12.106  0.1590  0.2060  0.3166
 5656TIP3    H138383   1.788   5.665  12.143 -0.0257 -0.3793  0.0555
 5656TIP3    H238384   1.641   5.692  12.170  0.4665  1.5487  1.0002
 5657TIP3   OH238385   2.339   2.784   5.676 -0.0159  0.2263 -0.2491
 5657TIP3    H138386   2.404   2.804   5.609 -0.7227 -1.4826 -1.5137
 5657TIP3    H238387   2.387   2.787   5.758  0.8439  2.5522 -0.7515
 5658TIP3   OH238388   5.301   4.426   4.506 -0.3592 -0.1964 -0.7207
 5658TIP3    H138389   5.216   4.470   4.516  0.0250  0.4014 -0.0387
 5658TIP3    H238390   5.310   4.373   4.585  0.1011  0.0901 -0.5777
 5659TIP3   OH238391   0.320   3.860  11.554 -0.1379 -0.5780 -0.1193
 5659TIP3    H138392   0.329   3.786  11.614 -3.0543 -0.7421  0.2660
 5659TIP3    H238393   0.240   3.841  11.505  0.5209  1.0373 -1.9417
 5660TIP3   OH238394   3.999   1.674   4.313  0.1735  0.2044 -0.2953
 5660TIP3    H138395   3.956   1.589   4.305  1.4859 -0.4859 -0.4320
 5660TIP3    H238396   4.065   1.661   4.381 -0.7256  1.6211  0.8887
 5661TIP3   OH238397   1.498   2.235   6.560  0.8000 -0.4042 -0.6569
 5661TIP3    H138398   1.461   2.314   6.599  3.0993  0.4074  0.0270
 5661TIP3    H238399   1.423   2.175   6.552 -0.6621  1.1693  0.4571
 5662TIP3   OH238400   6.588   6.216  16.991  0.5867  0.3999  0.5321
 5662TIP3    H138401   6.534   6.295  17.000 -1.0673 -0.3047 -2.0308
 5662TIP3    H238402   6.531   6.146  17.022  0.9782 -0.0903  0.1422
 5663TIP3   OH238403   4.268   3.495  14.018 -0.5482 -0.1026 -0.0736
 5663TIP3    H138404   4.334   3.529  13.958 -0.4572  0.5695  0.3836
 5663TIP3    H238405   4.196   3.559  14.013 -0.8773 -0.4718 -0.0730
 5664TIP3   OH238406   2.865   1.255  12.705 -0.6534  0.1542 -0.2567
 5664TIP3    H138407   2.950   1.219  12.731 -0.9125 -0.1193  0.2107
 5664TIP3    H238408   2.887   1.337  12.659 -0.2366  1.1842  1.6827
 5665TIP3   OH238409   6.298   0.272  14.300  0.3718  0.1674  0.2802
 5665TIP3    H138410   6.331   0.219  14.228 -0.9284  0.0524 -0.2417
 5665TIP3    H238411   6.212   0.302  14.272  0.0902  0.6261  1.5321
 5666TIP3   OH238412   5.369   0.734  12.513  0.1745 -0.4197 -0.2478
 5666TIP3    H138413   5.421   0.654  12.511  1.1674  0.2165 -1.2620
 5666TIP3    H238414   5.397   0.779  12.592 -0.4338 -1.0746  0.3609
 5667TIP3   OH238415   1.575   3.950   0.552 -0.7405  0.2342 -0.1746
 5667TIP3    H138416   1.573   3.855   0.534  0.8965 -0.7330  3.7235
 5667TIP3    H238417   1.521   3.960   0.630  2.1414  1.7934  1.7916
 5668TIP3   OH238418   3.999   6.450   0.306  0.0822  0.4578  0.7218
 5668TIP3    H138419   4.041   6.431   0.390  1.5649  0.0569 -0.0756
 5668TIP3    H238420   3.914   6.405   0.311  0.1234  0.4719  2.0000
 5669TIP3   OH238421   0.527   5.329  16.200  0.2720  0.4033  0.5737
 5669TIP3    H138422   0.503   5.335  16.107 -0.2745 -0.5749  0.6383
 5669TIP3    H238423   0.615   5.292  16.199  0.9750  1.9892  0.4081
 5670TIP3   OH238424   2.017   0.739  14.595 -0.5629  0.1076  0.2245
 5670TIP3    H138425   1.958   0.806  14.630 -1.0841  1.0291 -2.1825
 5670TIP3    H238426   2.104   0.776  14.607 -0.8092  0.9676 -0.5149
 5671TIP3   OH238427   6.440   4.437   5.650  0.7808 -0.0741 -0.7532
 5671TIP3    H138428   6.395   4.471   5.727 -1.2023  1.1936 -2.3596
 5671TIP3    H238429   6.375   4.442   5.579  2.8274 -0.1150 -2.7701
 5672TIP3   OH238430   5.238   4.778   5.335  0.5622 -0.3514 -0.3925
 5672TIP3    H138431   5.251   4.869   5.306 -0.7006  0.5048  1.4984
 5672TIP3    H238432   5.150   4.777   5.372  0.5957 -2.3381 -0.2769
 5673TIP3   OH238433   0.149   5.627   4.120  0.1057 -0.3246  0.4358
 5673TIP3    H138434   0.178   5.574   4.046 -0.0625  0.5407 -0.2720
 5673TIP3    H238435   0.054   5.637   4.107 -0.1353 -1.1618  1.4315
 5674TIP3   OH238436   6.124   1.963  16.360 -0.3646  0.1620 -0.3527
 5674TIP3    H138437   6.152   1.913  16.437  0.7658  0.8222 -0.3186
 5674TIP3    H238438   6.188   2.033  16.353 -0.0411 -0.2841 -2.3200
 5675TIP3   OH238439   0.871   0.736   1.331  0.0383  0.4844 -0.0089
 5675TIP3    H138440   0.799   0.688   1.290 -1.1876  1.3015  1.1027
 5675TIP3    H238441   0.870   0.707   1.422  1.9710 -0.4407 -0.2385
 5676TIP3   OH238442   4.889   6.610  12.132 -0.3544 -0.3402  0.0222
 5676TIP3    H138443   4.827   6.558  12.081 -1.4908 -1.0015  1.9596
 5676TIP3    H238444   4.896   6.564  12.215  1.6208  0.5538  0.3983
 5677TIP3   OH238445   0.858   5.078  12.495 -0.3571 -0.0961  0.1730
 5677TIP3    H138446   0.878   4.998  12.447  1.0734  0.6673 -0.5600
 5677TIP3    H238447   0.868   5.149  12.431 -1.2597  0.7104  0.8880
 5678TIP3   OH238448   1.525   5.703  15.631  0.3129  0.4044 -0.0067
 5678TIP3    H138449   1.581   5.670  15.561 -0.2825 -1.2241  0.2331
 5678TIP3    H238450   1.442   5.722  15.587  0.2843  0.4473  0.0665
 5679TIP3   OH238451   3.328   0.188  16.797 -0.6943  0.5954  0.2385
 5679TIP3    H138452   3.254   0.129  16.787 -1.9452  2.1403 -0.1197
 5679TIP3    H238453   3.336   0.201  16.891  0.1546 -0.7840  0.3780
 5680TIP3   OH238454   3.642   1.280   5.995 -0.5141 -0.2456  0.0830
 5680TIP3    H138455   3.732   1.256   6.016 -0.0668  0.1296 -1.2428
 5680TIP3    H238456   3.588   1.218   6.043  0.5083 -1.7868 -0.6695
 5681TIP3   OH238457   6.175   2.891   5.953  0.0226  0.9620 -0.0776
 5681TIP3    H138458   6.108   2.880   5.886 -1.1894  0.1766  1.1842
 5681TIP3    H238459   6.132   2.862   6.034  1.0272  2.9725  1.2636
 5682TIP3   OH238460   3.457   1.347   0.149  0.0070 -0.5499 -0.7323
 5682TIP3    H138461   3.474   1.417   0.086 -0.0189 -0.2490 -0.4138
 5682TIP3    H238462   3.411   1.392   0.221  1.6117 -0.5290  0.3179
 5683TIP3   OH238463   0.783   5.691   0.241  0.3596 -0.5540 -0.8755
 5683TIP3    H138464   0.792   5.615   0.299  0.1618  0.5267  0.6405
 5683TIP3    H238465   0.701   5.733   0.269 -0.0312 -0.2700 -2.3219
 5684TIP3   OH238466   2.130   0.587   1.126  0.0695 -0.1593 -0.2247
 5684TIP3    H138467   2.062   0.641   1.086 -0.1817  1.4256  2.1834
 5684TIP3    H238468   2.103   0.577   1.217  1.7359 -1.7265  0.1537
 5685TIP3   OH238469   1.760   5.054  16.639  0.0493  0.0335 -0.0344
 5685TIP3    H138470   1.733   4.992  16.706  1.1599 -0.9883 -0.4840
 5685TIP3    H238471   1.843   5.090  16.671  0.1548  0.1752 -0.4515
 5686TIP3   OH238472   1.409   3.667  15.449 -0.2974  0.3944 -0.4987
 5686TIP3    H138473   1.435   3.655  15.358  1.0588 -1.2518  0.0650
 5686TIP3    H238474   1.313   3.661  15.448 -0.2252 -0.9123 -1.6501
 5687TIP3   OH238475   3.798   4.425  12.093 -0.3434  0.4736 -0.3142
 5687TIP3    H138476   3.748   4.497  12.055 -1.6737 -0.5450 -0.5618
 5687TIP3    H238477   3.803   4.360  12.024  1.1126  0.4247 -0.1903
 5688TIP3   OH238478   0.777   3.688   2.192 -0.0626  0.1915 -0.4560
 5688TIP3    H138479   0.681   3.678   2.188  0.0672 -1.0144 -1.3086
 5688TIP3    H238480   0.808   3.651   2.109  1.2071 -0.2824  0.2058
 5689TIP3   OH238481   3.278   5.683   4.688  0.2529 -0.2080  0.0882
 5689TIP3    H138482   3.310   5.730   4.610  0.6976  0.0839  0.4428
 5689TIP3    H238483   3.269   5.751   4.755  1.7433 -0.7446  0.8672
 5690TIP3   OH238484   1.277   2.880   5.424 -0.2972  0.1939 -0.2962
 5690TIP3    H138485   1.224   2.805   5.395  1.4739 -1.3026  0.1919
 5690TIP3    H238486   1.300   2.926   5.342 -0.2491 -0.5939 -0.7326
 5691TIP3   OH238487   5.350   1.165  13.456 -0.4323  0.0868 -0.0374
 5691TIP3    H138488   5.401   1.245  13.464  0.2880 -0.3129 -0.5360
 5691TIP3    H238489   5.294   1.164  13.534  0.5584  0.3634  0.6970
 5692TIP3   OH238490   1.250   4.594   1.048  0.4530 -0.7470 -0.1924
 5692TIP3    H138491   1.184   4.655   1.015  0.9922 -0.4415 -0.7143
 5692TIP3    H238492   1.200   4.532   1.100 -0.3665 -0.9993 -1.2404
 5693TIP3   OH238493   2.376   4.771  15.329 -0.1109  0.1500  0.5458
 5693TIP3    H138494   2.409   4.697  15.380 -0.7733 -0.5927 -0.0894
 5693TIP3    H238495   2.281   4.769  15.342  0.0172  2.1753  2.2221
 5694TIP3   OH238496   2.988   2.313   5.286  0.6705 -0.0050  0.1367
 5694TIP3    H138497   2.967   2.292   5.377 -1.1571 -2.2980 -0.7080
 5694TIP3    H238498   2.940   2.393   5.267  0.3492 -0.0077  0.9310
 5695TIP3   OH238499   3.293   5.737   0.516  0.0962  0.3430  0.2022
 5695TIP3    H138500   3.236   5.779   0.452  0.7334  1.5372  0.3671
 5695TIP3    H238501   3.234   5.692   0.576 -0.5630  0.1391 -0.5763
 5696TIP3   OH238502   4.645   4.147  13.305 -0.7560  0.1255 -0.1299
 5696TIP3    H138503   4.686   4.233  13.293 -1.1156  0.1000 -1.7254
 5696TIP3    H238504   4.592   4.134  13.226 -0.2058 -1.8320 -0.2383
 5697TIP3   OH238505   4.427   6.190   4.444  0.0806 -0.5067  0.9847
 5697TIP3    H138506   4.467   6.209   4.359 -1.8811 -0.5649  0.0024
 5697TIP3    H238507   4.370   6.115   4.428 -0.9361 -0.0227  2.1603
 5698TIP3   OH238508   1.752   4.724   4.160  0.1892 -0.6737  0.2656
 5698TIP3    H138509   1.763   4.779   4.081  0.3966 -1.3693 -0.2007
 5698TIP3    H238510   1.677   4.669   4.140  2.2059 -3.1986 -0.8813
 5699TIP3   OH238511   3.959   1.030   5.572  0.4353 -0.1877  0.5690
 5699TIP3    H138512   3.980   1.122   5.555 -1.6648  0.5387  1.6630
 5699TIP3    H238513   3.895   1.032   5.642 -0.7842 -2.4221 -0.3792
 5700TIP3   OH238514   1.147   4.934  16.969  0.2453 -0.1912  0.2803
 5700TIP3    H138515   1.215   4.957  16.905  0.6882 -0.6240  0.5857
 5700TIP3    H238516   1.065   4.947  16.922  0.4672  1.6549  0.3046
 5701TIP3   OH238517   4.274   4.916   6.766  0.2351  0.6358  0.3376
 5701TIP3    H138518   4.297   4.962   6.685  0.8287  0.9313  0.6670
 5701TIP3    H238519   4.355   4.917   6.818 -0.1224  0.3894  0.9092
 5702TIP3   OH238520   0.634   2.973  13.320 -0.2380 -0.1802 -0.2341
 5702TIP3    H138521   0.710   2.996  13.373 -1.3298 -1.3857  1.9766
 5702TIP3    H238522   0.625   3.046  13.258  1.7806  0.7183  0.4683
 5703TIP3   OH238523   5.391   4.694   3.765 -0.6099  0.0831 -0.5426
 5703TIP3    H138524   5.369   4.725   3.853 -0.9711 -1.0675 -0.2118
 5703TIP3    H238525   5.472   4.644   3.778  0.2235  1.2158 -1.1462
 5704TIP3   OH238526   4.382   4.148   2.967 -0.2877  0.1728  0.1835
 5704TIP3    H138527   4.320   4.081   2.997 -0.4404  0.2730  0.0893
 5704TIP3    H238528   4.375   4.146   2.872 -0.1703  0.2081  0.1738
 5705TIP3   OH238529   2.476   4.174   6.253 -0.7197 -0.0431 -0.4395
 5705TIP3    H138530   2.438   4.259   6.272 -0.4858  0.0688 -0.4659
 5705TIP3    H238531   2.461   4.122   6.332 -1.4972 -0.2058 -0.6882
 5706TIP3   OH238532   6.630   2.977   0.221  0.2728 -0.4654 -0.2126
 5706TIP3    H138533   6.711   2.943   0.258  0.8058 -0.3454 -1.2316
 5706TIP3    H238534   6.561   2.929   0.265  0.9341 -1.1689  0.0710
 5707TIP3   OH238535   5.678   2.002   4.322 -0.0703  0.1333 -0.3652
 5707TIP3    H138536   5.772   1.998   4.303  0.0037  1.6770 -0.4422
 5707TIP3    H238537   5.663   2.092   4.349 -1.7954  0.3327 -1.8094
 5708TIP3   OH238538   1.935   5.360  10.662 -0.2403  0.0003 -0.3701
 5708TIP3    H138539   1.992   5.416  10.610 -0.1711  0.9062  0.6598
 5708TIP3    H238540   1.990   5.330  10.735 -0.7344 -0.0894 -0.0290
 5709TIP3   OH238541   3.121   6.348   6.425  0.5379 -0.2319 -0.0860
 5709TIP3    H138542   3.191   6.412   6.439  3.1467 -3.3873  2.9459
 5709TIP3    H238543   3.149   6.297   6.350  1.1081 -0.9232  0.5779
 5710TIP3   OH238544   1.835   4.386   2.469  0.2267  0.0314  0.1846
 5710TIP3    H138545   1.905   4.338   2.513 -0.4605 -2.2161 -0.9952
 5710TIP3    H238546   1.881   4.450   2.415  1.6125 -2.4348 -1.7963
 5711TIP3   OH238547   5.858   2.040  16.495 -0.6483 -1.1601  0.1899
 5711TIP3    H138548   5.817   1.978  16.434 -0.5041 -0.8100 -0.2629
 5711TIP3    H238549   5.949   2.011  16.501 -0.6565 -1.1798  0.2247
 5712TIP3   OH238550   6.428   6.011   4.543  0.2002  0.0504 -0.4203
 5712TIP3    H138551   6.457   5.958   4.469 -0.2282 -1.6743  0.5802
 5712TIP3    H238552   6.477   5.977   4.618 -1.1768  0.0049  0.5109
 5713TIP3   OH238553   3.903   4.512   1.075  0.3831 -0.6204 -0.1394
 5713TIP3    H138554   3.814   4.524   1.040 -0.0591 -2.1315  0.3976
 5713TIP3    H238555   3.894   4.442   1.140  1.9285 -0.6244  0.1050
 5714TIP3   OH238556   0.966   0.317  12.966  0.0125  0.3307  0.0431
 5714TIP3    H138557   1.032   0.258  13.002 -1.6198 -0.4695  1.9317
 5714TIP3    H238558   0.955   0.385  13.033 -1.9168 -0.2618  0.4053
 5715TIP3   OH238559   5.609   2.226   5.113 -0.1770  0.0814 -0.4913
 5715TIP3    H138560   5.559   2.308   5.114  1.4419  1.1659  1.9852
 5715TIP3    H238561   5.642   2.217   5.203 -0.9061 -3.7353 -0.4476
 5716TIP3   OH238562   0.585   6.294   3.575 -0.1094  0.3000 -0.3670
 5716TIP3    H138563   0.537   6.257   3.500 -0.2163  0.7504 -0.5218
 5716TIP3    H238564   0.651   6.351   3.535 -0.6277  1.0928 -0.0934
 5717TIP3   OH238565   5.043   2.495   2.565  0.5621  0.6083  0.1305
 5717TIP3    H138566   5.056   2.501   2.470 -1.6034  1.0418 -0.1878
 5717TIP3    H238567   5.068   2.405   2.587  1.2453  0.5517 -0.8035
 5718TIP3   OH238568   4.353   6.474  15.018  0.2805 -0.0470 -0.4441
 5718TIP3    H138569   4.278   6.467  14.958  1.0276 -1.7321 -1.2493
 5718TIP3    H238570   4.353   6.392  15.066  1.8128 -0.2287 -0.7075
 5719TIP3   OH238571   4.744   3.811   0.647 -0.4311 -0.1724 -0.3525
 5719TIP3    H138572   4.664   3.807   0.594 -1.3707 -1.9719  1.0875
 5719TIP3    H238573   4.714   3.839   0.733  0.7465  0.5285 -0.1427
 5720TIP3   OH238574   2.168   6.710   4.361  0.0615  0.1614  0.0112
 5720TIP3    H138575   2.100   6.651   4.328  1.4721 -0.5642 -1.7583
 5720TIP3    H238576   2.184   6.680   4.451  0.1357 -1.6187 -0.5521
 5721TIP3   OH238577   5.607   1.392   3.111  0.1291  0.3380 -0.2143
 5721TIP3    H138578   5.549   1.333   3.160  0.3643 -0.1036 -0.4596
 5721TIP3    H238579   5.674   1.418   3.175  1.3438 -1.4795 -0.6686
 5722TIP3   OH238580   3.201   4.078   4.805 -0.5135  0.1202  0.2353
 5722TIP3    H138581   3.106   4.065   4.809 -0.3633 -1.0703  0.2761
 5722TIP3    H238582   3.226   4.106   4.893 -0.7341 -0.3528  0.4558
 5723TIP3   OH238583   2.213   3.612  13.690  0.5173  0.2094  0.3425
 5723TIP3    H138584   2.241   3.695  13.730  0.8343 -0.9573  2.6945
 5723TIP3    H238585   2.294   3.561  13.682 -0.0233 -0.8767  1.4796
 5724TIP3   OH238586   1.384   2.903  12.404 -0.7475 -0.2067 -0.1324
 5724TIP3    H138587   1.352   2.824  12.362 -1.5984  0.6668 -1.2116
 5724TIP3    H238588   1.387   2.968  12.333 -1.8005  1.2021  1.0294
 5725TIP3   OH238589   1.202   5.034   4.991  0.1257  0.0691  0.1553
 5725TIP3    H138590   1.279   4.995   5.032  0.8388  0.7629 -0.4920
 5725TIP3    H238591   1.237   5.098   4.930 -0.9258 -0.3914 -0.9841
 5726TIP3   OH238592   0.796   5.432   4.242 -1.0753 -0.4038 -0.0331
 5726TIP3    H138593   0.775   5.398   4.155 -2.4012  0.4306 -0.0672
 5726TIP3    H238594   0.717   5.415   4.294 -0.1452 -1.2855  1.1476
 5727TIP3   OH238595   2.793   0.078  14.542 -0.7136 -0.8148  0.0785
 5727TIP3    H138596   2.699   0.097  14.548 -0.3081  1.5134  0.2565
 5727TIP3    H238597   2.811   0.076  14.448 -1.0505 -1.9596  0.0323
 5728TIP3   OH238598   2.718   1.370   5.000  0.5554  0.3486 -0.3426
 5728TIP3    H138599   2.637   1.387   5.048 -0.0075 -2.0277 -0.3736
 5728TIP3    H238600   2.695   1.305   4.933  2.4097 -0.1634 -0.5569
 5729TIP3   OH238601   4.862   4.134  14.261 -0.3613 -0.5860 -0.4713
 5729TIP3    H138602   4.883   4.195  14.190  1.9897  1.0701  1.4601
 5729TIP3    H238603   4.921   4.060  14.246  0.1312 -0.2396 -0.2854
 5730TIP3   OH238604   5.125   1.231  11.687 -0.1398  0.2237 -0.1077
 5730TIP3    H138605   5.181   1.303  11.658 -0.3384 -0.2521 -1.7449
 5730TIP3    H238606   5.170   1.195  11.763 -0.1026  2.1336  0.8437
 5731TIP3   OH238607   5.226   0.567  15.088  0.5072 -0.0509  0.4399
 5731TIP3    H138608   5.239   0.660  15.070  1.8257 -0.7950 -3.3251
 5731TIP3    H238609   5.313   0.534  15.112  0.3853 -0.6112  0.1310
 5732TIP3   OH238610   0.196   1.852  13.299 -0.3394 -0.1707  0.2352
 5732TIP3    H138611   0.283   1.874  13.333 -0.8957 -1.6211  2.7898
 5732TIP3    H238612   0.206   1.762  13.266 -1.0781 -0.7547  1.5316
 5733TIP3   OH238613   2.634   4.157  15.282  0.1767 -0.7562  0.1169
 5733TIP3    H138614   2.652   4.148  15.375  0.3066 -1.5336  0.0189
 5733TIP3    H238615   2.711   4.120  15.238  0.6863  0.7268 -0.3129
 5734TIP3   OH238616   0.399   6.510  14.642 -0.0562 -0.0120  0.0241
 5734TIP3    H138617   0.375   6.566  14.569 -1.8711 -1.5421 -0.6624
 5734TIP3    H238618   0.427   6.428  14.602  0.9315 -0.1840  1.0146
 5735TIP3   OH238619   4.635   3.734  14.305 -0.2964  0.3669 -0.3518
 5735TIP3    H138620   4.690   3.777  14.240 -1.9276  0.9785 -1.4090
 5735TIP3    H238621   4.548   3.732  14.265 -1.0127 -0.7345  1.1531
 5736TIP3   OH238622   1.266   2.760  13.307  0.1753 -0.2070  0.5598
 5736TIP3    H138623   1.328   2.699  13.268  1.7177  0.2980  2.1129
 5736TIP3    H238624   1.221   2.799  13.232  0.1929 -2.1329 -0.5151
 5737TIP3   OH238625   5.007   5.988   0.733  0.1981 -0.4651 -0.4506
 5737TIP3    H138626   5.027   5.933   0.657 -1.3861 -0.8938 -0.5911
 5737TIP3    H238627   4.916   6.015   0.720 -0.2484 -0.8678  1.4714
 5738TIP3   OH238628   0.878   2.179   3.772 -0.1912 -0.4423  0.2934
 5738TIP3    H138629   0.851   2.270   3.789 -1.2918 -0.5136 -0.9171
 5738TIP3    H238630   0.973   2.182   3.768 -0.2647  0.9492 -1.2077
 5739TIP3   OH238631   6.179   1.431   5.785 -0.3824  0.1991  0.2865
 5739TIP3    H138632   6.225   1.347   5.788 -0.8746 -0.0709  0.2823
 5739TIP3    H238633   6.188   1.466   5.874 -0.9194 -0.2629  0.5296
 5740TIP3   OH238634   6.776   4.441   5.131  0.1793  0.0391  0.1954
 5740TIP3    H138635   6.686   4.452   5.101  0.6335 -0.2935 -1.3972
 5740TIP3    H238636   6.800   4.353   5.103  0.1268 -0.9727  3.0751
 5741TIP3   OH238637   6.650   0.848  17.139  0.1316 -0.0524  0.5621
 5741TIP3    H138638   6.726   0.813  17.185  0.6481 -0.9573 -0.8811
 5741TIP3    H238639   6.578   0.790  17.163 -0.2192  1.0369  2.2361
 5742TIP3   OH238640   4.209   4.253  10.660  0.1049  0.5994  0.1277
 5742TIP3    H138641   4.189   4.333  10.611  1.5983  1.2914  0.5849
 5742TIP3    H238642   4.231   4.188  10.594  0.1303  0.9383 -0.1994
 5743TIP3   OH238643   6.350   1.547   5.157 -0.2448  0.3202 -0.0904
 5743TIP3    H138644   6.347   1.493   5.236 -0.2286  0.7454  0.2099
 5743TIP3    H238645   6.360   1.485   5.085  2.5496  0.0403  0.4414
 5744TIP3   OH238646   1.173   5.856   6.683 -0.0697 -0.5636  0.5688
 5744TIP3    H138647   1.207   5.943   6.703  0.0866  0.0201 -1.9041
 5744TIP3    H238648   1.225   5.797   6.737 -0.5226  0.8571  2.6937
 5745TIP3   OH238649   3.405   1.235  13.504  0.3239 -0.0330 -0.1826
 5745TIP3    H138650   3.467   1.306  13.519  0.4365  0.0443 -0.9521
 5745TIP3    H238651   3.402   1.226  13.408  0.9975 -1.6720 -0.0722
 5746TIP3   OH238652   0.901   5.771  11.689  0.5271  0.2980 -0.2490
 5746TIP3    H138653   0.875   5.770  11.781 -0.3205  1.6244 -0.4441
 5746TIP3    H238654   0.876   5.685  11.656 -0.0346  0.1528  0.5377
 5747TIP3   OH238655   0.879   6.153   2.200  0.3683 -0.1364 -0.1335
 5747TIP3    H138656   0.867   6.156   2.295  0.0028  0.2977 -0.1888
 5747TIP3    H238657   0.814   6.089   2.170  0.3288 -0.1057 -0.1138
 5748TIP3   OH238658   4.177   0.552  10.526  0.3463  0.1084 -0.0099
 5748TIP3    H138659   4.184   0.624  10.464  0.1296 -1.0474 -1.4144
 5748TIP3    H238660   4.093   0.511  10.507  0.0988 -0.0428  1.3144
 5749TIP3   OH238661   0.305   2.000  14.415 -0.9683 -1.0820 -0.2056
 5749TIP3    H138662   0.376   2.064  14.402 -2.4133  0.4005 -1.1651
 5749TIP3    H238663   0.350   1.920  14.441  0.9631  0.1890  0.6234
 5750TIP3   OH238664   5.792   3.875  13.984 -0.0846  0.7173 -0.9373
 5750TIP3    H138665   5.834   3.859  14.069 -1.2137  0.4462 -0.4125
 5750TIP3    H238666   5.824   3.805  13.928 -0.3479  0.1127 -0.3508
 5751TIP3   OH238667   5.689   2.166   3.327  0.1538 -0.4628 -0.4286
 5751TIP3    H138668   5.599   2.166   3.293  0.5985 -1.7776 -1.6565
 5751TIP3    H238669   5.687   2.104   3.400  0.3761 -1.6649 -1.4095
 5752TIP3   OH238670   1.770   0.006   0.900 -0.0748 -0.3793 -0.7472
 5752TIP3    H138671   1.849   0.054   0.924 -0.3062 -0.3457 -0.0307
 5752TIP3    H238672   1.718   0.002   0.981 -1.8058  1.5055 -1.6770
 5753TIP3   OH238673   2.009   1.387   4.263  0.1220  0.6055 -0.2561
 5753TIP3    H138674   2.042   1.328   4.196 -0.0245  1.1366 -0.8036
 5753TIP3    H238675   2.083   1.446   4.281  0.8473 -0.7364  1.4877
 5754TIP3   OH238676   6.413   0.561  15.630 -0.1496 -0.2630 -0.0863
 5754TIP3    H138677   6.430   0.472  15.660  1.3889  0.1371  0.3528
 5754TIP3    H238678   6.368   0.603  15.704 -0.2526 -0.4939 -0.0190
 5755TIP3   OH238679   5.660   6.109  11.038  0.2572 -0.4503 -0.3257
 5755TIP3    H138680   5.744   6.091  10.995  0.2351 -1.9868  0.2269
 5755TIP3    H238681   5.599   6.049  10.995 -0.8006  1.2977 -1.3736
 5756TIP3   OH238682   3.019   5.021   3.770  0.3424 -0.7206  0.9179
 5756TIP3    H138683   3.101   5.008   3.819  1.6000  1.9165 -0.2567
 5756TIP3    H238684   3.048   5.052   3.684 -1.8896  1.5295  0.8706
 5757TIP3   OH238685   2.262   3.400   1.561  0.2094  0.4177 -0.5454
 5757TIP3    H138686   2.236   3.465   1.495  0.3480  1.1246  0.0865
 5757TIP3    H238687   2.326   3.446   1.615 -0.0376 -0.1073  0.1940
 5758TIP3   OH238688   5.403   3.968   3.888 -0.2875 -0.2204 -0.0029
 5758TIP3    H138689   5.431   3.925   3.807  2.1355 -1.0598  1.2032
 5758TIP3    H238690   5.360   3.898   3.937  1.6308 -0.7679  0.9893
 5759TIP3   OH238691   3.227   0.776   2.488  0.5903 -0.5322 -0.1028
 5759TIP3    H138692   3.188   0.688   2.485  2.6633 -1.5024 -0.0033
 5759TIP3    H238693   3.321   0.761   2.484  1.0511  1.6441  1.0942
 5760TIP3   OH238694   5.058   6.535   2.112 -1.0740 -0.0721  0.3976
 5760TIP3    H138695   5.148   6.510   2.094 -1.2383 -0.3624 -0.0267
 5760TIP3    H238696   5.014   6.453   2.132 -1.2895  0.0470  0.4171
 5761TIP3   OH238697   0.833   0.119  17.169 -0.2125 -0.3038 -0.9587
 5761TIP3    H138698   0.827   0.035  17.123  1.1037 -0.0880 -1.5535
 5761TIP3    H238699   0.777   0.178  17.118 -1.4542 -0.8878 -0.3196
 5762TIP3   OH238700   3.418   2.916   1.392  0.9717 -0.0733  0.2992
 5762TIP3    H138701   3.493   2.857   1.391  0.4356 -0.7722  0.1083
 5762TIP3    H238702   3.435   2.976   1.464  2.1532  0.3711 -0.3259
 5763TIP3   OH238703   3.410   4.439   2.406 -0.6205  0.2074  0.1827
 5763TIP3    H138704   3.433   4.378   2.476  2.7504  0.2903 -0.6612
 5763TIP3    H238705   3.434   4.525   2.442  2.2570  0.1462 -1.3124
 5764TIP3   OH238706   6.194   4.248   3.158 -0.4548 -0.2454  0.1679
 5764TIP3    H138707   6.139   4.313   3.201  0.8771  0.6215  0.6240
 5764TIP3    H238708   6.252   4.299   3.102  0.1661 -1.0941  0.0248
 5765TIP3   OH238709   2.247   5.904  14.883  0.2437  0.1238 -0.3160
 5765TIP3    H138710   2.237   5.810  14.871 -2.3020  0.4081 -1.0714
 5765TIP3    H238711   2.244   5.918  14.977 -2.0365 -0.4031 -0.2519
 5766TIP3   OH238712   6.100   0.112  16.582  0.1987  0.0913 -0.2412
 5766TIP3    H138713   6.007   0.093  16.571 -0.5533  2.1381  1.8311
 5766TIP3    H238714   6.129   0.053  16.651 -0.3225  1.3221  1.0832
 5767TIP3   OH238715   1.878   1.840  15.555 -0.5401  0.0447 -0.6338
 5767TIP3    H138716   1.811   1.789  15.600  0.4352 -2.4108 -1.7873
 5767TIP3    H238717   1.851   1.839  15.463 -0.6559  1.9898 -0.6737
 5768TIP3   OH238718   3.818   0.358   2.722 -0.2634  0.3035 -0.5886
 5768TIP3    H138719   3.728   0.387   2.707 -0.5385 -0.2992 -0.1587
 5768TIP3    H238720   3.836   0.298   2.650 -0.6220 -0.4736 -0.0438
 5769TIP3   OH238721   3.339   3.132   3.049 -0.4407  0.2242  0.4749
 5769TIP3    H138722   3.373   3.108   3.135  2.3027 -0.7866 -0.7717
 5769TIP3    H238723   3.349   3.227   3.044  0.6170  0.1414  0.8206
 5770TIP3   OH238724   3.263   4.718   5.589  0.0696 -0.0446 -0.0704
 5770TIP3    H138725   3.284   4.624   5.594 -1.4714 -0.4047  0.2313
 5770TIP3    H238726   3.276   4.750   5.678  1.1528  0.1844 -0.2912
 5771TIP3   OH238727   3.686   1.530   2.412 -0.3241  0.2120 -0.2902
 5771TIP3    H138728   3.609   1.547   2.466  0.1148  0.7115  0.1997
 5771TIP3    H238729   3.760   1.533   2.474  0.1976  0.8977 -0.9214
 5772TIP3   OH238730   4.684   5.590   1.209 -0.3240  0.3259  0.8557
 5772TIP3    H138731   4.635   5.665   1.242 -0.6156  0.4140  0.2492
 5772TIP3    H238732   4.678   5.524   1.279 -0.9154  0.5066  0.9818
 5773TIP3   OH238733   4.143   2.557  14.145  0.3108 -0.0045 -0.5762
 5773TIP3    H138734   4.125   2.469  14.176  0.5731 -0.5169 -1.8240
 5773TIP3    H238735   4.216   2.588  14.199 -1.5555  0.5637  1.7866
 5774TIP3   OH238736   2.294   2.889  12.045  0.3044  0.4615 -0.1893
 5774TIP3    H138737   2.380   2.890  12.002  0.7777 -0.5313  0.7089
 5774TIP3    H238738   2.294   2.968  12.100  1.0021  0.0076  0.4786
 5775TIP3   OH238739   3.204   5.791   0.931 -0.1621  0.0516  0.3009
 5775TIP3    H138740   3.292   5.776   0.966  0.9652  0.0505 -2.3238
 5775TIP3    H238741   3.200   5.886   0.917  0.9621 -0.2466 -3.0062
 5776TIP3   OH238742   5.289   3.641   1.633 -0.1483 -0.1480 -0.3362
 5776TIP3    H138743   5.218   3.583   1.605 -1.0449  0.8964 -0.2807
 5776TIP3    H238744   5.299   3.702   1.561  0.5834 -0.1728 -0.2608
 5777TIP3   OH238745   6.535   3.295  15.385  0.1399  0.2491  0.4141
 5777TIP3    H138746   6.519   3.225  15.321  1.7331  0.5946 -0.4283
 5777TIP3    H238747   6.510   3.257  15.469  0.7958 -1.2955 -0.0383
 5778TIP3   OH238748   5.256   1.692  14.957 -0.5710  0.0040  0.0609
 5778TIP3    H138749   5.233   1.630  14.888 -1.0231  0.7196 -0.4494
 5778TIP3    H238750   5.349   1.676  14.973 -0.2706  0.3028 -1.2333
 5779TIP3   OH238751   1.896   3.482   5.350  0.1417 -0.4335  0.1676
 5779TIP3    H138752   1.909   3.389   5.332  0.0541 -0.4831  0.3589
 5779TIP3    H238753   1.847   3.484   5.433 -1.0197 -0.2500 -0.4935
 5780TIP3   OH238754   1.959   5.544   3.661  0.2230  0.3550 -0.8380
 5780TIP3    H138755   1.973   5.606   3.589 -0.3676  1.6202  0.0933
 5780TIP3    H238756   1.953   5.459   3.618 -0.4874  1.1110 -2.3308
 5781TIP3   OH238757   5.045   4.959  15.572 -0.1773 -0.2578 -0.4547
 5781TIP3    H138758   4.990   5.025  15.530 -0.3954 -1.0363 -1.4334
 5781TIP3    H238759   5.027   4.879  15.524  3.4941 -0.1468 -2.3821
 5782TIP3   OH238760   0.864   1.920  12.033  0.2495  0.1751  0.3772
 5782TIP3    H138761   0.772   1.905  12.051 -0.2087 -0.2439 -1.9654
 5782TIP3    H238762   0.872   2.016  12.028  0.0023  0.2207  0.8411
 5783TIP3   OH238763   3.818   1.064   3.336  0.1665  0.4160 -0.2321
 5783TIP3    H138764   3.745   1.125   3.347  0.7795  0.8293  2.0775
 5783TIP3    H238765   3.864   1.095   3.259 -0.2946  2.0759  0.1244
 5784TIP3   OH238766   4.420   0.256  13.890 -0.3655  0.0935  0.2135
 5784TIP3    H138767   4.361   0.228  13.961 -1.0521 -0.1401 -0.4405
 5784TIP3    H238768   4.497   0.289  13.936 -1.1960  0.8622  1.1173
 5785TIP3   OH238769   3.036   1.630   0.349 -0.1765 -0.4698  0.2317
 5785TIP3    H138770   2.957   1.594   0.389 -0.6618  0.4230  0.1167
 5785TIP3    H238771   3.092   1.654   0.423 -0.0387 -1.0532  0.3155
 5786TIP3   OH238772   5.723   6.470  12.531 -0.2501 -0.2765  0.1217
 5786TIP3    H138773   5.658   6.529  12.494  0.2125  0.1501 -0.0172
 5786TIP3    H238774   5.763   6.429  12.454 -0.9102 -1.1534  0.2265
 5787TIP3   OH238775   6.609   4.144   2.895  0.0014  0.4342  0.5787
 5787TIP3    H138776   6.517   4.120   2.885  0.3732  0.0865 -3.5218
 5787TIP3    H238777   6.656   4.060   2.891  0.6250  0.8220 -0.5345
 5788TIP3   OH238778   3.418   6.738   3.307 -0.1789 -0.3095 -0.3721
 5788TIP3    H138779   3.342   6.745   3.364 -0.8216 -1.0363 -1.1114
 5788TIP3    H238780   3.490   6.773   3.358 -1.2945  1.9666 -0.2281
 5789TIP3   OH238781   4.053   0.176   4.615 -0.6610 -0.0412  0.1609
 5789TIP3    H138782   4.145   0.180   4.587 -0.8293  0.3672 -0.3496
 5789TIP3    H238783   4.044   0.088   4.652  0.3026  0.3963  1.5321
 5790TIP3   OH238784   4.310   5.276   6.798 -0.2886  0.6749 -0.3834
 5790TIP3    H138785   4.368   5.295   6.724 -1.2884  1.1088 -1.0743
 5790TIP3    H238786   4.368   5.277   6.875  0.6621  0.8000 -1.0860
 5791TIP3   OH238787   0.940   5.032  15.089  0.0640  0.1942 -0.1900
 5791TIP3    H138788   0.883   5.043  15.165  0.9373  0.0958  0.4950
 5791TIP3    H238789   1.025   5.007  15.125 -0.1161 -2.3830 -1.3086
 5792TIP3   OH238790   5.594   6.638  10.573 -0.3471  0.2781  0.2218
 5792TIP3    H138791   5.619   6.720  10.615 -2.4225  0.9389  0.2809
 5792TIP3    H238792   5.513   6.612  10.618 -1.7875  0.1971 -2.2595
 5793TIP3   OH238793   5.230   2.373   3.588  0.5534 -0.0027  0.8395
 5793TIP3    H138794   5.208   2.424   3.666  0.4406 -0.9195  1.4235
 5793TIP3    H238795   5.162   2.307   3.583  0.1605  0.4809 -0.4553
 5794TIP3   OH238796   6.179   0.272  17.173  0.1922  0.1871  0.3937
 5794TIP3    H138797   6.144   0.300  17.089  1.4142 -0.0435 -0.2102
 5794TIP3    H238798   6.197   0.354  17.220 -0.5180  0.3130  0.4579
 5795TIP3   OH238799   0.336   3.480   3.678  0.6042 -0.1740 -0.2478
 5795TIP3    H138800   0.386   3.552   3.638 -1.2232  0.7666 -0.9670
 5795TIP3    H238801   0.245   3.499   3.655 -0.3745 -0.5944  2.8666
 5796TIP3   OH238802   0.085   5.965  15.131  0.2251 -0.2457 -0.8194
 5796TIP3    H138803   0.154   5.934  15.190  0.2232 -0.2669 -0.8279
 5796TIP3    H238804   0.033   5.886  15.113 -0.1698 -0.1074 -0.3171
 5797TIP3   OH238805   3.627   1.219  15.437  0.2795  0.3162  0.4098
 5797TIP3    H138806   3.575   1.148  15.399  0.5575  0.4398 -0.2235
 5797TIP3    H238807   3.571   1.296  15.431 -0.6520 -0.1253  2.5633
 5798TIP3   OH238808   5.016   4.111   2.031  0.1231  0.2839  0.7054
 5798TIP3    H138809   4.982   4.119   2.120  1.5965  0.0106  1.3232
 5798TIP3    H238810   5.028   4.017   2.017  0.5154  0.3619  0.4719
 5799TIP3   OH238811   1.276   1.557  14.030  0.3208 -0.1346 -0.2411
 5799TIP3    H138812   1.317   1.591  14.110 -0.3937 -0.5616  0.3177
 5799TIP3    H238813   1.183   1.551  14.051 -0.1700  1.4543 -1.7040
 5800TIP3   OH238814   4.574   5.952  17.243  0.3733  0.6103  0.3605
 5800TIP3    H138815   4.525   5.870  17.251 -0.8590  1.4118  1.2946
 5800TIP3    H238816   4.658   5.933  17.286 -0.1345  0.0048  1.1223
 5801TIP3   OH238817   4.467   4.097  11.581  0.2959  0.6353 -0.2906
 5801TIP3    H138818   4.378   4.067  11.559  0.3172 -1.4229  1.9838
 5801TIP3    H238819   4.454   4.176  11.632 -0.0975  1.2952 -1.3688
 5802TIP3   OH238820   5.564   0.530   1.396 -0.0267  0.1847  0.0030
 5802TIP3    H138821   5.552   0.440   1.368 -1.0192 -0.5719  2.5909
 5802TIP3    H238822   5.501   0.580   1.345 -1.9848 -1.1589  0.9888
 5803TIP3   OH238823   2.189   5.427   2.751  0.2505  0.0828  0.3974
 5803TIP3    H138824   2.235   5.457   2.672  0.5208 -1.0403  0.1059
 5803TIP3    H238825   2.245   5.359   2.787  1.1222  1.8730  2.7117
 5804TIP3   OH238826   1.575   4.892  16.334  0.1616  0.5516  0.1955
 5804TIP3    H138827   1.670   4.884  16.338  0.0829 -0.0218  1.0628
 5804TIP3    H238828   1.542   4.803  16.343 -0.4449  0.6011 -1.2522
 5805TIP3   OH238829   5.195   0.480   5.405 -0.5089  0.2341 -0.1410
 5805TIP3    H138830   5.133   0.508   5.473 -0.4020 -0.0733  0.0897
 5805TIP3    H238831   5.261   0.430   5.453 -0.0245  0.6439 -0.3740
 5806TIP3   OH238832   5.244   0.469  14.337 -0.4562  0.7889  0.2087
 5806TIP3    H138833   5.266   0.561  14.352 -0.3011  0.7093  0.4708
 5806TIP3    H238834   5.258   0.457  14.243  1.4519  0.5275  0.4892
 5807TIP3   OH238835   5.192   1.827   4.898  0.3539  0.4531 -0.2536
 5807TIP3    H138836   5.209   1.733   4.906 -1.4770  0.1006 -0.1048
 5807TIP3    H238837   5.241   1.866   4.971  0.6470 -0.4501  0.0497
 5808TIP3   OH238838   1.523   1.385   0.934 -0.1313  0.3861 -0.1906
 5808TIP3    H138839   1.599   1.408   0.987 -1.0776 -1.1940  1.9809
 5808TIP3    H238840   1.557   1.325   0.867  0.7513  0.8838 -0.2056
 5809TIP3   OH238841   0.436   6.253   1.647  0.6128  0.0903  0.4437
 5809TIP3    H138842   0.459   6.229   1.737  1.7222  0.9412  0.4142
 5809TIP3    H238843   0.400   6.341   1.654 -1.7075 -0.7764  0.3314
 5810TIP3   OH238844   0.163   4.711   3.430 -0.1319 -0.1113  0.5806
 5810TIP3    H138845   0.246   4.755   3.448  0.5367 -0.0452 -2.1770
 5810TIP3    H238846   0.188   4.634   3.379 -1.7231 -0.3229  0.0642
 5811TIP3   OH238847   0.962   2.402  12.683 -0.3581 -0.3253 -0.1595
 5811TIP3    H138848   0.884   2.415  12.630 -0.3157 -1.1884 -0.4566
 5811TIP3    H238849   0.941   2.441  12.767 -1.6514 -1.7388  0.2195
 5812TIP3   OH238850   4.513   4.676   0.552  0.1747  0.3840  0.4270
 5812TIP3    H138851   4.452   4.686   0.625  0.3894  0.0532  0.6574
 5812TIP3    H238852   4.574   4.749   0.561  1.7220 -1.0114  2.0861
 5813TIP3   OH238853   2.439   0.950  13.442 -0.2726  0.0045 -0.2262
 5813TIP3    H138854   2.487   1.024  13.480 -0.4254  0.1736 -0.3667
 5813TIP3    H238855   2.457   0.955  13.348  1.1448 -1.1425 -0.0635
 5814TIP3   OH238856   2.531   1.956  16.299  0.8042  0.0140  0.1499
 5814TIP3    H138857   2.480   1.940  16.379 -1.2109  3.7681 -0.1289
 5814TIP3    H238858   2.574   2.040  16.315  1.8515 -0.0379 -2.0686
 5815TIP3   OH238859   4.669   6.203  14.983 -0.3671  0.2599  0.3806
 5815TIP3    H138860   4.645   6.250  15.063 -1.6534  0.1338  0.0868
 5815TIP3    H238861   4.685   6.272  14.919 -2.5902  0.3663 -0.1471
 5816TIP3   OH238862   4.593   5.037   2.371 -0.5705  0.4015 -0.0667
 5816TIP3    H138863   4.660   4.979   2.406 -0.5227  0.2552 -0.3931
 5816TIP3    H238864   4.642   5.097   2.314 -0.7207  0.2685 -0.3366
 5817TIP3   OH238865   2.884   2.714   1.621  0.6159 -0.3450 -0.3122
 5817TIP3    H138866   2.968   2.681   1.653  1.0229 -0.3578 -1.3810
 5817TIP3    H238867   2.822   2.644   1.643  0.7082  0.0248  1.2394
 5818TIP3   OH238868   5.412   5.460  11.862 -0.5315 -0.4332 -0.3012
 5818TIP3    H138869   5.444   5.436  11.949 -1.1405 -0.3056 -0.0404
 5818TIP3    H238870   5.468   5.534  11.836 -0.2442 -0.5721 -0.0870
 5819TIP3   OH238871   2.984   6.488   5.944  0.7868  0.4658 -0.5508
 5819TIP3    H138872   2.945   6.488   5.857 -1.5758  0.2480  0.4251
 5819TIP3    H238873   3.047   6.416   5.943  0.1546 -0.0959 -1.8069
 5820TIP3   OH238874   4.949   3.513   4.976 -0.1232  0.1834 -0.2606
 5820TIP3    H138875   5.001   3.494   4.898 -0.8796  1.2202 -1.0408
 5820TIP3    H238876   4.958   3.434   5.030 -0.8048 -1.2301 -2.0734
 5821TIP3   OH238877   4.693   6.372   1.710  0.0177  0.0581  0.5311
 5821TIP3    H138878   4.781   6.395   1.680 -0.3644  1.9856  0.7439
 5821TIP3    H238879   4.641   6.370   1.630  0.5001 -2.6152  0.2088
 5822TIP3   OH238880   5.849   5.268  14.961  0.0553  0.3657  0.2650
 5822TIP3    H138881   5.812   5.207  14.897 -1.0932  0.0899  1.1442
 5822TIP3    H238882   5.936   5.232  14.981  0.2675  0.2399 -0.8183
 5823TIP3   OH238883   4.060   2.263   1.908  0.3491  0.0517  0.4160
 5823TIP3    H138884   3.990   2.316   1.870  0.6082  0.9202  1.1325
 5823TIP3    H238885   4.063   2.184   1.853  1.4635  1.7427 -2.1437
 5824TIP3   OH238886   1.628   2.557   4.924  0.9259 -0.0849 -0.1235
 5824TIP3    H138887   1.621   2.647   4.892  1.3352  0.3533  0.9652
 5824TIP3    H238888   1.705   2.522   4.878  0.3042 -0.1466 -1.1398
 5825TIP3   OH238889   5.727   2.131   0.612  0.0753  0.8681  0.0965
 5825TIP3    H138890   5.711   2.218   0.576 -0.2668  1.0039  0.5627
 5825TIP3    H238891   5.806   2.142   0.665 -0.2947  1.0443  0.6275
 5826TIP3   OH238892   5.889   1.544   1.282 -0.4213  0.4367  0.6748
 5826TIP3    H138893   5.920   1.526   1.193 -2.6044  0.6246 -0.1796
 5826TIP3    H238894   5.968   1.569   1.330  1.0821 -1.3437 -0.7353
 5827TIP3   OH238895   3.132   5.622  13.745 -0.1077 -0.2148 -0.0531
 5827TIP3    H138896   3.080   5.680  13.689  2.1093  0.3181 -1.6951
 5827TIP3    H238897   3.111   5.534  13.714 -1.3838 -0.1305  0.5435
 5828TIP3   OH238898   5.829   3.674  11.775  0.4634 -0.1436  0.0597
 5828TIP3    H138899   5.858   3.592  11.735  3.0283  0.8667 -0.3353
 5828TIP3    H238900   5.784   3.721  11.704 -0.2036 -0.7867  0.0410
 5829TIP3   OH238901   0.736   4.285  16.270 -0.0160  0.7740  0.0340
 5829TIP3    H138902   0.752   4.350  16.338  0.6303 -0.5335  1.1854
 5829TIP3    H238903   0.793   4.311  16.198 -1.3118  2.6440 -0.3908
 5830TIP3   OH238904   1.268   4.184   1.668 -0.0443 -0.3637 -0.7747
 5830TIP3    H138905   1.278   4.099   1.711  2.6230 -0.2487 -0.9724
 5830TIP3    H238906   1.182   4.181   1.627  0.1267 -3.1254 -1.0793
 5831TIP3   OH238907   5.726   1.631  14.371 -0.2364  0.1240 -0.3670
 5831TIP3    H138908   5.757   1.688  14.442 -2.0995 -0.0714  0.6463
 5831TIP3    H238909   5.790   1.559  14.369 -0.1812  0.1073  1.1512
 5832TIP3   OH238910   0.328   1.341  16.153  0.4611  0.1358 -0.0224
 5832TIP3    H138911   0.257   1.300  16.103  1.6753 -1.8719 -0.2319
 5832TIP3    H238912   0.399   1.351  16.089  1.8061 -1.8641  1.0696
 5833TIP3   OH238913   5.996   1.600  16.898  0.0837  0.1584  0.0319
 5833TIP3    H138914   5.961   1.565  16.980  0.9389 -0.7291  0.0349
 5833TIP3    H238915   6.090   1.583  16.903 -0.0477 -1.4212 -1.8365
 5834TIP3   OH238916   1.753   6.595  14.095  0.7467 -0.8445 -0.0772
 5834TIP3    H138917   1.847   6.606  14.082  0.7960 -1.8542 -0.7128
 5834TIP3    H238918   1.735   6.506  14.065 -0.4629 -0.5656 -0.2495
 5835TIP3   OH238919   4.471   1.072  13.736 -0.3364 -0.6439 -0.1530
 5835TIP3    H138920   4.527   1.110  13.803  0.8907 -2.6707  0.0741
 5835TIP3    H238921   4.471   1.137  13.665  1.5696 -0.1389  0.2332
 5836TIP3   OH238922   4.740   2.458   3.548  0.4076 -0.8114 -0.0538
 5836TIP3    H138923   4.790   2.471   3.630  0.2251  0.0551 -0.0687
 5836TIP3    H238924   4.793   2.396   3.498  0.7122 -1.0675  0.5649
 5837TIP3   OH238925   6.751   4.955  15.554 -0.2457  0.1975 -0.0655
 5837TIP3    H138926   6.697   4.920  15.624 -0.7498 -0.2184 -0.6550
 5837TIP3    H238927   6.724   5.047  15.546 -3.6977 -0.8396 -2.8761
 5838TIP3   OH238928   4.211   6.185  15.773 -0.6043 -0.3961 -0.0481
 5838TIP3    H138929   4.129   6.177  15.725 -0.2978 -2.4370 -0.3172
 5838TIP3    H238930   4.235   6.095  15.794  0.8805  0.2512  1.2088
 5839TIP3   OH238931   1.493   3.079  17.277  0.5105  0.3820  0.2220
 5839TIP3    H138932   1.435   3.146  17.239 -1.5237 -0.7997  1.0698
 5839TIP3    H238933   1.559   3.064  17.209 -1.8573 -0.2757 -2.1107
 5840TIP3   OH238934   4.104   1.736  17.144 -0.6474 -0.3362 -0.5625
 5840TIP3    H138935   4.088   1.669  17.211 -1.1738  1.2487  0.9838
 5840TIP3    H238936   4.016   1.760  17.114 -0.6088  0.8991  0.2251
 5841TIP3   OH238937   6.073   6.509   1.546 -0.2003 -0.2086  0.3503
 5841TIP3    H138938   6.077   6.597   1.584  1.6145  0.1048 -0.4460
 5841TIP3    H238939   6.143   6.461   1.591 -1.4531 -1.4204  1.1012
 5842TIP3   OH238940   1.967   4.293   1.657  0.6417  0.3782  0.4023
 5842TIP3    H138941   2.062   4.306   1.661  0.6643  0.0309  2.4016
 5842TIP3    H238942   1.949   4.227   1.724 -1.0126  0.3846  0.0215
 5843TIP3   OH238943   0.476   4.801  13.373  0.1562  0.7060 -0.3559
 5843TIP3    H138944   0.568   4.800  13.345  0.8237 -2.2702  1.4696
 5843TIP3    H238945   0.439   4.880  13.333  2.9501  0.9029 -2.8599
 5844TIP3   OH238946   1.290   5.193  16.572  0.2495 -0.0849  0.3326
 5844TIP3    H138947   1.379   5.194  16.536 -0.0848  0.5112 -0.5261
 5844TIP3    H238948   1.272   5.285  16.591  0.0032 -0.2677  0.9831
 5845TIP3   OH238949   4.829   2.611  14.207  0.8772  0.6873  0.4545
 5845TIP3    H138950   4.834   2.686  14.267 -0.4747  2.7281 -1.7829
 5845TIP3    H238951   4.737   2.609  14.180  1.2689 -0.6820 -0.9051
 5846TIP3   OH238952   4.140   2.678   3.101  0.2172  0.5294 -0.5013
 5846TIP3    H138953   4.131   2.647   3.191  0.2882 -0.2156 -0.7454
 5846TIP3    H238954   4.216   2.736   3.104 -0.5013  1.4743  0.1575
 5847TIP3   OH238955   3.280   2.793  14.288 -0.1503 -0.2890 -0.0635
 5847TIP3    H138956   3.210   2.849  14.253  0.0462 -0.4164 -0.6719
 5847TIP3    H238957   3.255   2.704  14.262  0.0644 -0.3724  0.0140
 5848TIP3   OH238958   3.305   5.796  14.417 -0.3118  0.3296  0.3991
 5848TIP3    H138959   3.265   5.776  14.332  0.3157  2.2561 -0.4090
 5848TIP3    H238960   3.336   5.886  14.408  3.7410 -0.8136  1.1232
 5849TIP3   OH238961   2.745   1.613  12.776 -0.1396  0.2044  0.7462
 5849TIP3    H138962   2.700   1.558  12.840 -1.4699  0.1877 -0.1544
 5849TIP3    H238963   2.693   1.604  12.696  1.3734  0.3601 -0.3021
 5850TIP3   OH238964   1.980   5.141  10.984 -0.0167 -0.1071  0.1575
 5850TIP3    H138965   2.039   5.193  10.929 -1.0420  0.4819 -0.4298
 5850TIP3    H238966   1.901   5.130  10.930 -1.3496  1.0950  1.7416
 5851TIP3   OH238967   0.272   4.180  15.836  0.0575  1.2316  0.1042
 5851TIP3    H138968   0.251   4.124  15.911  0.0391  0.1779 -0.6759
 5851TIP3    H238969   0.194   4.234  15.824 -0.2373  0.8648  0.3588
 5852TIP3   OH238970   6.492   2.794   6.225  0.2552 -0.1506  0.2166
 5852TIP3    H138971   6.400   2.818   6.239  0.5277  0.6915  0.6067
 5852TIP3    H238972   6.526   2.861   6.165  0.8738  0.1160  0.8569
 5853TIP3   OH238973   4.075   2.610   3.741 -0.2618 -0.1846 -0.6597
 5853TIP3    H138974   4.005   2.547   3.723 -0.3067 -0.0757 -0.8656
 5853TIP3    H238975   4.053   2.687   3.688  0.0757 -0.1923 -0.8135
 5854TIP3   OH238976   1.503   1.680  15.406  0.2195  0.0020  0.3181
 5854TIP3    H138977   1.490   1.685  15.311  2.9029  0.4051 -0.1153
 5854TIP3    H238978   1.579   1.623  15.417 -0.3935 -0.5083  2.2913
 5855TIP3   OH238979   3.518   2.363  13.427 -0.4821 -0.0633 -1.1294
 5855TIP3    H138980   3.488   2.326  13.510 -0.6389 -1.0486 -1.6074
 5855TIP3    H238981   3.587   2.425  13.451 -0.8256 -0.0175 -0.2392
 5856TIP3   OH238982   2.394   2.136  16.710  0.4201 -0.2722 -0.2793
 5856TIP3    H138983   2.435   2.223  16.714  0.5495 -0.2063 -2.1286
 5856TIP3    H238984   2.304   2.154  16.680 -0.5741 -0.5503  2.2984
 5857TIP3   OH238985   4.019   5.877   1.209  0.2815 -0.1709 -0.4819
 5857TIP3    H138986   4.107   5.855   1.178 -0.3694 -1.2573 -1.6191
 5857TIP3    H238987   3.974   5.911   1.132 -0.4051  0.0642  0.0113
 5858TIP3   OH238988   3.390   2.283  14.824 -0.2931  0.2504 -0.2390
 5858TIP3    H138989   3.457   2.281  14.756  1.8465  1.7979  1.6549
 5858TIP3    H238990   3.314   2.322  14.782  0.1549 -0.9497 -2.3025
 5859TIP3   OH238991   2.417   6.627   3.387  0.2735 -0.1299  0.0058
 5859TIP3    H138992   2.465   6.554   3.348  1.3978 -0.0642  1.2055
 5859TIP3    H238993   2.476   6.663   3.453 -1.2266  0.3082  1.1799
 5860TIP3   OH238994   5.263   2.910   5.207  0.6713  0.3963 -0.5931
 5860TIP3    H138995   5.189   2.861   5.170 -0.1650  0.4779  0.8708
 5860TIP3    H238996   5.313   2.940   5.131 -1.6519  1.6607 -1.7572
 5861TIP3   OH238997   6.646   4.531  16.847 -0.0572 -0.1444 -0.3703
 5861TIP3    H138998   6.607   4.597  16.790 -1.4527  1.2156  1.9887
 5861TIP3    H238999   6.586   4.457  16.842 -0.9832  0.5196  0.3608
 5862TIP3   OH239000   1.083   3.478  14.003 -0.2558 -0.5594  0.1892
 5862TIP3    H139001   1.000   3.485  14.051 -0.0443  0.0502  0.4817
 5862TIP3    H239002   1.132   3.555  14.030  1.1486 -1.8213  1.4255
 5863TIP3   OH239003   3.865   6.172  10.712  0.6351  0.3180  0.3531
 5863TIP3    H139004   3.943   6.120  10.728  0.2366 -0.9538 -1.5620
 5863TIP3    H239005   3.793   6.116  10.742  0.3059  0.3840 -0.2948
 5864TIP3   OH239006   0.017   4.227   0.028  0.2738  0.5776 -0.1227
 5864TIP3    H139007   0.033   4.133   0.021 -0.6178  0.2241  1.8911
 5864TIP3    H239008  -0.019   4.251  -0.057 -3.5328 -1.7885  0.6024
 5865TIP3   OH239009   1.683   3.533   3.611 -0.5857 -0.2827 -0.0200
 5865TIP3    H139010   1.761   3.478   3.597 -0.3030 -0.2511  1.2952
 5865TIP3    H239011   1.690   3.602   3.546 -0.7284 -1.5599 -1.4408
 5866TIP3   OH239012   2.467   0.793  14.676 -0.3910 -0.4896  0.1483
 5866TIP3    H139013   2.407   0.794  14.601 -1.6973  0.5385  1.1687
 5866TIP3    H239014   2.523   0.869  14.663 -0.9122 -0.0533  0.4382
 5867TIP3   OH239015   5.579   5.777  12.707 -0.1873  0.0518  0.3639
 5867TIP3    H139016   5.530   5.859  12.717 -1.8552 -0.9097  0.4007
 5867TIP3    H239017   5.580   5.761  12.613 -1.5930 -0.8413  0.4636
 5868TIP3   OH239018   0.668   2.052   0.494 -0.0575 -0.3710 -0.0298
 5868TIP3    H139019   0.662   2.146   0.479 -1.6054  0.0164  2.5497
 5868TIP3    H239020   0.587   2.016   0.457 -0.0533 -0.5244  0.1095
 5869TIP3   OH239021   6.280   0.977  11.262  1.0717  0.6533  0.0934
 5869TIP3    H139022   6.298   0.884  11.245  1.5934  0.5715  0.9912
 5869TIP3    H239023   6.343   1.001  11.330  0.9376  1.6710 -0.1222
 5870TIP3   OH239024   2.158   6.339  15.889 -0.1076 -0.3657 -0.4855
 5870TIP3    H139025   2.242   6.304  15.918  0.6153  0.1423 -1.8637
 5870TIP3    H239026   2.112   6.363  15.970  1.1462 -0.4765  0.2761
 5871TIP3   OH239027   0.069   3.816  16.989  0.1771  0.6710 -0.7076
 5871TIP3    H139028  -0.023   3.789  16.983 -0.0176  1.3743 -1.0365
 5871TIP3    H239029   0.117   3.735  17.001 -0.5349  0.3401 -0.0347
 5872TIP3   OH239030   2.744   1.489  12.460 -0.2415  0.8087 -0.0708
 5872TIP3    H139031   2.673   1.507  12.521  0.4935  1.1738  0.6997
 5872TIP3    H239032   2.708   1.426  12.398 -0.7869 -0.1206  1.1578
 5873TIP3   OH239033   6.397   2.170   0.882 -0.0595  0.3435  0.0475
 5873TIP3    H139034   6.328   2.232   0.905  0.4377  0.3822  1.5186
 5873TIP3    H239035   6.468   2.189   0.944  0.7781 -0.5418 -0.6082
 5874TIP3   OH239036   0.488   2.510  13.798  0.0288  0.0695 -0.1932
 5874TIP3    H139037   0.489   2.521  13.893  1.7952 -2.3960  0.1736
 5874TIP3    H239038   0.481   2.599  13.763 -0.2722  1.0530  2.2156
 5875TIP3   OH239039   4.800   0.535   5.462 -0.2765  0.4092 -0.3000
 5875TIP3    H139040   4.884   0.577   5.482  0.5482 -1.6533  0.8741
 5875TIP3    H239041   4.796   0.535   5.366  1.5696 -0.3062 -0.4290
 5876TIP3   OH239042   4.036   3.410   3.167  0.4929  0.6223 -0.3042
 5876TIP3    H139043   3.949   3.383   3.140  0.3341  2.1493 -1.4829
 5876TIP3    H239044   4.022   3.492   3.215  1.3354  1.8249 -1.9715
 5877TIP3   OH239045   3.052   1.083  11.590 -0.2484  0.6602 -0.5569
 5877TIP3    H139046   3.089   1.149  11.649  1.9433 -1.9812  1.3177
 5877TIP3    H239047   2.973   1.053  11.635  0.7114 -0.4265  0.4841
 5878TIP3   OH239048   4.958   4.735  16.585 -0.3386  0.1560 -0.1003
 5878TIP3    H139049   4.931   4.748  16.494  0.8523 -0.6460 -0.5865
 5878TIP3    H239050   5.047   4.701  16.579  0.0384  0.8253  1.4012
 5879TIP3   OH239051   1.632   2.310  17.037 -0.0532 -0.5547 -0.0831
 5879TIP3    H139052   1.668   2.253  17.106  0.0754  0.5219  0.7760
 5879TIP3    H239053   1.538   2.307  17.051  0.0226  0.4092  0.7897
 5880TIP3   OH239054   2.220   0.461   3.929  0.5999 -0.4182  0.0171
 5880TIP3    H139055   2.252   0.376   3.897  1.5582  0.2662 -0.9095
 5880TIP3    H239056   2.125   0.451   3.932  0.7615 -2.1156  1.6849
 5881TIP3   OH239057   2.403   3.545   4.267  0.8863  0.5965  0.4067
 5881TIP3    H139058   2.493   3.543   4.301  1.0789 -2.1061 -0.0579
 5881TIP3    H239059   2.414   3.565   4.174  1.1677 -0.9832  0.0725
 5882TIP3   OH239060   3.791   1.900  15.396  0.6502 -0.3645  0.2549
 5882TIP3    H139061   3.743   1.978  15.422  1.3552  0.1389  0.0689
 5882TIP3    H239062   3.796   1.906  15.300  0.2042 -0.9367  0.1916
 5883TIP3   OH239063   0.357   2.153  11.117 -0.1297  0.2000  0.2268
 5883TIP3    H139064   0.280   2.097  11.115  0.3811 -0.5000 -0.3213
 5883TIP3    H239065   0.406   2.129  11.038  1.4796 -0.5902  1.4099
 5884TIP3   OH239066   6.426   4.654  15.468 -0.1750  0.4857 -0.3451
 5884TIP3    H139067   6.386   4.736  15.497 -2.0355 -0.4807 -0.0107
 5884TIP3    H239068   6.442   4.667  15.375  1.1585  1.8177  0.0372
 5885TIP3   OH239069   2.275   3.811   1.084  0.3424  0.5058 -0.3122
 5885TIP3    H139070   2.207   3.842   1.023  2.4114  2.9907 -1.5253
 5885TIP3    H239071   2.227   3.794   1.165 -2.2105 -0.9961 -1.9560
 5886TIP3   OH239072   4.612   0.157  11.596 -0.0976  0.1504 -0.4500
 5886TIP3    H139073   4.540   0.219  11.605 -1.5506 -1.2466 -1.7793
 5886TIP3    H239074   4.632   0.157  11.502  0.5910 -0.6027 -0.3144
 5887TIP3   OH239075   4.237   6.624  15.254  0.3881 -1.0575  0.0941
 5887TIP3    H139076   4.222   6.534  15.281  2.4238 -0.7021  2.7354
 5887TIP3    H239077   4.322   6.647  15.290  1.0566  1.2171 -2.5612
 5888TIP3   OH239078   2.958   2.619  16.295  0.4702 -0.1004  0.2941
 5888TIP3    H139079   2.872   2.581  16.279  0.3119  1.2175 -2.7756
 5888TIP3    H239080   2.940   2.697  16.349 -0.1231 -0.3527  0.4705
 5889TIP3   OH239081   5.663   0.209  16.979  0.2152  0.5051 -0.2692
 5889TIP3    H139082   5.649   0.242  16.890 -1.8563 -1.0151 -0.5721
 5889TIP3    H239083   5.619   0.273  17.036 -2.3617 -0.7637 -0.7271
 5890TIP3   OH239084   1.759   2.295  13.500  0.3304 -0.0290  0.4317
 5890TIP3    H139085   1.843   2.278  13.543 -0.2382 -0.0645  1.5712
 5890TIP3    H239086   1.779   2.359  13.432  1.4903 -0.9470 -0.1286
 5891TIP3   OH239087   5.010   3.445   0.332 -0.6564  0.0101  0.0764
 5891TIP3    H139088   5.105   3.441   0.341 -0.1817 -0.4862 -3.6480
 5891TIP3    H239089   4.989   3.538   0.342  0.3460  0.2511  0.0609
 5892TIP3   OH239090   1.820   4.547   5.557  0.0915  0.4058  0.0211
 5892TIP3    H139091   1.863   4.535   5.473 -0.0703  0.0493 -0.0116
 5892TIP3    H239092   1.753   4.614   5.540 -1.3393 -1.1131 -0.6643
 5893TIP3   OH239093   6.326   3.825  13.915  0.0822  0.3122 -0.2221
 5893TIP3    H139094   6.323   3.776  13.832 -1.0188  0.0903 -0.0650
 5893TIP3    H239095   6.381   3.772  13.972 -1.7786 -1.2430  0.2311
 5894TIP3   OH239096   3.722   2.130  11.379 -0.3764  0.5743  0.8165
 5894TIP3    H139097   3.675   2.079  11.444  0.7316  0.1058  1.2808
 5894TIP3    H239098   3.655   2.184  11.336 -1.2389  0.2628  1.7544
 5895TIP3   OH239099   1.606   2.531  16.695  0.0958 -0.1699  0.9170
 5895TIP3    H139100   1.688   2.482  16.700  0.2652  0.1640  1.4757
 5895TIP3    H239101   1.603   2.583  16.775 -0.7488 -0.3108  0.9921
 5896TIP3   OH239102   2.483   3.726   5.352  0.4102  0.0460  0.3869
 5896TIP3    H139103   2.412   3.663   5.362  2.7279 -2.7722  0.2706
 5896TIP3    H239104   2.504   3.754   5.441 -0.6669  0.7763  0.4339
 5897TIP3   OH239105   2.110   4.677  15.042  0.0572 -0.1421  0.6916
 5897TIP3    H139106   2.026   4.715  15.016  1.1474  0.1590 -2.8902
 5897TIP3    H239107   2.173   4.747  15.027  1.2234 -1.0173  1.3664
 5898TIP3   OH239108   6.139   5.082   3.225 -0.0164 -0.2750 -0.4883
 5898TIP3    H139109   6.116   5.107   3.315  1.3297  0.0601 -0.2135
 5898TIP3    H239110   6.126   4.987   3.223 -2.4936 -0.0101 -0.7218
 5899TIP3   OH239111   3.339   2.351   5.089 -0.3351  0.7134  0.2831
 5899TIP3    H139112   3.280   2.381   5.158 -1.7750  1.8335 -1.3566
 5899TIP3    H239113   3.305   2.392   5.009  2.0900  0.6034 -0.8888
 5900TIP3   OH239114   5.819   0.130  15.207  0.0785  0.8724 -0.7092
 5900TIP3    H139115   5.911   0.106  15.192  1.2424  4.6792 -0.5434
 5900TIP3    H239116   5.821   0.182  15.287 -1.9934  2.1736 -1.4507
 5901TIP3   OH239117   6.638   3.545  14.903  0.1102  0.6981 -0.1518
 5901TIP3    H139118   6.674   3.478  14.961  0.0384  0.5532 -0.2714
 5901TIP3    H239119   6.556   3.507  14.871 -0.3775  1.2074  0.4706
 5902TIP3   OH239120   6.048   3.217  13.954  0.1187  0.4753  0.1426
 5902TIP3    H139121   6.055   3.192  14.046  0.4352  2.9583  0.8556
 5902TIP3    H239122   5.970   3.273  13.951 -0.0695  0.1704 -1.1905
 5903TIP3   OH239123   5.829   0.129   5.600  0.4296 -0.1527  0.0160
 5903TIP3    H139124   5.874   0.060   5.551  0.8952 -0.5092  0.9388
 5903TIP3    H239125   5.841   0.208   5.546  0.1167 -0.7257 -0.9146
 5904TIP3   OH239126   0.675   5.167  11.277 -0.2565  0.0553  0.0616
 5904TIP3    H139127   0.657   5.086  11.228 -0.3982  0.3071 -0.3042
 5904TIP3    H239128   0.765   5.156  11.309  0.1628  0.2620 -0.9971
 5905TIP3   OH239129   0.759   3.885   1.936  0.1782 -0.7534 -0.7961
 5905TIP3    H139130   0.663   3.885   1.942  0.2169 -1.8463 -0.0357
 5905TIP3    H239131   0.779   3.814   1.875  0.4703  0.4888 -2.2322
 5906TIP3   OH239132   4.558   3.294   4.121  0.8733  0.7820  0.2781
 5906TIP3    H139133   4.597   3.207   4.112  0.1989  0.4305  0.6957
 5906TIP3    H239134   4.599   3.346   4.051  0.9339  0.0120 -0.2693
 5907TIP3   OH239135   3.353   4.418  11.764  0.5975  0.0596  0.0656
 5907TIP3    H139136   3.397   4.469  11.832 -0.3305  0.8679  0.0783
 5907TIP3    H239137   3.319   4.341  11.810  0.1195  0.5199  0.4993
 5908TIP3   OH239138   6.680   1.998  13.467  0.4204 -0.4320 -0.0474
 5908TIP3    H139139   6.717   1.959  13.546  0.1948 -1.0847 -0.2575
 5908TIP3    H239140   6.652   1.923  13.414 -0.8194  0.0391 -0.0821
 5909TIP3   OH239141   4.659   0.522  15.576 -0.1387 -0.5926  0.2238
 5909TIP3    H139142   4.749   0.516  15.608  0.0736 -2.3105 -0.6049
 5909TIP3    H239143   4.667   0.550  15.485 -0.6297  2.0529  0.9169
 5910TIP3   OH239144   3.616   0.424  14.817 -0.7974  0.3180 -0.2687
 5910TIP3    H139145   3.698   0.401  14.860  0.3428 -0.4696 -2.6470
 5910TIP3    H239146   3.549   0.372  14.863  0.1910  0.1136  0.9989
 5911TIP3   OH239147   2.236   1.532   4.307  0.4369 -0.7043  0.4608
 5911TIP3    H139148   2.303   1.486   4.257 -0.9049 -1.1437 -0.9837
 5911TIP3    H239149   2.236   1.621   4.272 -1.3358 -1.3199 -1.2827
 5912TIP3   OH239150   1.334   2.186   4.278 -0.3141 -0.4772  0.4606
 5912TIP3    H139151   1.347   2.105   4.229  0.4479  0.0361 -0.2292
 5912TIP3    H239152   1.244   2.181   4.309 -0.7101 -1.0051 -0.6896
 5913TIP3   OH239153   6.532   2.976   4.839  0.1167  1.0085  0.5045
 5913TIP3    H139154   6.626   2.958   4.844 -0.0511  0.2919  1.2384
 5913TIP3    H239155   6.512   2.973   4.745  1.2133  3.3212  0.1264
 5914TIP3   OH239156   1.379   0.844  13.209  0.2772 -0.5943 -0.5699
 5914TIP3    H139157   1.323   0.915  13.177 -2.3279 -1.2548  2.0999
 5914TIP3    H239158   1.453   0.889  13.250 -0.5048  0.5291 -0.3393
 5915TIP3   OH239159   3.134   5.732  11.592 -0.2846  0.1205  0.0170
 5915TIP3    H139160   3.193   5.807  11.582  1.7353 -1.4919 -1.0148
 5915TIP3    H239161   3.191   5.656  11.581 -2.5688 -1.5603 -0.9135
 5916TIP3   OH239162   0.455   6.453  12.889  0.1837  0.3960 -0.1256
 5916TIP3    H139163   0.384   6.506  12.925 -0.7705 -1.3818  0.7335
 5916TIP3    H239164   0.485   6.400  12.963  0.3225 -1.0613 -1.1780
 5917TIP3   OH239165   3.922   1.408  14.796  0.1233 -0.4596 -0.0139
 5917TIP3    H139166   3.970   1.350  14.855 -0.7969  0.2088  1.4576
 5917TIP3    H239167   3.984   1.428  14.726  1.2264 -1.3647  0.6701
 5918TIP3   OH239168   6.434   3.353  13.657  0.1748 -0.4363  0.5030
 5918TIP3    H139169   6.423   3.266  13.695 -2.1573 -1.3700 -1.9883
 5918TIP3    H239170   6.347   3.393  13.663  0.4824  0.5490 -1.0098
 5919TIP3   OH239171   3.625   2.453   2.030 -0.1707  0.5102  0.2468
 5919TIP3    H139172   3.535   2.485   2.032 -0.0983  0.8388 -1.0208
 5919TIP3    H239173   3.664   2.486   2.112 -0.8320  1.4919  0.1843
 5920TIP3   OH239174   4.733   0.693  15.943 -0.2210  0.5550  0.0362
 5920TIP3    H139175   4.793   0.629  15.981 -0.3919  0.7389  0.6370
 5920TIP3    H239176   4.646   0.653  15.952 -0.1405 -0.0480 -1.5315
 5921TIP3   OH239177   1.050   5.264   2.586 -0.1255 -0.4104  0.1096
 5921TIP3    H139178   1.120   5.314   2.628 -0.5057 -0.0738  0.3571
 5921TIP3    H239179   0.995   5.234   2.659  0.0242 -1.0801 -0.0471
 5922TIP3   OH239180   5.055   5.668   4.596 -0.5472  0.1510 -0.6447
 5922TIP3    H139181   5.037   5.603   4.664 -1.0387 -0.3290 -1.2177
 5922TIP3    H239182   5.151   5.676   4.596 -0.5817  0.8131  0.6804
 5923TIP3   OH239183   2.758   0.297  15.440  0.1721 -0.1115  0.3205
 5923TIP3    H139184   2.684   0.345  15.403 -0.7168 -1.0968  0.7562
 5923TIP3    H239185   2.720   0.215  15.472  1.5126 -0.7890  0.2697
 5924TIP3   OH239186   3.892   4.193   5.742  0.2552 -0.6319 -0.1154
 5924TIP3    H139187   3.941   4.269   5.712 -0.5606 -0.0603 -0.0265
 5924TIP3    H239188   3.840   4.166   5.666  0.5294 -1.0916 -0.1420
 5925TIP3   OH239189   5.901   4.590  10.460  0.1287 -0.2187 -0.4913
 5925TIP3    H139190   5.829   4.570  10.519  0.2040 -0.4301 -0.4694
 5925TIP3    H239191   5.956   4.511  10.462  0.9222  0.3300  0.3189
 5926TIP3   OH239192   2.906   4.361   1.723 -0.3674 -0.0789 -0.5588
 5926TIP3    H139193   2.899   4.334   1.631 -1.7449  0.0964 -0.5236
 5926TIP3    H239194   2.892   4.280   1.773  2.7059 -0.6869 -0.4400
 5927TIP3   OH239195   4.931   4.655  13.691  0.7861 -0.2105  0.1792
 5927TIP3    H139196   4.863   4.609  13.740  0.1636  0.3557 -0.1372
 5927TIP3    H239197   4.929   4.744  13.725  1.5012 -0.2302  0.2933
 5928TIP3   OH239198   6.223   6.296  13.763 -0.2550 -0.1485  0.5322
 5928TIP3    H139199   6.165   6.226  13.734 -0.7177 -0.1814  1.4915
 5928TIP3    H239200   6.212   6.298  13.858 -0.2225  1.2041  0.5246
 5929TIP3   OH239201   3.216   3.950  11.662  0.1405 -0.8116  0.0903
 5929TIP3    H139202   3.153   3.886  11.628  0.5558 -0.9568 -0.4118
 5929TIP3    H239203   3.285   3.954  11.596  0.5156 -0.4339  0.4953
 5930TIP3   OH239204   4.678   0.724  17.181 -0.3728 -0.2573  0.4858
 5930TIP3    H139205   4.756   0.774  17.158  1.1192 -2.8817 -0.6424
 5930TIP3    H239206   4.612   0.751  17.117  0.1595  0.7155  0.3308
 5931TIP3   OH239207   3.923   0.464  13.383 -0.1613 -0.2596  0.3103
 5931TIP3    H139208   3.959   0.511  13.458 -1.1181  2.1867 -0.6495
 5931TIP3    H239209   3.996   0.456  13.322 -0.1658  0.8085  0.1424
 5932TIP3   OH239210   3.237   3.732   5.146 -0.2183  0.1852 -0.4462
 5932TIP3    H139211   3.204   3.771   5.226 -0.8959 -1.6411  0.2159
 5932TIP3    H239212   3.328   3.762   5.140  0.2734 -0.7146  1.7384
 5933TIP3   OH239213   1.844   1.140  14.114 -0.0944 -0.1467 -0.1262
 5933TIP3    H139214   1.843   1.109  14.024  1.1109  1.2737 -0.6719
 5933TIP3    H239215   1.807   1.068  14.165 -0.6732 -1.0247 -1.7282
 5934TIP3   OH239216   2.177   3.859   1.690 -0.6011 -0.8999 -0.1044
 5934TIP3    H139217   2.145   3.944   1.722 -1.9924 -1.2627 -0.4452
 5934TIP3    H239218   2.212   3.816   1.767  0.7385  0.2270 -0.0422
 5935TIP3   OH239219   2.051   0.955   2.203  0.6036 -0.5637 -0.3957
 5935TIP3    H139220   1.960   0.944   2.177  0.8018  0.0366 -1.4019
 5935TIP3    H239221   2.073   0.874   2.249 -0.3562 -0.8208 -0.3705
 5936TIP3   OH239222   0.674   2.721   4.166  0.7324 -0.7313  0.2003
 5936TIP3    H139223   0.725   2.741   4.088  0.0969 -0.8897 -0.2645
 5936TIP3    H239224   0.627   2.641   4.144  0.4285 -0.6931  0.6941
 5937TIP3   OH239225   3.809   5.006  13.227  0.0198  0.0282 -0.0195
 5937TIP3    H139226   3.853   5.043  13.304 -0.2164  2.7476 -1.0841
 5937TIP3    H239227   3.863   5.032  13.153 -2.4775  2.2677 -1.2440
 5938TIP3   OH239228   5.281   3.593   6.143 -0.1720  0.2464 -0.1245
 5938TIP3    H139229   5.189   3.619   6.135  0.0840  2.0175  1.8134
 5938TIP3    H239230   5.282   3.528   6.213  0.1483  1.0820  0.6718
 5939TIP3   OH239231   0.008   0.585   1.401  0.2567  0.1667  0.3677
 5939TIP3    H139232  -0.024   0.666   1.363  1.2057  0.5839  0.4306
 5939TIP3    H239233   0.030   0.607   1.492  3.2388  0.6446 -0.3560
 5940TIP3   OH239234   2.704   2.326   4.108  0.2427  0.0938 -0.0322
 5940TIP3    H139235   2.735   2.267   4.040  0.2583  2.0573 -1.8351
 5940TIP3    H239236   2.781   2.381   4.128 -0.2867  0.7797  0.1596
 5941TIP3   OH239237   2.923   2.711  14.211 -0.3737 -0.0205  0.1312
 5941TIP3    H139238   2.954   2.801  14.202  0.2748 -0.1428  1.0794
 5941TIP3    H239239   2.852   2.717  14.275  0.0970 -0.2799  0.6754
 5942TIP3   OH239240   5.103   6.413   5.869  0.3963 -0.3879  0.2315
 5942TIP3    H139241   5.054   6.485   5.910  0.0112  1.2167 -2.7554
 5942TIP3    H239242   5.154   6.455   5.800  1.5793 -2.8074 -0.4744
 5943TIP3   OH239243   5.580   0.867  15.631 -0.1065  0.2057 -0.2576
 5943TIP3    H139244   5.527   0.832  15.703  0.8503 -0.6903  0.0491
 5943TIP3    H239245   5.523   0.929  15.587 -1.5302 -0.9537 -0.1404
 5944TIP3   OH239246   4.281   6.118  15.159  0.2843  0.7257 -0.1121
 5944TIP3    H139247   4.353   6.110  15.222  1.9386 -0.2331 -2.0298
 5944TIP3    H239248   4.272   6.030  15.121  0.5657  1.6350 -2.4529
 5945TIP3   OH239249   0.764   3.726  16.163 -0.0468  0.4991 -0.4437
 5945TIP3    H139250   0.849   3.763  16.141 -0.1048  0.1176 -1.3292
 5945TIP3    H239251   0.705   3.759  16.095 -0.5784  0.6600  0.0884
 5946TIP3   OH239252   2.253   5.198   5.885 -0.3017  0.3390  0.2477
 5946TIP3    H139253   2.160   5.212   5.902  0.3207  3.4876  1.7297
 5946TIP3    H239254   2.286   5.284   5.858  2.1213 -0.7886 -0.7267
 5947TIP3   OH239255   0.264   3.013   1.678  0.0907  0.1124  0.2923
 5947TIP3    H139256   0.176   3.011   1.717 -0.7751  0.7303 -1.5275
 5947TIP3    H239257   0.292   2.921   1.676 -0.4960 -0.0875  0.8795
 5948TIP3   OH239258   3.217   1.175  13.060 -0.1819  0.8934 -0.0444
 5948TIP3    H139259   3.306   1.141  13.050 -0.2785  0.8850 -0.9852
 5948TIP3    H239260   3.162   1.097  13.068 -0.0384  0.9077  1.3244
 5949TIP3   OH239261   1.089   4.841   3.620  0.1632  0.2870  0.0907
 5949TIP3    H139262   1.122   4.853   3.531  0.8068  0.3182  0.3254
 5949TIP3    H239263   1.138   4.765   3.653  0.3240  0.6093  0.6032
 5950TIP3   OH239264   3.122   5.619   2.468  0.0391  0.0995  0.0437
 5950TIP3    H139265   3.089   5.703   2.498 -2.2536 -0.7448  0.0536
 5950TIP3    H239266   3.135   5.568   2.547  0.1749  0.0179 -0.0305
 5951TIP3   OH239267   5.019   6.725  14.352 -0.3526 -0.0133  0.7050
 5951TIP3    H139268   5.004   6.735  14.446  0.2257 -0.5131  0.8588
 5951TIP3    H239269   5.108   6.690  14.346 -1.4557 -3.0055  0.1406
 5952TIP3   OH239270   6.662   5.614  13.396  0.0596  0.2081 -0.6689
 5952TIP3    H139271   6.640   5.525  13.369 -2.2359  0.7038 -0.7070
 5952TIP3    H239272   6.687   5.658  13.315  1.1278 -0.3540 -0.6602
 5953TIP3   OH239273   4.943   0.749  13.360 -0.3288 -0.4718 -0.1882
 5953TIP3    H139274   5.018   0.728  13.415  0.1408 -3.3107 -1.6908
 5953TIP3    H239275   4.950   0.843  13.344  1.5310 -0.2289  1.5902
 5954TIP3   OH239276   2.054   3.720   0.917 -0.1165 -0.4269 -0.6611
 5954TIP3    H139277   1.995   3.663   0.966 -0.8007 -0.1249 -1.1071
 5954TIP3    H239278   2.043   3.691   0.826 -1.7246  1.4388 -1.1353
 5955TIP3   OH239279   2.155   4.640  11.870 -0.6991 -0.8971 -0.9428
 5955TIP3    H139280   2.101   4.575  11.916 -1.4615 -0.6260 -1.4339
 5955TIP3    H239281   2.092   4.695  11.824 -0.0424  0.0144 -0.7712
 5956TIP3   OH239282   1.385   3.357  11.965  0.2724 -0.1246 -0.2753
 5956TIP3    H139283   1.306   3.412  11.960  0.0681 -0.3064  0.7996
 5956TIP3    H239284   1.356   3.271  11.933 -0.1616 -0.3872  0.7893
 5957TIP3   OH239285   5.270   4.384   0.612 -0.4494 -0.2192 -0.6717
 5957TIP3    H139286   5.297   4.351   0.527 -0.1797 -2.6666  0.2894
 5957TIP3    H239287   5.348   4.427   0.647  0.3479 -1.6890 -0.5474
 5958TIP3   OH239288   1.805   1.885  10.862 -0.0896  0.4819 -0.1231
 5958TIP3    H139289   1.878   1.937  10.829 -1.4162  1.5781 -1.4854
 5958TIP3    H239290   1.780   1.828  10.789  0.6559 -1.3688  0.9970
 5959TIP3   OH239291   1.351   3.208  14.058 -0.4704  0.3110 -0.8765
 5959TIP3    H139292   1.415   3.140  14.042  0.2641  1.1106 -1.4194
 5959TIP3    H239293   1.349   3.217  14.153  3.5942  3.2880 -0.8134
 5960TIP3   OH239294   4.647   0.055   6.035  0.2399  0.2714 -0.4238
 5960TIP3    H139295   4.684   0.134   6.075 -0.7078  0.1582  0.7221
 5960TIP3    H239296   4.685  -0.017   6.086  0.7200  0.0001 -1.1496
 5961TIP3   OH239297   3.945   5.320  13.236  0.3028 -0.6725 -0.3446
 5961TIP3    H139298   3.941   5.251  13.170 -1.7155 -0.8955 -0.0601
 5961TIP3    H239299   3.950   5.273  13.320 -1.3629 -0.5264 -0.1337
 5962TIP3   OH239300   0.939   1.264  11.086 -0.0237  0.5389  0.5394
 5962TIP3    H139301   0.976   1.179  11.061  1.3872  0.9393  1.2192
 5962TIP3    H239302   0.993   1.294  11.159 -0.9816  1.6831  0.8077
 5963TIP3   OH239303   6.072   0.416   4.895 -0.8153  0.2790 -0.4944
 5963TIP3    H139304   6.109   0.342   4.943  1.1094  0.9910 -0.7862
 5963TIP3    H239305   6.138   0.485   4.904 -2.7469  2.1185  0.1231
 5964TIP3   OH239306   2.272   5.561   3.920  0.0015  0.1894 -0.0057
 5964TIP3    H139307   2.263   5.585   3.828  0.1471  2.2268  0.4468
 5964TIP3    H239308   2.213   5.621   3.966 -0.3165 -1.0056  1.2160
 5965TIP3   OH239309   5.089   3.208  16.730  0.6728  0.2421 -0.0521
 5965TIP3    H139310   5.006   3.223  16.684  0.1265  0.1012  0.8598
 5965TIP3    H239311   5.107   3.115  16.716  0.8168  0.3315 -0.4716
 5966TIP3   OH239312   4.417   6.330   3.295 -0.0881 -0.1459 -0.2061
 5966TIP3    H139313   4.496   6.276   3.291 -0.1018 -0.2952  1.1007
 5966TIP3    H239314   4.443   6.407   3.345 -0.6184  0.0807 -0.2728
 5967TIP3   OH239315   1.790   0.385  11.450 -0.4448 -0.4010  0.3809
 5967TIP3    H139316   1.830   0.330  11.383  2.1371  1.4366  0.2559
 5967TIP3    H239317   1.862   0.411  11.506 -1.6877  2.0458  0.9880
 5968TIP3   OH239318   5.041   5.457  14.259  0.3515 -0.2318 -0.1985
 5968TIP3    H139319   5.001   5.397  14.322  0.2858 -0.3900 -0.3902
 5968TIP3    H239320   5.117   5.409  14.224  1.0236  0.2640  0.5457
 5969TIP3   OH239321   5.429   2.811  12.964  0.1848 -0.7648 -0.5293
 5969TIP3    H139322   5.483   2.837  13.039 -1.1591 -1.1120  0.6137
 5969TIP3    H239323   5.488   2.760  12.908  0.9974 -1.3272  0.7833
 5970TIP3   OH239324   0.423   1.435   5.080  0.0664  0.4633  0.1601
 5970TIP3    H139325   0.476   1.510   5.055  1.2508 -0.1787  0.6734
 5970TIP3    H239326   0.464   1.360   5.036  0.8845 -0.3507  2.1742
 5971TIP3   OH239327   0.374   3.688   3.219 -0.0985 -0.2490  0.1311
 5971TIP3    H139328   0.413   3.600   3.222 -1.6194 -0.9297  2.8679
 5971TIP3    H239329   0.450   3.746   3.217  0.9548 -1.5514 -1.5702
 5972TIP3   OH239330   4.536   0.038  12.958  0.5505  0.1434 -0.0123
 5972TIP3    H139331   4.533   0.038  13.053 -0.1843 -0.4539 -0.0320
 5972TIP3    H239332   4.460  -0.014  12.931 -0.0487  1.4443 -0.9471
 5973TIP3   OH239333   5.538   4.846   0.676 -0.1396 -0.6381 -0.2989
 5973TIP3    H139334   5.583   4.880   0.599  0.1117 -0.8430 -0.2468
 5973TIP3    H239335   5.548   4.751   0.670  2.0652 -0.5950  1.2423
 5974TIP3   OH239336   4.114   5.433  15.397  0.6452  0.1816  0.6322
 5974TIP3    H139337   4.179   5.499  15.424 -0.1690  0.3806  2.2339
 5974TIP3    H239338   4.038   5.484  15.370 -0.1144 -0.0405  2.2019
 5975TIP3   OH239339   2.741   2.984  11.526  0.7488  0.3210 -0.3145
 5975TIP3    H139340   2.817   2.962  11.473  1.3934  0.1741  0.6465
 5975TIP3    H239341   2.742   3.080  11.531  1.3171  0.2867  0.3240
 5976TIP3   OH239342   3.536   4.951   4.682  0.3098  0.2582  0.2174
 5976TIP3    H139343   3.529   5.046   4.675  0.9193  0.2648 -0.3615
 5976TIP3    H239344   3.620   4.936   4.725  0.2524 -0.0223  0.2363
 5977TIP3   OH239345   3.934   2.987   6.273  0.2912  0.6869 -0.0269
 5977TIP3    H139346   3.869   2.932   6.317  1.5142 -1.7355 -1.0433
 5977TIP3    H239347   3.884   3.036   6.207 -0.8275  0.7515  0.8420
 5978TIP3   OH239348   5.037   2.192  13.796 -0.4544  0.0692  0.2300
 5978TIP3    H139349   5.047   2.110  13.747  0.3407  0.6582 -0.6138
 5978TIP3    H239350   5.092   2.180  13.874 -0.1729 -0.1275  0.0045
 5979TIP3   OH239351   5.853   4.340  10.683  0.1813  0.4571 -0.6784
 5979TIP3    H139352   5.940   4.344  10.723  0.7761 -2.6283 -1.4457
 5979TIP3    H239353   5.802   4.286  10.743 -0.9935  1.4982 -0.7007
 5980TIP3   OH239354   3.109   3.917   5.881 -0.0339 -0.2891 -0.0243
 5980TIP3    H139355   3.110   3.894   5.974 -1.8092  0.0896  0.1216
 5980TIP3    H239356   3.020   3.949   5.865  0.4933  0.4659 -1.6613
 5981TIP3   OH239357   2.918   3.624   1.110  0.0278 -0.0642  0.3584
 5981TIP3    H139358   2.953   3.707   1.142 -2.1282  1.2652 -0.4808
 5981TIP3    H239359   2.913   3.636   1.015 -0.8685 -0.9206  0.2855
 5982TIP3   OH239360   2.425   5.583  15.195 -0.4382  0.6265 -0.3185
 5982TIP3    H139361   2.424   5.579  15.290 -1.8702 -0.4301 -0.3412
 5982TIP3    H239362   2.479   5.508  15.169 -0.6997  0.4421 -0.3375
 5983TIP3   OH239363   3.629   3.126   2.357 -0.6572 -0.7504 -0.0840
 5983TIP3    H139364   3.542   3.143   2.393 -1.9416 -3.2249 -1.7710
 5983TIP3    H239365   3.613   3.092   2.269  2.0266 -1.5344 -0.3713
 5984TIP3   OH239366   6.761   5.144   5.629 -0.0241  0.2212  0.1257
 5984TIP3    H139367   6.825   5.206   5.664  1.5395 -0.8521 -0.7078
 5984TIP3    H239368   6.676   5.180   5.655  0.9335  1.0782  2.2686
 5985TIP3   OH239369   1.237   3.245   6.086 -0.0950  0.8403 -0.1826
 5985TIP3    H139370   1.323   3.247   6.044  0.2385 -2.2978  0.1852
 5985TIP3    H239371   1.254   3.263   6.178  0.1969  0.0511 -0.0808
 5986TIP3   OH239372   6.730   2.546   5.408 -0.0499  0.1662  0.7349
 5986TIP3    H139373   6.708   2.571   5.497 -0.1078 -2.4516  1.5461
 5986TIP3    H239374   6.647   2.519   5.369  0.3006 -0.9025  0.6979
 5987TIP3   OH239375   4.381   4.222   0.118  0.2927 -0.0883  0.5690
 5987TIP3    H139376   4.301   4.255   0.076  0.5681  2.0578  1.6045
 5987TIP3    H239377   4.426   4.173   0.049 -1.5267 -0.7098 -0.2394
 5988TIP3   OH239378   5.002   6.413  14.561  0.2318 -0.0676 -0.1969
 5988TIP3    H139379   5.034   6.326  14.537 -0.9155 -0.6122  0.2033
 5988TIP3    H239380   4.921   6.397  14.608  1.6742  0.9926  2.9471
 5989TIP3   OH239381   5.365   2.729  14.782  0.1151  0.3605  0.0416
 5989TIP3    H139382   5.351   2.634  14.789 -0.4344  0.4353  0.0204
 5989TIP3    H239383   5.300   2.766  14.841 -1.0415  0.8032 -1.4402
 5990TIP3   OH239384   3.557   2.258   2.683  0.5383  0.0749 -0.3287
 5990TIP3    H139385   3.502   2.245   2.606  0.3104 -0.9621 -0.0188
 5990TIP3    H239386   3.646   2.242   2.651  0.4356 -0.4553 -0.3716
 5991TIP3   OH239387   1.546   4.314  16.131  0.0821 -0.0613 -0.3540
 5991TIP3    H139388   1.589   4.324  16.047 -0.8469 -0.2126 -0.8634
 5991TIP3    H239389   1.474   4.253  16.114 -0.2240  0.0387  0.5066
 5992TIP3   OH239390   3.473   6.526   0.359 -0.9601 -0.8573  0.2989
 5992TIP3    H139391   3.462   6.485   0.273 -2.4844 -2.0983  1.0179
 5992TIP3    H239392   3.394   6.501   0.407 -0.1222 -0.2372  2.0852
 5993TIP3   OH239393   1.042   4.617   1.797  0.2432 -0.1310 -0.4944
 5993TIP3    H139394   0.978   4.554   1.763  0.6806 -1.5322  1.1534
 5993TIP3    H239395   1.049   4.596   1.890  2.5361  0.4833 -0.4692
 5994TIP3   OH239396   3.275   0.597   0.208  0.0287 -0.4160 -0.4571
 5994TIP3    H139397   3.283   0.671   0.148 -1.7754 -1.0167 -1.5028
 5994TIP3    H239398   3.339   0.533   0.175  1.7883  0.7046  0.6087
 5995TIP3   OH239399   4.857   3.701  11.421  0.8882 -0.4232 -0.6975
 5995TIP3    H139400   4.825   3.704  11.511  1.2903  0.0298 -0.5608
 5995TIP3    H239401   4.901   3.786  11.409  1.4478 -0.7599 -1.0880
 5996TIP3   OH239402   3.095   3.173  10.779  0.4452  0.1663  0.0369
 5996TIP3    H139403   3.067   3.197  10.867 -2.0325  0.1700 -0.6614
 5996TIP3    H239404   3.191   3.174  10.783  0.5009 -2.0738  3.3010
 5997TIP3   OH239405   5.665   2.946  16.801 -0.1637  0.1123 -0.0608
 5997TIP3    H139406   5.744   2.892  16.800  0.9352  1.6348  0.4293
 5997TIP3    H239407   5.594   2.886  16.778  1.1953 -1.1909 -1.0144
 5998TIP3   OH239408   0.070   6.288  15.805  0.5739  0.1581  0.4854
 5998TIP3    H139409   0.058   6.374  15.765 -1.2836 -0.8347 -1.2653
 5998TIP3    H239410   0.142   6.249  15.755  0.5772  0.2236  0.4389
 5999TIP3   OH239411   6.407   5.243  11.318 -0.6084 -0.2382  0.4795
 5999TIP3    H139412   6.439   5.155  11.332 -0.3388  0.0289  1.6364
 5999TIP3    H239413   6.324   5.247  11.366 -1.5622 -0.4125 -1.0946
 6000TIP3   OH239414   5.555   4.640  12.193 -0.3864  0.1801 -0.3046
 6000TIP3    H139415   5.611   4.631  12.270 -1.8459  2.9099  1.1994
 6000TIP3    H239416   5.467   4.618  12.224 -0.9037  0.6883 -1.3534
 6001TIP3   OH239417   5.771   5.948  17.157 -0.0685  0.1668 -0.1880
 6001TIP3    H139418   5.778   5.967  17.063 -0.1743 -0.4805 -0.3261
 6001TIP3    H239419   5.689   5.989  17.184 -0.3619 -0.2009 -0.5141
 6002TIP3   OH239420   2.225   0.181   5.040  0.2333  0.0804  0.1040
 6002TIP3    H139421   2.294   0.145   4.984  0.4134  0.0660  0.3358
 6002TIP3    H239422   2.257   0.167   5.129 -0.8974 -1.6269  0.2840
 6003TIP3   OH239423   4.558   4.890   6.839 -0.7592 -0.0679 -0.2159
 6003TIP3    H139424   4.652   4.893   6.854 -0.8098  0.3812  0.0177
 6003TIP3    H239425   4.548   4.843   6.756 -0.3689 -0.7783  0.1276
 6004TIP3   OH239426   6.100   5.818  16.182  0.1753 -0.1382  0.2411
 6004TIP3    H139427   6.016   5.803  16.140  1.8804 -4.1277 -2.3357
 6004TIP3    H239428   6.129   5.903  16.148 -2.0347  0.5339 -0.1158
 6005TIP3   OH239429   2.724   1.946   0.749 -0.2895  0.1630  0.3172
 6005TIP3    H139430   2.719   1.939   0.845  0.8174  0.3457  0.3965
 6005TIP3    H239431   2.789   2.014   0.733  0.9700 -1.1842 -0.5699
 6006TIP3   OH239432   4.557   4.088  11.953  0.0157  0.6342 -0.4485
 6006TIP3    H139433   4.543   3.994  11.946  3.2344  0.0966 -1.0208
 6006TIP3    H239434   4.486   4.119  12.009 -0.1206 -2.3952  1.2272
 6007TIP3   OH239435   3.516   6.765   1.575 -0.2377 -0.2552  0.0479
 6007TIP3    H139436   3.566   6.842   1.546 -0.5522 -0.8742 -2.4165
 6007TIP3    H239437   3.574   6.720   1.636  0.3339  1.4025  0.7974
 6008TIP3   OH239438   5.784   2.518   3.888  0.7561 -0.5472 -0.1910
 6008TIP3    H139439   5.797   2.478   3.974  1.6368 -0.7558 -0.4063
 6008TIP3    H239440   5.869   2.507   3.844  0.4950  0.0877 -0.8646
 6009TIP3   OH239441   0.008   5.517   5.474  0.3587  0.0221  0.0474
 6009TIP3    H139442   0.004   5.472   5.390 -0.2259 -0.7588  0.4804
 6009TIP3    H239443   0.050   5.600   5.455  2.1079 -0.9672 -0.6643
 6010TIP3   OH239444   0.310   3.137   3.400 -0.3225  0.1647  0.1974
 6010TIP3    H139445   0.285   3.047   3.381 -1.4614  0.6821 -0.8826
 6010TIP3    H239446   0.251   3.190   3.347 -1.1474  1.6151  2.4262
 6011TIP3   OH239447   2.750   3.350  13.881  0.4396  0.1579 -0.0075
 6011TIP3    H139448   2.706   3.305  13.809 -0.4037 -0.2481  0.7412
 6011TIP3    H239449   2.690   3.341  13.955  0.6837  1.7070  0.4096
 6012TIP3   OH239450   6.111   0.560   0.642 -0.3039  0.6386  0.0131
 6012TIP3    H139451   6.150   0.608   0.569  1.0408 -0.8858 -0.3251
 6012TIP3    H239452   6.044   0.505   0.602  0.2783 -0.0296 -0.0578
 6013TIP3   OH239453   4.554   5.355   5.534 -0.1305  0.5611  0.4405
 6013TIP3    H139454   4.575   5.386   5.623  0.3022 -0.0335  0.5493
 6013TIP3    H239455   4.518   5.268   5.548 -1.3900  1.0107  0.1369
 6014TIP3   OH239456   5.557   2.299  16.093  0.1034 -0.3508  0.2712
 6014TIP3    H139457   5.547   2.395  16.097 -0.5362 -0.4075  0.0754
 6014TIP3    H239458   5.609   2.278  16.170  0.2096  0.1558  0.3442
 6015TIP3   OH239459   2.761   0.842   2.756  0.5926  0.2334  0.4472
 6015TIP3    H139460   2.784   0.907   2.822  1.5987 -1.1540  1.5264
 6015TIP3    H239461   2.727   0.768   2.806  1.2862 -0.8115 -0.5719
 6016TIP3   OH239462   1.897   0.564  15.992  0.4643 -0.4683  0.6551
 6016TIP3    H139463   1.894   0.610  16.076  0.5219 -0.5824  0.7200
 6016TIP3    H239464   1.809   0.530  15.979  0.3028  0.0466  0.3910
 6017TIP3   OH239465   1.979   6.394   0.815  0.0004 -0.7067  0.3116
 6017TIP3    H139466   2.015   6.404   0.903  3.6113 -0.0176 -1.0354
 6017TIP3    H239467   2.000   6.303   0.791  3.3051  0.3312 -1.3113
 6018TIP3   OH239468   6.533   4.327  13.468  0.0244 -0.4457  0.3470
 6018TIP3    H139469   6.466   4.259  13.464 -1.1585  0.6828  0.2804
 6018TIP3    H239470   6.499   4.390  13.532  1.1984 -0.0221  0.5829
 6019TIP3   OH239471   6.234   1.649   4.553  0.1424  0.6849 -0.3627
 6019TIP3    H139472   6.212   1.586   4.621 -1.3879  1.9249  0.3586
 6019TIP3    H239473   6.150   1.673   4.513  0.4145  3.4429  0.5064
 6020TIP3   OH239474   4.349   2.793  13.848 -0.2063  0.1011 -0.0396
 6020TIP3    H139475   4.283   2.727  13.828 -0.3652 -0.2553  1.5477
 6020TIP3    H239476   4.308   2.876  13.826 -1.3572 -0.0869  1.3051
 6021TIP3   OH239477   0.064   4.311   3.348 -0.1454 -0.0281  0.1411
 6021TIP3    H139478   0.109   4.228   3.329 -1.5152 -0.7087 -0.2617
 6021TIP3    H239479   0.028   4.299   3.436  0.1293  0.3702  0.3118
 6022TIP3   OH239480   1.062   4.468  15.156 -0.2399  0.3160  0.1211
 6022TIP3    H139481   1.070   4.563  15.149  1.2206  0.2295  0.3918
 6022TIP3    H239482   1.136   4.433  15.107 -1.1451 -0.7223 -0.5710
 6023TIP3   OH239483   0.987   2.426   6.356 -0.0600 -0.2419 -0.1494
 6023TIP3    H139484   0.947   2.351   6.313 -0.7630  0.2113 -0.3147
 6023TIP3    H239485   0.950   2.502   6.311  2.1119  0.2192 -1.3159
 6024TIP3   OH239486   6.658   2.671  17.254 -0.5697 -0.1524  0.9505
 6024TIP3    H139487   6.685   2.652  17.344 -1.6851 -4.0193  0.6855
 6024TIP3    H239488   6.563   2.656  17.254 -0.6654  0.3062 -0.7525
 6025TIP3   OH239489   3.611   3.724  16.662  0.3092  0.0313  0.0153
 6025TIP3    H139490   3.528   3.688  16.631  0.9603 -1.7519  0.2218
 6025TIP3    H239491   3.660   3.744  16.582  0.2813 -0.3989 -0.1120
 6026TIP3   OH239492   4.175   0.401   6.335 -0.0357 -0.1067 -0.3360
 6026TIP3    H139493   4.107   0.468   6.325 -2.1111 -2.1610 -0.6311
 6026TIP3    H239494   4.182   0.361   6.249 -0.0067 -1.3558  0.2313
 6027TIP3   OH239495   0.381   0.992   6.383  0.0693  0.4578 -0.0653
 6027TIP3    H139496   0.312   1.045   6.344  0.5368  0.8222 -0.4031
 6027TIP3    H239497   0.422   1.049   6.447  1.2633  0.8663 -1.1768
 6028TIP3   OH239498   4.163   5.827  13.908 -0.7531 -0.2375 -0.0562
 6028TIP3    H139499   4.163   5.868  13.822 -0.1888 -0.3860 -0.1332
 6028TIP3    H239500   4.120   5.891  13.965  0.2951  0.5621 -0.1311
 6029TIP3   OH239501   2.864   4.427  15.935 -0.7320  0.0840  0.1491
 6029TIP3    H139502   2.915   4.461  16.009  2.7053  1.0576 -2.4205
 6029TIP3    H239503   2.915   4.352  15.904 -1.2241  0.6274 -2.1296
 6030TIP3   OH239504   3.269   4.347  15.071  0.5992  0.2695 -0.0778
 6030TIP3    H139505   3.288   4.406  15.144 -1.4278  0.4172  0.3905
 6030TIP3    H239506   3.235   4.404  15.002  1.4872 -0.0104 -0.7764
 6031TIP3   OH239507   3.165   2.950   5.347 -0.0760  0.3513 -0.2593
 6031TIP3    H139508   3.117   2.962   5.265  0.2366 -3.5628 -1.1829
 6031TIP3    H239509   3.256   2.968   5.324 -0.1446  0.4329 -0.4660
 6032TIP3   OH239510   5.034   0.579   5.632 -0.1777 -0.2063 -0.2213
 6032TIP3    H139511   5.002   0.665   5.661 -0.8720 -0.2723 -0.7702
 6032TIP3    H239512   4.972   0.517   5.670  1.8125 -0.7204  2.4416
 6033TIP3   OH239513   1.997   5.323   0.953 -0.3809 -0.1177  0.1904
 6033TIP3    H139514   1.952   5.304   1.035  0.4751 -0.5566  0.5765
 6033TIP3    H239515   2.058   5.250   0.942 -0.7099 -0.2345 -1.0143
 6034TIP3   OH239516   3.468   3.261  13.695 -0.5992  0.3019  0.0642
 6034TIP3    H139517   3.442   3.341  13.650  0.4115  0.2409 -0.6509
 6034TIP3    H239518   3.395   3.242  13.753 -1.1077  1.4189 -0.1823
 6035TIP3   OH239519   6.545   2.032  17.147 -0.3649 -0.2486  0.8757
 6035TIP3    H139520   6.638   2.031  17.124 -0.2626  1.4210  1.0688
 6035TIP3    H239521   6.542   1.992  17.234  0.4999  1.6246  1.8191
 6036TIP3   OH239522   3.260   1.988   3.998 -0.0302 -0.0161 -0.2856
 6036TIP3    H139523   3.252   2.083   4.002 -0.9442 -0.0164 -1.6110
 6036TIP3    H239524   3.170   1.956   3.995  0.2345 -0.7367 -2.8178
 6037TIP3   OH239525   4.256   4.826   5.905 -0.1072 -0.4052  0.9701
 6037TIP3    H139526   4.257   4.891   5.975 -2.4810  2.6310 -1.5045
 6037TIP3    H239527   4.185   4.766   5.929 -0.2483  0.0128  1.6203
 6038TIP3   OH239528   0.624   3.127   0.670  0.4012 -0.0308  0.2532
 6038TIP3    H139529   0.674   3.057   0.710 -0.6621 -0.7981  0.2923
 6038TIP3    H239530   0.535   3.091   0.661 -0.1613  1.2899  0.2584
 6039TIP3   OH239531   0.894   4.609  16.649 -0.6468  0.4026  0.5800
 6039TIP3    H139532   0.831   4.655  16.705  0.2285 -2.0667  3.9751
 6039TIP3    H239533   0.979   4.646  16.673 -0.4280  1.4039 -1.5125
 6040TIP3   OH239534   1.422   6.244   3.560  0.0620  0.0153 -0.2435
 6040TIP3    H139535   1.344   6.281   3.519  0.0215  0.4995  0.2633
 6040TIP3    H239536   1.454   6.313   3.617 -0.3103 -0.8961  1.1219
 6041TIP3   OH239537   3.813   3.992   4.485  0.2269  0.2747  0.2282
 6041TIP3    H139538   3.725   3.955   4.487  0.0599  0.6255 -0.6275
 6041TIP3    H239539   3.840   3.992   4.577 -0.3862 -0.4852  0.4236
 6042TIP3   OH239540   2.669   6.188   5.966 -0.6272 -0.0864 -0.1241
 6042TIP3    H139541   2.607   6.259   5.947  0.2140  0.2903 -1.6900
 6042TIP3    H239542   2.614   6.113   5.987 -1.5491  0.9144  1.1514
 6043TIP3   OH239543   1.772   1.579   0.332  0.2085  0.0575  0.7497
 6043TIP3    H139544   1.699   1.607   0.387  0.4190 -1.1314  1.6976
 6043TIP3    H239545   1.731   1.536   0.257 -0.0770  0.7728  0.4965
 6044TIP3   OH239546   3.295   3.676  16.396  0.5029 -0.1651 -0.1749
 6044TIP3    H139547   3.250   3.633  16.323  2.2282 -0.7456 -0.9470
 6044TIP3    H239548   3.235   3.747  16.422 -0.5240 -0.4561 -1.6051
 6045TIP3   OH239549   1.769   1.830   2.061  0.7152 -0.1094  0.4660
 6045TIP3    H139550   1.686   1.841   2.107 -0.0908 -0.2040 -0.9114
 6045TIP3    H239551   1.786   1.916   2.022  0.2257 -0.5950 -0.8868
 6046TIP3   OH239552   1.451   1.927   4.497  1.0624  0.1475 -0.5337
 6046TIP3    H139553   1.359   1.907   4.482  1.0674  0.4687 -1.0250
 6046TIP3    H239554   1.468   1.897   4.586  0.5070  0.0052 -0.4714
 6047TIP3   OH239555   5.501   3.853   3.389 -1.2485  0.4839 -0.4149
 6047TIP3    H139556   5.573   3.805   3.430 -0.9245  2.2593  1.2524
 6047TIP3    H239557   5.423   3.801   3.409 -1.2424  1.5819  3.3683
 6048TIP3   OH239558   5.374   0.052  12.563 -0.2298 -0.2754 -0.3084
 6048TIP3    H139559   5.404  -0.001  12.637 -0.2061 -1.8855 -1.4233
 6048TIP3    H239560   5.320   0.120  12.602 -0.7814 -1.5053  1.1297
 6049TIP3   OH239561   5.820   5.966  15.198  0.1665  0.0132  0.4952
 6049TIP3    H139562   5.902   5.919  15.182  0.9763  1.3106  0.6729
 6049TIP3    H239563   5.816   5.976  15.293  0.6180  1.3038  0.3996
 6050TIP3   OH239564   3.306   0.572  14.665 -0.4519  0.5253 -0.1151
 6050TIP3    H139565   3.373   0.517  14.623 -0.1375  0.8770 -0.0779
 6050TIP3    H239566   3.298   0.536  14.753 -1.2228 -0.3151 -0.5032
 6051TIP3   OH239567   4.126   4.450  15.845  0.6503  0.2261  0.6266
 6051TIP3    H139568   4.181   4.469  15.921  0.9665 -0.8131  0.6765
 6051TIP3    H239569   4.041   4.428  15.881  0.6257  0.3392  0.6384
 6052TIP3   OH239570   5.708   3.784  11.532  0.5388 -0.2926  0.2461
 6052TIP3    H139571   5.727   3.853  11.469 -0.0732 -0.8286 -0.5524
 6052TIP3    H239572   5.664   3.716  11.481 -0.6604 -0.4227  1.3925
 6053TIP3   OH239573   5.782   6.717  14.079  0.1194  0.3277  0.2867
 6053TIP3    H139574   5.867   6.758  14.094 -0.3658  1.1096  1.0060
 6053TIP3    H239575   5.781   6.641  14.137 -0.4680  1.5068  1.9145
 6054TIP3   OH239576   1.493   3.881  13.200 -0.0623 -0.0057  0.0072
 6054TIP3    H139577   1.503   3.809  13.138 -0.5264  0.5878 -0.7629
 6054TIP3    H239578   1.546   3.952  13.164 -2.4200  1.2788 -1.2047
 6055TIP3   OH239579   4.306   4.116   0.432 -0.0941 -0.4111  0.2440
 6055TIP3    H139580   4.250   4.137   0.357 -1.0677  2.2811  1.5800
 6055TIP3    H239581   4.247   4.079   0.497  0.7914 -2.9848 -0.2955
 6056TIP3   OH239582   0.586   0.501   1.477  0.5945 -0.0634 -0.2851
 6056TIP3    H139583   0.616   0.572   1.534  0.1076 -0.5837  0.6455
 6056TIP3    H239584   0.613   0.528   1.389  0.2292  1.3807  0.0147
 6057TIP3   OH239585   3.432   4.387  12.227 -0.0014  0.1640 -0.0388
 6057TIP3    H139586   3.491   4.321  12.264  0.2379 -0.2089 -1.0483
 6057TIP3    H239587   3.490   4.453  12.191 -0.1585 -0.5170 -1.6089
 6058TIP3   OH239588   5.466   5.066  16.878 -0.5223 -0.5147 -0.2675
 6058TIP3    H139589   5.477   5.035  16.968  0.0823 -0.3877 -0.2911
 6058TIP3    H239590   5.431   4.990  16.830  0.8239 -1.1434 -0.2984
 6059TIP3   OH239591   1.703   4.439  11.328 -0.6098  1.2356 -0.3529
 6059TIP3    H139592   1.720   4.371  11.262 -0.2714  1.3578 -0.3950
 6059TIP3    H239593   1.615   4.470  11.308 -0.6307  1.0556 -0.5541
 6060TIP3   OH239594   6.116   6.321   2.620  0.0828  0.4427 -0.5973
 6060TIP3    H139595   6.102   6.229   2.644  0.5081  0.3955 -0.5111
 6060TIP3    H239596   6.208   6.324   2.593  0.4889  1.1207  0.7515
 6061TIP3   OH239597   2.685   2.545  13.925  0.8643 -1.0854  0.1558
 6061TIP3    H139598   2.778   2.550  13.946  0.3989  1.0041  2.0206
 6061TIP3    H239599   2.683   2.519  13.833  3.2490 -1.7168  0.2089
 6062TIP3   OH239600   4.845   6.162   1.384 -0.0022  0.4201 -0.8938
 6062TIP3    H139601   4.931   6.132   1.414  0.0776  1.2641 -0.2446
 6062TIP3    H239602   4.846   6.256   1.399 -0.7151  0.5675 -1.7133
 6063TIP3   OH239603   0.300   6.456   5.093 -0.1756 -0.2490  0.0768
 6063TIP3    H139604   0.359   6.456   5.169 -1.0416 -2.8513  0.8640
 6063TIP3    H239605   0.215   6.482   5.129 -0.2006  0.3590 -0.4064
 6064TIP3   OH239606   5.683   4.795  15.496  0.0827 -0.1387 -0.0758
 6064TIP3    H139607   5.631   4.728  15.540 -1.0657  0.1446 -0.9588
 6064TIP3    H239608   5.636   4.812  15.415  1.2126  0.6102 -0.5917
 6065TIP3   OH239609   4.334   1.212  10.512 -0.6759 -0.9086 -1.0936
 6065TIP3    H139610   4.263   1.264  10.550 -0.3733 -1.9058  1.0216
 6065TIP3    H239611   4.291   1.133  10.480 -0.6215 -1.2198 -0.4148
 6066TIP3   OH239612   4.307   3.942  14.823  0.4090 -0.6472 -0.7212
 6066TIP3    H139613   4.240   3.890  14.779 -1.8687  0.3707  1.3246
 6066TIP3    H239614   4.350   3.990  14.752  0.2979 -2.7188 -2.2869
 6067TIP3   OH239615   2.856   4.507  15.382  0.5869 -0.6767  0.0350
 6067TIP3    H139616   2.766   4.521  15.352  0.7100  0.2691  0.0730
 6067TIP3    H239617   2.906   4.500  15.301  0.5718 -0.5222  0.0108
 6068TIP3   OH239618   4.426   2.674  16.363  0.1316 -0.3117 -0.8390
 6068TIP3    H139619   4.338   2.708  16.380 -0.0606 -0.3039 -1.7651
 6068TIP3    H239620   4.443   2.696  16.271  1.9389  1.5335 -0.1454
 6069TIP3   OH239621   5.587   4.106  16.886 -0.1370  0.5387  0.3068
 6069TIP3    H139622   5.666   4.078  16.933  0.1727  0.1809 -0.4015
 6069TIP3    H239623   5.514   4.071  16.937  0.2196 -0.7535 -0.0313
 6070TIP3   OH239624   4.369   1.387  16.669 -0.2613  0.2533  0.4769
 6070TIP3    H139625   4.394   1.304  16.710 -0.2804 -0.6102 -1.1646
 6070TIP3    H239626   4.451   1.435  16.661 -0.1126  0.0356  0.6638
 6071TIP3   OH239627   4.731   2.863   1.851 -0.5818 -0.0907 -0.2947
 6071TIP3    H139628   4.744   2.787   1.908  0.7257 -0.5559 -1.1692
 6071TIP3    H239629   4.742   2.828   1.763 -0.9448  0.9420 -0.7621
 6072TIP3   OH239630   3.817   3.077   0.755  0.0087 -0.6417  0.0167
 6072TIP3    H139631   3.759   3.053   0.827 -0.2600 -0.5563 -0.1697
 6072TIP3    H239632   3.772   3.046   0.676 -0.7004  1.0602 -0.3004
 6073TIP3   OH239633   4.196   3.256   6.567  0.0268 -0.6152  0.3874
 6073TIP3    H139634   4.172   3.211   6.648 -0.8526 -0.5769  0.1646
 6073TIP3    H239635   4.273   3.209   6.535 -0.9209 -2.0568  0.1072
 6074TIP3   OH239636   1.573   5.167  11.560 -0.7236  0.0171 -0.5266
 6074TIP3    H139637   1.590   5.219  11.638  0.7625  1.0912 -1.5169
 6074TIP3    H239638   1.479   5.147  11.564 -0.8493  0.8003  1.0532
 6075TIP3   OH239639   4.195   6.338  15.314  0.0237 -0.5541 -0.2373
 6075TIP3    H139640   4.168   6.274  15.249  0.4043 -0.5845 -0.3695
 6075TIP3    H239641   4.253   6.289  15.373 -0.5743 -0.6096  0.3194
 6076TIP3   OH239642   0.981   0.728  16.276 -0.1182  0.6681  0.0261
 6076TIP3    H139643   0.926   0.661  16.316 -0.1905  0.2158 -0.8149
 6076TIP3    H239644   0.942   0.811  16.304 -0.5902  0.3551  0.3050
 6077TIP3   OH239645   5.639   2.730  11.065 -0.4078  0.0201 -0.1198
 6077TIP3    H139646   5.633   2.717  10.970 -0.0955  1.5356 -0.3697
 6077TIP3    H239647   5.730   2.711  11.086 -0.6336 -0.9593 -0.0108
 6078TIP3   OH239648   5.268   1.406  14.062  0.0311 -0.0302  0.3172
 6078TIP3    H139649   5.197   1.465  14.038 -1.6469 -2.1731 -0.3961
 6078TIP3    H239650   5.335   1.421  13.996 -1.6907 -1.0361 -1.7968
 6079TIP3   OH239651   4.336   4.478  15.650  0.1314  0.2676  0.6911
 6079TIP3    H139652   4.374   4.564  15.669  1.4082 -0.1211 -0.0339
 6079TIP3    H239653   4.309   4.445  15.736  0.7798  0.8572  1.1376
 6080TIP3   OH239654   0.028   4.993   3.530 -0.1907 -0.4634  0.4042
 6080TIP3    H139655   0.009   4.920   3.471 -2.0839 -0.8269  1.3723
 6080TIP3    H239656  -0.035   4.982   3.602 -1.0047  2.4841  0.2659
 6081TIP3   OH239657   2.393   3.639   1.923 -0.8141 -0.3897 -0.5735
 6081TIP3    H139658   2.479   3.626   1.963 -0.2786 -1.2226 -1.9209
 6081TIP3    H239659   2.359   3.718   1.965  0.8930  0.3300 -0.4396
 6082TIP3   OH239660   4.771   2.782  16.992  0.0371 -0.2621 -0.2018
 6082TIP3    H139661   4.694   2.838  16.993 -0.6660 -1.1723  1.7745
 6082TIP3    H239662   4.812   2.799  16.908 -2.3252  0.2394 -1.3335
 6083TIP3   OH239663   0.599   5.961  13.358 -0.1046 -0.1643 -0.6342
 6083TIP3    H139664   0.657   6.034  13.338 -0.9275  0.4632 -0.7837
 6083TIP3    H239665   0.606   5.951  13.454  1.9488 -1.5800 -0.8518
 6084TIP3   OH239666   0.313   2.035  15.434  0.2814  0.3383 -0.3083
 6084TIP3    H139667   0.227   2.038  15.391 -0.0032 -0.5003  0.1933
 6084TIP3    H239668   0.295   2.059  15.525  0.0159 -2.9588  0.6161
 6085TIP3   OH239669   1.341   0.203  16.000 -0.1467 -0.1420  0.5823
 6085TIP3    H139670   1.373   0.131  15.945 -0.5130 -0.6690  1.0531
 6085TIP3    H239671   1.417   0.227  16.053 -0.1338 -0.4327  0.6936
 6086TIP3   OH239672   0.365   2.515   4.394  0.4354 -0.1511 -0.2959
 6086TIP3    H139673   0.277   2.495   4.361  0.2501  0.5069 -0.2292
 6086TIP3    H239674   0.414   2.434   4.382  0.4937  0.1491 -2.5795
 6087TIP3   OH239675   1.459   5.831   2.702 -0.0419  0.1801 -0.6195
 6087TIP3    H139676   1.529   5.780   2.742  0.6469  0.8529 -0.9488
 6087TIP3    H239677   1.425   5.775   2.633 -0.0369 -0.2648 -0.2695
 6088TIP3   OH239678   5.780   4.139   1.012 -0.5776 -0.0989 -0.9475
 6088TIP3    H139679   5.856   4.105   0.965  0.2186  0.2474  0.0765
 6088TIP3    H239680   5.780   4.233   0.994 -1.2750 -0.2144 -1.6384
 6089TIP3   OH239681   0.578   1.983   1.478 -0.2636  0.1809 -0.3188
 6089TIP3    H139682   0.643   2.002   1.410 -0.0974  1.5036  0.1875
 6089TIP3    H239683   0.548   2.068   1.507 -0.9422 -0.3875  0.7028
 6090TIP3   OH239684   3.194   1.118   0.096  0.6030 -0.2047 -0.0651
 6090TIP3    H139685   3.238   1.202   0.112  0.5954 -0.3831  1.0201
 6090TIP3    H239686   3.109   1.142   0.059  0.6594  0.2610  0.0930
 6091TIP3   OH239687   6.059   5.326  13.839  0.0926 -0.4287  0.1854
 6091TIP3    H139688   6.082   5.398  13.780  2.0315 -1.8574 -0.9230
 6091TIP3    H239689   6.133   5.319  13.899 -0.2544 -1.2702  0.5282
 6092TIP3   OH239690   0.026   3.149  13.059 -0.0401 -0.0799  0.2451
 6092TIP3    H139691   0.038   3.158  13.153 -1.5969  0.1606  0.4505
 6092TIP3    H239692  -0.064   3.177  13.043 -0.0013 -0.6740 -1.2408
 6093TIP3   OH239693   1.250   3.827   5.250 -0.2326  0.0192  0.0194
 6093TIP3    H139694   1.296   3.853   5.170 -2.2498 -0.4864 -1.3686
 6093TIP3    H239695   1.248   3.907   5.303  0.9737  0.4139 -0.5071
 6094TIP3   OH239696   1.965   6.419  12.661  0.0191 -0.5779  0.0335
 6094TIP3    H139697   1.942   6.379  12.577  1.0711 -1.8278  0.2956
 6094TIP3    H239698   2.050   6.460  12.645 -0.7311  1.0060 -0.0372
 6095TIP3   OH239699   2.378   1.925  11.614  0.3821  0.1850 -0.2951
 6095TIP3    H139700   2.467   1.932  11.647  0.9389 -1.3609 -1.3375
 6095TIP3    H239701   2.335   1.864  11.675  1.0022 -1.5556 -1.5095
 6096TIP3   OH239702   3.379   4.942   0.900  0.2610  0.3038 -0.3905
 6096TIP3    H139703   3.346   4.852   0.899  0.2477  0.3111 -0.7444
 6096TIP3    H239704   3.396   4.960   0.992 -2.0976  0.8085  0.0093
 6097TIP3   OH239705   0.196   5.781   3.865 -0.1471  0.6562 -1.0582
 6097TIP3    H139706   0.111   5.736   3.864 -0.2915  0.8549  0.0592
 6097TIP3    H239707   0.204   5.813   3.955  0.8477  1.1588 -1.3147
 6098TIP3   OH239708   2.183   2.156  16.110 -0.6625 -0.5930  0.2826
 6098TIP3    H139709   2.212   2.175  16.199  1.4570 -3.6015  0.4251
 6098TIP3    H239710   2.197   2.237  16.062  1.0278  0.2633  2.0658
 6099TIP3   OH239711   3.249   4.243   5.240  0.6435  0.0557  0.2769
 6099TIP3    H139712   3.209   4.320   5.199 -1.7854 -1.3953 -0.2411
 6099TIP3    H239713   3.223   4.249   5.332 -0.3181 -0.6033  0.0528
 6100TIP3   OH239714   1.607   6.529  11.267  0.2310 -0.5342  0.5670
 6100TIP3    H139715   1.536   6.583  11.230  1.0734  0.7458  0.7697
 6100TIP3    H239716   1.641   6.481  11.191  0.3691  0.2709  0.1001
 6101TIP3   OH239717   2.830   0.422   0.797  0.0553 -0.3689 -0.2391
 6101TIP3    H139718   2.845   0.331   0.824 -2.0940 -0.3477  1.3074
 6101TIP3    H239719   2.909   0.468   0.822  0.5198 -1.5177  0.5246
 6102TIP3   OH239720   0.349   3.572  15.248 -0.2334 -0.3888  0.2096
 6102TIP3    H139721   0.314   3.657  15.273  2.2424  0.4585  1.1033
 6102TIP3    H239722   0.281   3.509  15.272 -0.6452  1.0028  3.0382
 6103TIP3   OH239723   3.668   0.641   2.100 -0.2500  0.2699 -0.5107
 6103TIP3    H139724   3.661   0.559   2.150 -1.9642  0.5427 -0.2180
 6103TIP3    H239725   3.581   0.681   2.108 -0.4333  0.6106 -3.2318
 6104TIP3   OH239726   1.894   3.701  16.653 -0.8745  0.2575 -0.5700
 6104TIP3    H139727   1.911   3.688  16.560 -1.3957 -1.9559 -0.4260
 6104TIP3    H239728   1.938   3.782  16.675 -0.1853  0.4831 -2.6032
 6105TIP3   OH239729   5.887   2.041   3.202 -0.1905 -0.4997 -0.0566
 6105TIP3    H139730   5.923   2.026   3.289  0.6292  1.7303  0.0484
 6105TIP3    H239731   5.804   2.086   3.217 -1.0328 -1.8496 -0.4250
 6106TIP3   OH239732   1.215   0.855  14.082 -0.2460  0.0776  0.0083
 6106TIP3    H139733   1.160   0.921  14.040 -1.5205 -0.4810  0.7438
 6106TIP3    H239734   1.303   0.893  14.083 -0.3047  0.4440 -2.4102
 6107TIP3   OH239735   2.504   1.289  17.154  0.5468  0.0132 -0.6131
 6107TIP3    H139736   2.466   1.212  17.113 -2.8472  0.8463  0.6448
 6107TIP3    H239737   2.505   1.355  17.085 -0.8776  0.1231 -0.5435
 6108TIP3   OH239738   0.124   2.894  10.284 -0.7188 -0.1816  0.4166
 6108TIP3    H139739   0.170   2.819  10.247 -1.2643 -2.6066  4.1233
 6108TIP3    H239740   0.186   2.934  10.345 -1.1127  1.2227 -0.0457
 6109TIP3   OH239741   1.274   2.245  14.007  0.0288 -0.2854 -0.0988
 6109TIP3    H139742   1.354   2.239  13.956  0.4201 -2.2599  0.6309
 6109TIP3    H239743   1.209   2.196  13.957 -1.1023  2.1836 -1.2149
 6110TIP3   OH239744   6.735   0.696   3.406 -0.1542 -0.1731 -0.1448
 6110TIP3    H139745   6.777   0.650   3.333  3.6499  0.1029  1.6483
 6110TIP3    H239746   6.724   0.785   3.375  0.4324 -0.2995 -0.7393
 6111TIP3   OH239747   6.670   5.907  16.797  0.1306  0.7884  0.4363
 6111TIP3    H139748   6.601   5.852  16.834 -1.3416  1.2407 -1.5105
 6111TIP3    H239749   6.745   5.895  16.856 -0.3974 -2.5868  0.5694
 6112TIP3   OH239750   3.829   0.794  10.999  0.6165  0.3593  0.1970
 6112TIP3    H139751   3.792   0.802  10.912  1.4570  0.1998 -0.1859
 6112TIP3    H239752   3.923   0.810  10.987  0.5618  1.5881  1.2670
 6113TIP3   OH239753   1.428   0.812  12.569  0.0656 -0.6714 -0.4431
 6113TIP3    H139754   1.368   0.839  12.638  1.4465  0.9556  0.1798
 6113TIP3    H239755   1.371   0.797  12.493 -1.0005  3.2764 -0.6412
 6114TIP3   OH239756   4.013   0.007   4.193 -0.0634  0.5018 -0.2404
 6114TIP3    H139757   4.097   0.026   4.236 -0.3116  4.0650 -1.0264
 6114TIP3    H239758   4.038  -0.021   4.105  0.2866 -0.9802  0.2918
 6115TIP3   OH239759   4.208   3.949   4.722  0.3710 -0.4709 -0.0531
 6115TIP3    H139760   4.269   3.876   4.714  0.2239 -0.5409 -0.5371
 6115TIP3    H239761   4.121   3.909   4.715  0.2987 -0.0463 -2.2243
 6116TIP3   OH239762   0.381   4.958  13.136  0.0675 -0.3422 -0.4120
 6116TIP3    H139763   0.379   4.950  13.040 -2.3225  1.9994 -0.7133
 6116TIP3    H239764   0.453   5.018  13.153 -0.5432  0.5896 -0.9728
 6117TIP3   OH239765   0.524   6.433  17.134 -0.3614  0.2559 -0.0289
 6117TIP3    H139766   0.486   6.519  17.151  0.2279  0.5105  0.0396
 6117TIP3    H239767   0.482   6.403  17.054 -1.3059  0.1656  0.4917
 6118TIP3   OH239768   0.032   5.725  14.388 -0.9488  0.4042 -0.2311
 6118TIP3    H139769   0.125   5.745  14.402 -1.0006 -0.2104  1.1726
 6118TIP3    H239770   0.030   5.630  14.374 -1.2003  0.6439 -2.0724
 6119TIP3   OH239771   5.728   6.498   0.241  0.5323 -0.2419  0.3039
 6119TIP3    H139772   5.665   6.431   0.266 -0.5414  0.4862 -0.3744
 6119TIP3    H239773   5.677   6.563   0.193  1.9632 -0.1305 -1.1877
 6120TIP3   OH239774   0.071   3.582  14.735  0.3338  0.0026 -0.6955
 6120TIP3    H139775   0.044   3.569  14.644  0.4635 -2.0665 -0.4698
 6120TIP3    H239776  -0.010   3.572  14.786  0.2037  1.4578 -0.5728
 6121TIP3   OH239777   6.643   3.946  13.209 -0.0165 -0.1096  0.4333
 6121TIP3    H139778   6.647   3.983  13.121  1.6594  1.4337  1.1038
 6121TIP3    H239779   6.714   3.882  13.212 -1.5875 -1.9716 -0.0502
 6122TIP3   OH239780   2.542   0.918   4.550  0.4848  0.5883 -0.1929
 6122TIP3    H139781   2.491   0.993   4.578 -0.8975 -0.3068 -0.2169
 6122TIP3    H239782   2.486   0.873   4.487  0.8132 -1.0406  0.6213
 6123TIP3   OH239783   2.314   4.430  15.111 -0.2304 -0.0999 -0.4267
 6123TIP3    H139784   2.273   4.494  15.168 -0.0814 -0.7582  0.4483
 6123TIP3    H239785   2.406   4.429  15.139  0.2937  1.0048 -2.0269
 6124TIP3   OH239786   0.800   5.419  14.313  0.1653  0.2758 -0.7475
 6124TIP3    H139787   0.744   5.491  14.283 -2.0704 -1.4423 -0.9500
 6124TIP3    H239788   0.752   5.379  14.385  1.7637 -0.5292 -0.0664
 6125TIP3   OH239789   2.422   4.145  17.050  0.2763 -0.1827 -0.1522
 6125TIP3    H139790   2.369   4.142  17.130  0.9214 -0.5034  0.2785
 6125TIP3    H239791   2.500   4.094  17.072  0.4501 -0.2941 -1.0005
 6126TIP3   OH239792   0.083   2.880   4.066 -0.3432 -0.1637 -0.5132
 6126TIP3    H139793   0.044   2.966   4.081  1.2982  0.4322  0.6231
 6126TIP3    H239794   0.086   2.839   4.152 -0.2644 -0.9864 -0.8991
 6127TIP3   OH239795   5.365   6.177  12.787 -0.3627  0.6966  0.0572
 6127TIP3    H139796   5.317   6.220  12.857 -0.0994 -1.1568  1.4495
 6127TIP3    H239797   5.314   6.098  12.767  0.9608 -0.2025  0.0850
 6128TIP3   OH239798   6.697   2.308  16.407  0.0342 -0.1629  1.2138
 6128TIP3    H139799   6.768   2.368  16.430 -0.8723  0.9536  1.1919
 6128TIP3    H239800   6.708   2.292  16.313  0.8385 -0.8166  1.4043
 6129TIP3   OH239801   2.530   0.900   4.861 -0.1380 -0.3160  0.4545
 6129TIP3    H139802   2.549   0.845   4.785  0.4913  1.3018 -0.6089
 6129TIP3    H239803   2.435   0.907   4.863 -0.1227  1.1017 -1.3329
 6130TIP3   OH239804   0.330   2.353  11.710  0.6065 -0.2248 -0.4884
 6130TIP3    H139805   0.260   2.363  11.646 -1.7203  1.7388  2.0785
 6130TIP3    H239806   0.312   2.270  11.754 -0.6711  0.6096  0.6499
 6131TIP3   OH239807   1.639   1.658  12.572 -0.1769 -0.2114  0.7343
 6131TIP3    H139808   1.711   1.701  12.619 -0.4225  1.4831 -0.3722
 6131TIP3    H239809   1.678   1.579  12.536  1.0239  0.4237  0.5814
 6132TIP3   OH239810   2.903   6.705  14.752  0.2388  0.3658 -0.6090
 6132TIP3    H139811   2.879   6.613  14.736  1.6091 -0.5372  2.0082
 6132TIP3    H239812   2.875   6.750  14.672 -0.9026 -2.2186 -1.8210
 6133TIP3   OH239813   5.246   3.678   0.931 -0.3154 -0.0092  0.0639
 6133TIP3    H139814   5.168   3.646   0.886  0.7973  0.7650 -2.6317
 6133TIP3    H239815   5.228   3.770   0.947  0.2204  0.3169 -1.1005
 6134TIP3   OH239816   1.270   1.349   5.815 -0.0972 -0.1155  0.1367
 6134TIP3    H139817   1.350   1.308   5.784  0.2876 -0.1969  1.2070
 6134TIP3    H239818   1.299   1.417   5.876 -0.8447 -1.0026  1.5424
 6135TIP3   OH239819   3.166   0.427   4.500  0.4541  0.0047  0.7239
 6135TIP3    H139820   3.236   0.444   4.563  0.9877  0.8568 -0.0644
 6135TIP3    H239821   3.184   0.487   4.428  0.7110 -1.9102 -0.9114
 6136TIP3   OH239822   3.924   3.969  11.788 -0.4068 -0.3739  0.0399
 6136TIP3    H139823   4.018   3.954  11.780  0.0235  1.7871  0.4572
 6136TIP3    H239824   3.901   4.016  11.708 -1.2092 -1.0594 -0.1501
 6137TIP3   OH239825   4.769   0.354  14.440 -0.1679 -0.0327  0.2891
 6137TIP3    H139826   4.836   0.422  14.439 -0.0539 -0.1170  1.4244
 6137TIP3    H239827   4.814   0.276  14.471 -0.2280 -0.7308 -1.2962
 6138TIP3   OH239828   5.719   3.655   5.441 -0.3420 -0.1935  0.4167
 6138TIP3    H139829   5.800   3.630   5.487  0.2056  0.0486 -0.3914
 6138TIP3    H239830   5.652   3.598   5.478 -0.4426  1.5802  3.2374
 6139TIP3   OH239831   3.578   3.379  11.846 -0.2780  0.0369  0.5557
 6139TIP3    H139832   3.493   3.339  11.868  1.4004 -2.8160  2.5730
 6139TIP3    H239833   3.600   3.431  11.923  0.0830  0.2453  0.3098
 6140TIP3   OH239834   5.323   4.053   4.197 -0.4740 -0.1297 -0.3004
 6140TIP3    H139835   5.351   3.963   4.217  0.3546  0.2689  0.4042
 6140TIP3    H239836   5.373   4.107   4.258 -1.7869  0.7382  0.0384
 6141TIP3   OH239837   1.538   6.649   3.870  0.0522  0.5361  0.1567
 6141TIP3    H139838   1.596   6.667   3.944 -0.9500  1.2567  0.7913
 6141TIP3    H239839   1.559   6.718   3.806  0.9269 -0.0944 -0.2610
 6142TIP3   OH239840   5.546   2.966   0.329  0.0570  0.4942 -0.3423
 6142TIP3    H139841   5.509   3.021   0.399 -0.0315  0.2288 -0.1794
 6142TIP3    H239842   5.518   2.877   0.352 -0.9408  0.5385 -1.3264
 6143TIP3   OH239843   0.232   3.393  15.823 -0.3495 -0.0527 -1.0460
 6143TIP3    H139844   0.217   3.353  15.909  2.6653 -2.3558 -1.3880
 6143TIP3    H239845   0.189   3.333  15.762 -0.2096  0.0958 -1.2883
 6144TIP3   OH239846   3.360   0.592   0.473 -0.5959  0.1401  0.3982
 6144TIP3    H139847   3.272   0.611   0.506 -0.9788 -0.5809 -0.1945
 6144TIP3    H239848   3.359   0.624   0.383  0.1568  1.2550  0.7619
 6145TIP3   OH239849   6.656   3.559   4.923 -0.3933 -0.0493  0.2479
 6145TIP3    H139850   6.738   3.581   4.877  0.1058  2.7838  2.2352
 6145TIP3    H239851   6.620   3.486   4.873  4.0278 -2.5030  0.0815
 6146TIP3   OH239852   3.334   3.412   2.993 -0.0674  0.0077 -0.0915
 6146TIP3    H139853   3.342   3.473   2.919  0.8243  0.6139  0.4930
 6146TIP3    H239854   3.377   3.457   3.066 -0.2664 -0.9103  0.6021
 6147TIP3   OH239855   3.972   1.277  14.100 -0.2286 -0.0740  0.1442
 6147TIP3    H139856   3.984   1.199  14.155 -3.0473 -0.0321  0.9808
 6147TIP3    H239857   3.898   1.323  14.139  0.7395  2.5608 -0.9033
 6148TIP3   OH239858   2.867   5.744   5.617 -0.4685 -0.2812 -0.3468
 6148TIP3    H139859   2.802   5.786   5.561  0.7673  1.2291 -0.7153
 6148TIP3    H239860   2.937   5.809   5.626  2.6141 -2.9248 -2.7243
 6149TIP3   OH239861   0.726   0.698  12.205  0.8435 -0.2170 -0.0055
 6149TIP3    H139862   0.764   0.701  12.117  1.2289  0.0395  0.1642
 6149TIP3    H239863   0.802   0.692  12.263  0.5655 -1.6181  0.2657
 6150TIP3   OH239864   0.460   2.960   4.465  0.1044  0.1496 -0.1041
 6150TIP3    H139865   0.515   2.917   4.531 -0.7287 -1.6318 -0.5139
 6150TIP3    H239866   0.433   2.890   4.407 -1.1918  1.2785 -0.9332
 6151TIP3   OH239867   6.604   4.187  16.911  0.5410  0.1166 -0.4840
 6151TIP3    H139868   6.516   4.219  16.890  0.4804 -0.6382 -1.4258
 6151TIP3    H239869   6.656   4.206  16.833  0.7414 -1.1438 -0.6787
 6152TIP3   OH239870   3.683   2.720   0.127 -0.0755  0.3204  0.3037
 6152TIP3    H139871   3.621   2.652   0.098  0.0027 -0.2663  1.4758
 6152TIP3    H239872   3.757   2.711   0.067  0.7563 -1.9133  1.5338
 6153TIP3   OH239873   4.800   0.570  16.428 -0.4465  0.6297  0.7065
 6153TIP3    H139874   4.707   0.567  16.450 -0.2202 -0.2368  1.6235
 6153TIP3    H239875   4.840   0.621  16.499 -0.1579  0.6047  0.5646
 6154TIP3   OH239876   1.974   5.104   0.054  0.2713  0.5388  0.4091
 6154TIP3    H139877   2.065   5.127   0.036 -0.4680  2.3586 -1.3126
 6154TIP3    H239878   1.930   5.187   0.068 -1.2604 -0.2620  0.5912
 6155TIP3   OH239879   1.498   1.138   1.383  0.3671 -0.5903 -0.4082
 6155TIP3    H139880   1.562   1.132   1.312  0.8699 -1.0700  0.0752
 6155TIP3    H239881   1.526   1.071   1.446 -0.5749 -0.7615 -0.1631
 6156TIP3   OH239882   5.044   0.625   3.847 -0.3068  0.0655  0.2629
 6156TIP3    H139883   4.955   0.601   3.820 -0.4943  0.2044  0.7433
 6156TIP3    H239884   5.098   0.550   3.824 -0.7980 -0.6151  1.2935
 6157TIP3   OH239885   4.766   3.429   3.633  0.8432 -0.5651 -0.0458
 6157TIP3    H139886   4.836   3.466   3.578  1.0770  0.5161  0.9580
 6157TIP3    H239887   4.710   3.382   3.571  1.8523 -0.5328 -1.0196
 6158TIP3   OH239888   1.239   2.257  15.857  0.1732 -0.2918  0.0277
 6158TIP3    H139889   1.277   2.170  15.851  0.8802 -0.0343  0.5842
 6158TIP3    H239890   1.308   2.316  15.824 -0.1012  0.0988  0.1458
 6159TIP3   OH239891   0.909   3.929   5.325  0.1402  0.4794  0.3785
 6159TIP3    H139892   0.837   3.992   5.337 -0.2815  0.3053 -0.9820
 6159TIP3    H239893   0.985   3.972   5.362 -0.7234  0.5171  2.2069
 6160TIP3   OH239894   4.615   1.877  12.372 -0.3472  0.5157 -0.3907
 6160TIP3    H139895   4.547   1.821  12.335  0.6349 -0.6055 -0.5885
 6160TIP3    H239896   4.629   1.843  12.460  2.1014 -1.4254 -1.3791
 6161TIP3   OH239897   6.582   4.108   5.187 -0.0364  0.4897 -0.1232
 6161TIP3    H139898   6.603   4.165   5.113  1.7200 -2.3288 -1.9962
 6161TIP3    H239899   6.492   4.080   5.171 -0.9600  2.6395  0.8741
 6162TIP3   OH239900   4.419   3.563   3.610 -0.2169 -0.5703  0.7648
 6162TIP3    H139901   4.419   3.468   3.612  2.1899 -0.6602  0.1750
 6162TIP3    H239902   4.429   3.590   3.701  0.3439 -0.9337  0.8132
 6163TIP3   OH239903   6.574   5.963  12.531  0.0791 -0.4694  0.2843
 6163TIP3    H139904   6.547   5.963  12.439 -1.5920  1.3529  0.7101
 6163TIP3    H239905   6.551   5.875  12.562  0.0072 -0.8689 -0.8523
 6164TIP3   OH239906   0.258   0.247  15.951  0.2130 -0.6977  0.2562
 6164TIP3    H139907   0.199   0.173  15.968 -0.3225 -0.0406  1.4311
 6164TIP3    H239908   0.221   0.291  15.875 -0.7246 -0.4136  0.8560
 6165TIP3   OH239909   2.681   5.801  13.350 -0.3351 -0.6202  0.0077
 6165TIP3    H139910   2.622   5.770  13.419 -1.0500  0.5933 -0.0351
 6165TIP3    H239911   2.672   5.896  13.351 -1.4010 -0.6030 -2.6742
 6166TIP3   OH239912   2.853   5.528   0.938  0.5202 -0.0686  0.4799
 6166TIP3    H139913   2.919   5.591   0.967  0.4975 -0.2960  1.0469
 6166TIP3    H239914   2.775   5.581   0.922  1.7813  0.8472 -3.9458
 6167TIP3   OH239915   6.554   3.936  16.180  0.2180 -0.0445 -0.5188
 6167TIP3    H139916   6.528   3.985  16.258  0.9454 -0.4001 -0.0359
 6167TIP3    H239917   6.585   3.852  16.214  3.1543  0.7737 -0.8748
 6168TIP3   OH239918   6.347   1.047   0.969  0.3622 -0.3994 -0.5115
 6168TIP3    H139919   6.302   1.030   0.886 -0.6373  1.8894 -0.5434
 6168TIP3    H239920   6.417   1.108   0.946 -1.0176  1.6845  0.4696
 6169TIP3   OH239921   5.375   4.091  14.104 -0.2116  0.3017 -0.5074
 6169TIP3    H139922   5.440   4.161  14.097 -1.7236  1.7395 -0.8011
 6169TIP3    H239923   5.321   4.100  14.026  0.1421 -1.8625 -1.0603
 6170TIP3   OH239924   5.438   2.559   4.197  0.4061  0.2115 -0.6493
 6170TIP3    H139925   5.526   2.582   4.227 -0.5543  1.5774  1.3890
 6170TIP3    H239926   5.419   2.620   4.126  1.4095 -0.7290 -1.7732
 6171TIP3   OH239927   1.073   1.031   1.057  0.8197 -0.4036  0.4192
 6171TIP3    H139928   1.122   1.102   1.016  1.2280  0.3024  2.0505
 6171TIP3    H239929   0.982   1.049   1.034  0.9111  0.7031  0.8478
 6172TIP3   OH239930   2.226   1.888   5.181 -0.3667  0.0740  0.1179
 6172TIP3    H139931   2.175   1.921   5.255 -0.2837 -1.9842  1.1773
 6172TIP3    H239932   2.275   1.964   5.150 -1.0067  1.1852  1.6800
 6173TIP3   OH239933   1.213   2.559  14.361  0.0474 -0.3545 -0.2559
 6173TIP3    H139934   1.218   2.649  14.393  0.5073 -0.4603 -0.0299
 6173TIP3    H239935   1.253   2.506  14.429 -1.3722 -0.8906  0.2028
 6174TIP3   OH239936   1.812   4.064  11.756  0.4006  0.0352  0.0579
 6174TIP3    H139937   1.769   4.145  11.728  0.4402  1.4676  3.6495
 6174TIP3    H239938   1.883   4.093  11.813  2.8182 -2.4901 -1.3920
 6175TIP3   OH239939   3.367   1.240   4.896 -0.2046 -0.0862 -0.4597
 6175TIP3    H139940   3.448   1.190   4.912  0.8504  1.0890 -1.8431
 6175TIP3    H239941   3.391   1.331   4.916 -2.3395 -0.0787  2.8653
 6176TIP3   OH239942   2.720   4.103   4.821  0.0384 -0.0576  0.8101
 6176TIP3    H139943   2.775   4.040   4.869  0.3371 -0.7285 -0.3744
 6176TIP3    H239944   2.718   4.180   4.877  1.3569 -0.3842  1.3598
 6177TIP3   OH239945   1.620   6.190   0.023  0.0999 -0.4890  0.1185
 6177TIP3    H139946   1.616   6.267  -0.035  1.2373 -1.9656 -2.0614
 6177TIP3    H239947   1.532   6.152   0.018 -0.9922  1.4006  2.4780
 6178TIP3   OH239948   2.141   0.839   4.432  0.2425 -0.4514 -0.0285
 6178TIP3    H139949   2.046   0.832   4.442  0.2619 -0.5517  0.0885
 6178TIP3    H239950   2.163   0.927   4.463 -0.1729  0.7189 -2.7529
 6179TIP3   OH239951   0.667   3.082  12.162 -0.1507  0.0308 -0.4923
 6179TIP3    H139952   0.651   3.064  12.255  0.8547 -1.7701 -0.6320
 6179TIP3    H239953   0.657   3.177  12.154 -2.9998 -0.0283  0.9012
 6180TIP3   OH239954   6.320   3.788   1.243 -0.3975  0.5748  0.3212
 6180TIP3    H139955   6.397   3.829   1.281  0.1313 -0.9939  1.0213
 6180TIP3    H239956   6.355   3.729   1.175 -1.0478  0.5723 -0.0194
 6181TIP3   OH239957   6.420   1.394   4.444  0.1159 -0.2848  0.4089
 6181TIP3    H139958   6.434   1.334   4.518  1.4072  0.3792  0.7467
 6181TIP3    H239959   6.436   1.481   4.482  0.4460  0.0904 -0.5712
 6182TIP3   OH239960   3.276   0.449   1.286  0.1515  0.0837 -0.1495
 6182TIP3    H139961   3.326   0.511   1.232  0.7910  1.3416  1.7393
 6182TIP3    H239962   3.198   0.428   1.234  0.3662  1.7892 -1.2435
 6183TIP3   OH239963   1.772   3.497  13.351 -0.0339  0.4506 -0.0200
 6183TIP3    H139964   1.713   3.473  13.280  0.6460 -0.1614 -0.3963
 6183TIP3    H239965   1.825   3.568  13.315  1.3523 -0.8539 -0.7231
 6184TIP3   OH239966   0.209   4.413  13.739  0.0451  0.1435 -0.6808
 6184TIP3    H139967   0.182   4.498  13.774  1.1883  1.1468 -2.1028
 6184TIP3    H239968   0.131   4.378  13.697 -0.5761  0.2209  0.3682
 6185TIP3   OH239969   5.673   1.600  16.712 -0.2962  0.1284  0.8719
 6185TIP3    H139970   5.695   1.511  16.741  1.5693  0.0387 -0.5791
 6185TIP3    H239971   5.578   1.598  16.698 -0.1302 -2.1507 -0.5734
 6186TIP3   OH239972   1.071   6.437  14.214  0.0706  0.1155 -0.1706
 6186TIP3    H139973   1.125   6.453  14.292  0.9344  1.6312 -1.0499
 6186TIP3    H239974   0.982   6.463  14.241  0.3410  0.5380  0.3354
 6187TIP3   OH239975   0.121   4.453  12.452 -0.2627 -0.3449 -0.2087
 6187TIP3    H139976   0.028   4.436  12.439 -0.4504 -0.1193  0.7503
 6187TIP3    H239977   0.126   4.496  12.538  0.7867 -0.9874  0.0754
 6188TIP3   OH239978   3.567   4.300  16.130  0.1816  0.5082  0.2090
 6188TIP3    H139979   3.497   4.363  16.146  0.0932  1.1123 -2.1371
 6188TIP3    H239980   3.621   4.340  16.061  1.9636 -0.6216  0.8618
 6189TIP3   OH239981   5.932   2.508   6.147 -0.1975 -0.4776  0.4839
 6189TIP3    H139982   5.943   2.476   6.057  0.5737 -0.0170  0.4070
 6189TIP3    H239983   5.998   2.577   6.156 -1.0305  0.2635  1.0386
 6190TIP3   OH239984   1.595   2.503   5.450  0.6820  0.3462  0.1410
 6190TIP3    H139985   1.622   2.519   5.360 -0.7015  1.2770 -0.1352
 6190TIP3    H239986   1.505   2.535   5.455 -0.0872 -1.7272  1.2604
 6191TIP3   OH239987   5.388   3.495   2.135  0.0236  0.1024 -0.0492
 6191TIP3    H139988   5.379   3.418   2.079 -0.8565 -0.6161  1.0497
 6191TIP3    H239989   5.440   3.557   2.082  0.4154 -1.0767 -1.0954
 6192TIP3   OH239990   5.799   5.243  10.803  0.3720 -0.6402  0.5586
 6192TIP3    H139991   5.765   5.318  10.754  4.6599  0.9419 -0.5351
 6192TIP3    H239992   5.839   5.188  10.735  1.9906 -1.0500  1.7881
 6193TIP3   OH239993   2.191   0.021  13.721 -0.1584  0.3564  0.2992
 6193TIP3    H139994   2.187   0.101  13.773  1.1673  0.0969  0.8309
 6193TIP3    H239995   2.166   0.050  13.633 -3.4664  0.6070  1.1744
 6194TIP3   OH239996   3.755   5.662  16.434  0.0406 -0.0273  0.4376
 6194TIP3    H139997   3.668   5.633  16.408 -0.7440  1.6454  1.0095
 6194TIP3    H239998   3.742   5.700  16.522  1.5608 -0.7196  0.9893
 6195TIP3   OH239999   0.693   5.237  11.605 -0.3722  0.3225 -0.3492
 6195TIP3    H140000   0.656   5.226  11.518 -1.2961 -1.0074  0.1878
 6195TIP3    H240001   0.757   5.167  11.614 -1.6824 -0.7906  0.7363
 6196TIP3   OH240002   6.334   0.562  17.276  0.5688  0.4264  0.1070
 6196TIP3    H140003   6.282   0.488  17.309  0.9872 -0.1570 -0.5143
 6196TIP3    H240004   6.410   0.565  17.335  1.2609 -0.5468 -0.7011
 6197TIP3   OH240005   2.509   3.303   0.319  0.2501 -0.0457  0.5322
 6197TIP3    H140006   2.431   3.263   0.280  0.5978 -0.7981  0.6009
 6197TIP3    H240007   2.527   3.378   0.263 -0.2230 -0.1648  0.2098
 6198TIP3   OH240008   0.166   2.568  12.200 -0.6241 -0.4188 -0.5568
 6198TIP3    H140009   0.102   2.503  12.229  0.0315 -1.1113 -0.6315
 6198TIP3    H240010   0.118   2.650  12.200 -0.8217 -0.4703  1.9359
 6199TIP3   OH240011   6.728   6.163   3.576 -0.1538 -0.8449  0.3070
 6199TIP3    H140012   6.757   6.135   3.663 -0.2530 -2.7898 -0.2431
 6199TIP3    H240013   6.804   6.148   3.520 -0.6019 -1.1155 -0.2327
 6200TIP3   OH240014   6.310   4.235  13.645  0.1468 -0.3170 -0.0887
 6200TIP3    H140015   6.299   4.141  13.629 -2.7164 -0.0774 -0.0638
 6200TIP3    H240016   6.226   4.274  13.621  1.0045  2.1685  0.5889
 6201TIP3   OH240017   0.090   6.114  12.949  0.0274 -0.1461 -0.0076
 6201TIP3    H140018   0.018   6.070  12.903  0.4523  1.0623 -1.9762
 6201TIP3    H240019   0.087   6.079  13.038  0.1057 -3.8254 -1.2920
 6202TIP3   OH240020   5.365   4.357  10.931 -0.4756  0.2967 -0.5459
 6202TIP3    H140021   5.308   4.418  10.976  0.5622  2.3870 -1.9078
 6202TIP3    H240022   5.305   4.295  10.888 -1.8048  2.4543 -1.9959
 6203TIP3   OH240023   6.710   6.037   6.628 -0.6342  0.1185  0.5084
 6203TIP3    H140024   6.675   6.121   6.600 -0.5714 -0.3961 -1.2337
 6203TIP3    H240025   6.634   5.991   6.665 -1.0818  0.2752 -0.1843
 6204TIP3   OH240026   4.742   3.371   5.562 -0.0511  0.0980  0.1964
 6204TIP3    H140027   4.817   3.431   5.559 -0.5224  0.6428 -1.2995
 6204TIP3    H240028   4.756   3.311   5.489 -1.3950  0.6283 -0.5287
 6205TIP3   OH240029   3.977   6.650   3.411 -0.0831 -0.4373 -0.2287
 6205TIP3    H140030   3.962   6.720   3.474  0.0770  0.2282 -0.9183
 6205TIP3    H240031   4.067   6.663   3.381 -0.1200 -0.8133 -0.5130
 6206TIP3   OH240032   2.535   3.825   2.226 -0.3841  0.1782 -0.2939
 6206TIP3    H140033   2.571   3.749   2.181 -2.0103  0.2462 -1.8256
 6206TIP3    H240034   2.607   3.858   2.280  1.0548 -1.0603 -1.3785
 6207TIP3   OH240035   2.888   1.324   3.851  0.2876 -0.0016 -0.1777
 6207TIP3    H140036   2.922   1.373   3.925 -2.7143  0.8403  0.7991
 6207TIP3    H240037   2.914   1.233   3.868 -0.2942  0.1811  1.9525
 6208TIP3   OH240038   5.693   6.752  15.536 -0.0229 -0.3847 -0.2919
 6208TIP3    H140039   5.740   6.726  15.456  1.8791 -1.0777  0.9904
 6208TIP3    H240040   5.676   6.846  15.524 -0.5813 -0.6627 -1.8868
 6209TIP3   OH240041   3.446   4.216  16.388  0.2167 -0.1719 -0.2335
 6209TIP3    H140042   3.478   4.269  16.315  0.8479  0.3538  0.4183
 6209TIP3    H240043   3.484   4.130  16.373  1.3803  0.2524  0.1330
 6210TIP3   OH240044   5.687   6.459   1.365 -0.7429 -0.3370 -0.6018
 6210TIP3    H140045   5.625   6.410   1.311 -0.9966  0.1997 -0.8025
 6210TIP3    H240046   5.735   6.392   1.413 -0.0257 -0.8748 -2.0060
 6211TIP3   OH240047   3.010   0.318   2.284 -0.4954  0.0445  0.0044
 6211TIP3    H140048   3.000   0.269   2.203 -0.4608 -0.5581  0.3584
 6211TIP3    H240049   3.065   0.262   2.339 -0.0228  0.7067  0.2292
 6212TIP3   OH240050   4.529   0.695   1.403 -0.0295  0.0720  0.7809
 6212TIP3    H140051   4.578   0.776   1.413  0.2806  0.0347 -0.3025
 6212TIP3    H240052   4.584   0.627   1.441  0.7083  0.0584 -0.2642
 6213TIP3   OH240053   0.046   6.228   5.116  0.1752 -0.3590 -0.1566
 6213TIP3    H140054   0.095   6.238   5.197  1.2699 -3.3313 -0.3304
 6213TIP3    H240055   0.025   6.318   5.089  3.4692  0.9509  1.1781
 6214TIP3   OH240056   5.680   4.806   2.696  1.3084  0.5692  0.3006
 6214TIP3    H140057   5.727   4.879   2.738  0.6479  1.0702  0.1794
 6214TIP3    H240058   5.600   4.797   2.748 -0.4711  2.4360 -1.8698
 6215TIP3   OH240059   0.612   0.396   5.585 -0.8076  0.2189  0.7011
 6215TIP3    H140060   0.550   0.425   5.652 -3.6666 -0.8549 -1.2695
 6215TIP3    H240061   0.563   0.333   5.532  2.2692 -1.3388 -0.5748
 6216TIP3   OH240062   5.677   4.951  12.587 -0.4015 -0.3443 -0.3925
 6216TIP3    H140063   5.764   4.940  12.548  0.3538 -1.0679  1.3858
 6216TIP3    H240064   5.691   5.016  12.656 -1.2544 -0.5923  0.0198
 6217TIP3   OH240065   5.887   3.968  13.649  0.1067 -0.2261 -0.1524
 6217TIP3    H140066   5.807   3.966  13.703 -0.1099 -1.5133 -0.4873
 6217TIP3    H240067   5.863   4.021  13.573 -0.3529 -0.3720 -0.1166
 6218TIP3   OH240068   2.412   4.987   5.571 -1.0060 -0.0345 -0.1788
 6218TIP3    H140069   2.456   5.009   5.489 -0.5217  1.0731  0.3603
 6218TIP3    H240070   2.395   4.893   5.565 -1.2910  0.0902 -1.6919
 6219TIP3   OH240071   0.043   6.104  11.974 -0.6066  0.5513  0.1657
 6219TIP3    H140072   0.123   6.148  12.003  0.3563 -0.9331 -0.1552
 6219TIP3    H240073  -0.016   6.176  11.949  0.5875  1.6709  0.4629
 6220TIP3   OH240074   6.760   6.720  13.527  0.5614  0.0108 -0.5351
 6220TIP3    H140075   6.829   6.725  13.461  1.3669 -1.0821  0.1802
 6220TIP3    H240076   6.763   6.804  13.572  0.7122  0.3653 -1.1946
 6221TIP3   OH240077   6.191   2.081  14.157  0.0804 -0.4782 -0.1578
 6221TIP3    H140078   6.240   2.134  14.220  1.2728 -0.8323 -0.7825
 6221TIP3    H240079   6.161   2.006  14.208 -0.7711  0.2562  0.4835
 6222TIP3   OH240080   0.584   5.423   4.417  0.3360  0.1238 -0.1167
 6222TIP3    H140081   0.530   5.460   4.347  0.0561  0.6431  0.3668
 6222TIP3    H240082   0.527   5.360   4.461 -0.0879  1.0908  0.7599
 6223TIP3   OH240083   0.579   1.735   3.014  0.0467  0.1226 -0.1722
 6223TIP3    H140084   0.641   1.804   3.037 -0.5355 -0.1296  2.4263
 6223TIP3    H240085   0.498   1.759   3.058 -0.3648 -1.8610  0.2525
 6224TIP3   OH240086   5.282   1.255   3.886  0.5244 -0.0375 -0.1292
 6224TIP3    H140087   5.375   1.237   3.899  0.8965 -0.8585 -3.3075
 6224TIP3    H240088   5.252   1.188   3.825 -1.9535  0.8037  0.0387
 6225TIP3   OH240089   0.924   4.146  12.482 -0.2930  0.4475 -0.7442
 6225TIP3    H140090   0.952   4.090  12.410  0.2960  0.2408 -0.3575
 6225TIP3    H240091   0.866   4.090  12.534 -0.3813  0.4657 -0.8221
 6226TIP3   OH240092   4.478   6.644   4.486 -0.2794  0.2963  0.1186
 6226TIP3    H140093   4.455   6.589   4.561 -2.8456 -0.3337 -1.0177
 6226TIP3    H240094   4.526   6.585   4.427 -0.6888  0.0058  0.0720
 6227TIP3   OH240095   3.733   5.324  11.555  0.0969 -0.3090  0.0257
 6227TIP3    H140096   3.737   5.290  11.645  0.1447 -1.6033 -0.4442
 6227TIP3    H240097   3.794   5.269  11.506 -1.9404 -1.4737 -1.3623
 6228TIP3   OH240098   2.286   0.233   3.770 -0.2328 -0.2437  0.1284
 6228TIP3    H140099   2.295   0.183   3.689 -1.0621 -1.9235  0.9971
 6228TIP3    H240100   2.374   0.264   3.790  0.8433 -3.2346  0.6090
 6229TIP3   OH240101   1.953   3.210   1.536  0.2758 -0.8862 -0.4464
 6229TIP3    H140102   1.937   3.233   1.628 -0.6086  1.7663 -1.1546
 6229TIP3    H240103   1.984   3.120   1.539 -1.8350 -1.6651  2.2700
 6230TIP3   OH240104   2.348   4.748  11.300  0.0106 -0.2273 -0.1455
 6230TIP3    H140105   2.339   4.654  11.286  0.7498 -0.4287  0.6517
 6230TIP3    H240106   2.400   4.756  11.380  2.4198  0.8731 -1.7243
 6231TIP3   OH240107   1.293   1.974   2.828 -0.0842 -0.4412  0.3837
 6231TIP3    H140108   1.206   2.005   2.803  0.6989  0.5872 -1.2494
 6231TIP3    H240109   1.337   2.051   2.865  0.3896 -0.7430  0.4631
 6232TIP3   OH240110   3.876   1.017  14.807 -0.3381  0.1057 -1.0429
 6232TIP3    H140111   3.827   1.076  14.750 -1.0399  0.7948  0.2074
 6232TIP3    H240112   3.888   1.068  14.888 -1.9624 -1.8249  0.5151
 6233TIP3   OH240113   1.159   6.689  15.646  0.4519 -0.2073 -0.0285
 6233TIP3    H140114   1.170   6.773  15.600 -2.8478 -0.5191 -1.7060
 6233TIP3    H240115   1.193   6.624  15.584  2.7180 -0.2428  1.1442
 6234TIP3   OH240116   6.345   2.138  11.541  0.2030 -0.1174  0.1478
 6234TIP3    H140117   6.394   2.062  11.510  0.8291  0.6823 -0.8807
 6234TIP3    H240118   6.319   2.184  11.461 -3.1773 -1.0281  0.5285
 6235TIP3   OH240119   1.203   5.733   5.674 -0.1657  0.0594 -0.2012
 6235TIP3    H140120   1.228   5.808   5.728 -2.0328  0.0749  0.7564
 6235TIP3    H240121   1.206   5.659   5.734 -0.4783 -0.2346 -0.5464
 6236TIP3   OH240122   5.136   6.509   4.585  0.3436  0.0054  0.1391
 6236TIP3    H140123   5.212   6.528   4.529 -0.9013 -0.2272 -1.7108
 6236TIP3    H240124   5.106   6.595   4.614  1.3170  0.0959  0.9204
 6237TIP3   OH240125   3.481   5.863  14.109  0.3239 -0.4834 -0.3082
 6237TIP3    H140126   3.534   5.910  14.045  0.4026 -0.4601 -0.2271
 6237TIP3    H240127   3.405   5.832  14.060 -0.3592  0.7890 -0.1130
 6238TIP3   OH240128   0.127   6.471  15.578  0.3801 -0.0361 -0.4558
 6238TIP3    H140129   0.166   6.553  15.609 -0.9652  0.8641 -1.0206
 6238TIP3    H240130   0.033   6.487  15.582  0.0388 -2.0502  0.6712
 6239TIP3   OH240131   3.224   1.244   5.514  0.3219 -0.0430 -0.5496
 6239TIP3    H140132   3.248   1.173   5.574 -1.1404  0.6944  0.9662
 6239TIP3    H240133   3.131   1.233   5.499  0.1551  1.3245 -0.6120
 6240TIP3   OH240134   4.042   3.250  12.228  0.1157 -0.2125 -0.1454
 6240TIP3    H140135   4.015   3.160  12.245  0.3640 -0.0781  1.0000
 6240TIP3    H240136   4.138   3.247  12.228  0.1238 -0.0058 -0.4251
 6241TIP3   OH240137   4.904   1.130  16.411 -0.0865  0.0963 -0.3599
 6241TIP3    H140138   4.997   1.144  16.397 -0.0656 -0.8593 -1.3419
 6241TIP3    H240139   4.895   1.035  16.419 -0.9552  0.1896 -0.1110
 6242TIP3   OH240140   6.312   4.308  13.966 -0.2296  0.7491 -0.0403
 6242TIP3    H140141   6.303   4.312  14.061  2.5114 -3.9965  0.7390
 6242TIP3    H240142   6.248   4.242  13.939  2.7456 -2.2385 -0.4108
 6243TIP3   OH240143   4.460   6.278  14.155  0.2670  0.0431  0.0447
 6243TIP3    H140144   4.474   6.326  14.074  2.0847  2.5980  1.7260
 6243TIP3    H240145   4.429   6.191  14.127  2.2455  0.2960 -3.3983
 6244TIP3   OH240146   1.873   5.601  13.166  0.4940  0.5481 -0.0964
 6244TIP3    H140147   1.900   5.547  13.091  1.6137  0.1405  0.5837
 6244TIP3    H240148   1.804   5.551  13.208  1.0819 -0.0696  0.1542
 6245TIP3   OH240149   0.004   5.966  17.306  0.1183 -0.4975  0.2152
 6245TIP3    H140150  -0.040   6.049  17.327  1.7298  0.1002  1.4447
 6245TIP3    H240151   0.045   5.939  17.388 -1.0473 -2.9863  0.0717
 6246TIP3   OH240152   1.456   2.322  11.999 -0.7166 -0.1060  0.0305
 6246TIP3    H140153   1.417   2.302  12.084  1.1008 -1.7580  0.5681
 6246TIP3    H240154   1.515   2.395  12.016  1.6474 -2.0683  0.9254
 6247TIP3   OH240155   0.074   3.540   3.602  0.1302 -0.2948  0.1409
 6247TIP3    H140156   0.062   3.634   3.616  1.6960 -0.2075  1.2633
 6247TIP3    H240157   0.001   3.514   3.546 -0.2042  1.6296 -0.3948
 6248TIP3   OH240158   6.205   3.475  11.254 -0.0015 -0.2849 -0.0066
 6248TIP3    H140159   6.168   3.535  11.189  2.2344 -0.6895 -1.7934
 6248TIP3    H240160   6.169   3.505  11.337  1.1645  3.8302 -0.7330
 6249TIP3   OH240161   6.668   4.430   1.672  0.0474 -0.4239  0.0614
 6249TIP3    H140162   6.650   4.342   1.640  0.1277  0.2265 -1.8954
 6249TIP3    H240163   6.582   4.471   1.679  0.0249 -0.5821  0.7988
 6250TIP3   OH240164   1.189   2.597   0.353  0.5482 -0.0111 -0.8833
 6250TIP3    H140165   1.270   2.558   0.322 -0.6189 -2.9001 -0.5754
 6250TIP3    H240166   1.214   2.646   0.432  1.8316 -1.8900 -0.0569
 6251TIP3   OH240167   1.237   1.608  14.667 -0.1116 -0.0822 -0.0116
 6251TIP3    H140168   1.326   1.587  14.638 -0.0001  1.3412 -0.8040
 6251TIP3    H240169   1.184   1.535  14.635  0.3853  0.3056 -1.8553
 6252TIP3   OH240170   3.030   4.402  17.268  0.1055 -0.3509  0.6763
 6252TIP3    H140171   3.116   4.379  17.233  0.4278 -1.4983  2.1290
 6252TIP3    H240172   2.973   4.332  17.238 -0.7004  1.1435 -1.4965
 6253TIP3   OH240173   0.602   1.354  16.459 -0.4541  0.0094 -0.3148
 6253TIP3    H140174   0.515   1.391  16.472 -0.5114  0.0466 -0.7728
 6253TIP3    H240175   0.620   1.369  16.366 -0.2995 -0.7429 -0.4088
 6254TIP3   OH240176   1.603   4.757  12.027 -0.0760 -0.0406 -0.3786
 6254TIP3    H140177   1.694   4.747  12.053  0.2208 -1.4805 -1.7622
 6254TIP3    H240178   1.579   4.671  11.990 -1.4136  0.8581 -1.7344
 6255TIP3   OH240179   0.341   0.867  16.269 -0.8157 -0.0077 -0.4712
 6255TIP3    H140180   0.327   0.910  16.353 -0.3303  0.5476 -0.6683
 6255TIP3    H240181   0.261   0.882  16.220 -0.6907  0.5941 -0.4991
 6256TIP3   OH240182   4.331   4.596   0.368  0.1487 -0.1158 -0.5874
 6256TIP3    H140183   4.397   4.626   0.430 -1.3444  2.3063 -0.0575
 6256TIP3    H240184   4.379   4.585   0.286  1.4460  0.2886  0.0825
 6257TIP3   OH240185   2.876   1.150  16.862  0.1264  0.8409 -0.1186
 6257TIP3    H140186   2.840   1.216  16.803 -1.3583  0.7868  0.6822
 6257TIP3    H240187   2.971   1.158  16.852 -0.0095  3.1216 -0.0244
 6258TIP3   OH240188   6.626   2.590   5.660  0.1230 -0.0726  0.4821
 6258TIP3    H140189   6.606   2.527   5.729  2.6404 -0.1916  1.1914
 6258TIP3    H240190   6.562   2.660   5.671 -0.8242 -1.0785  1.5837
 6259TIP3   OH240191   5.717   3.560  14.763 -0.0229 -0.1555  0.2408
 6259TIP3    H140192   5.640   3.546  14.708  1.8045 -0.6214 -2.3689
 6259TIP3    H240193   5.744   3.650  14.743 -0.5244  0.4314  2.0511
 6260TIP3   OH240194   0.850   0.747   2.885  0.3178 -0.2039  0.1439
 6260TIP3    H140195   0.829   0.739   2.792 -2.7725  0.4363  0.6613
 6260TIP3    H240196   0.849   0.841   2.903  1.3431 -0.2946  0.7651
 6261TIP3   OH240197   5.353   1.078   2.555  0.3614 -0.2965 -0.1815
 6261TIP3    H140198   5.285   1.040   2.610  0.1897  0.4190  0.0992
 6261TIP3    H240199   5.397   1.142   2.610 -0.4854  1.1802 -1.1720
 6262TIP3   OH240200   0.310   1.619  16.236 -0.1314  0.3627  0.3081
 6262TIP3    H140201   0.300   1.528  16.207 -0.7252  0.9298 -1.4296
 6262TIP3    H240202   0.220   1.654  16.234  0.2218  1.2834 -0.1867
 6263TIP3   OH240203   2.511   1.543   0.328  0.3583  0.3383  0.4407
 6263TIP3    H140204   2.457   1.575   0.401  2.3045  0.5772  1.8617
 6263TIP3    H240205   2.538   1.455   0.355  2.1497  0.9135  0.6557
 6264TIP3   OH240206   5.196   5.688  14.017  0.2736 -0.5344  0.1399
 6264TIP3    H140207   5.119   5.710  14.070 -0.0901 -0.4504 -0.4128
 6264TIP3    H240208   5.188   5.744  13.940 -0.0860 -1.8165 -0.7842
 6265TIP3   OH240209   4.809   2.341   1.559  0.1424  0.2411 -0.3768
 6265TIP3    H140210   4.865   2.416   1.540 -0.1542  1.1018  1.8880
 6265TIP3    H240211   4.739   2.346   1.494  1.2983  0.6123 -1.6368
 6266TIP3   OH240212   4.157   4.824   0.366  0.3315  0.6769  0.0777
 6266TIP3    H140213   4.201   4.739   0.364  0.4485  0.7408 -0.1210
 6266TIP3    H240214   4.161   4.851   0.458  1.9494  1.3212 -0.1453
 6267TIP3   OH240215   0.651   0.473  16.034  0.2595 -0.4224  0.1496
 6267TIP3    H140216   0.674   0.566  16.040  1.5061 -0.7383  0.4697
 6267TIP3    H240217   0.711   0.438  15.969 -0.3531 -0.9701 -0.1310
 6268TIP3   OH240218   1.280   1.943  15.288 -0.0767  0.2654 -0.4219
 6268TIP3    H140219   1.200   1.965  15.335 -0.2000  0.4674 -0.7241
 6268TIP3    H240220   1.260   1.861  15.243  0.0927 -0.0093 -0.0003
 6269TIP3   OH240221   1.658   0.883   4.633 -0.2357  0.2683  0.2971
 6269TIP3    H140222   1.630   0.926   4.713  0.2853 -0.5512  0.9433
 6269TIP3    H240223   1.677   0.793   4.660  1.5824  0.4028 -0.3654
 6270TIP3   OH240224   0.750   6.486  16.772 -0.3074 -0.1747 -0.6191
 6270TIP3    H140225   0.845   6.486  16.769 -0.2594 -0.5933  0.3178
 6270TIP3    H240226   0.727   6.401  16.811 -1.2424 -1.6613 -4.0717
 6271TIP3   OH240227   4.213   1.068  16.958  0.4954  0.3752 -0.1720
 6271TIP3    H140228   4.208   0.976  16.987  0.9294  0.3229 -0.2564
 6271TIP3    H240229   4.227   1.117  17.038 -0.3569  0.4339 -0.0503
 6272TIP3   OH240230   3.768   1.263  15.023 -0.1450  0.5570 -0.1803
 6272TIP3    H140231   3.743   1.312  14.944  0.5098 -0.6537 -1.1734
 6272TIP3    H240232   3.685   1.252  15.071 -0.4077  2.0706 -0.2214
 6273TIP3   OH240233   3.445   3.019   2.642  0.1208  0.1204  0.3695
 6273TIP3    H140234   3.477   3.102   2.679 -0.8338  1.0271 -0.7551
 6273TIP3    H240235   3.470   2.953   2.706  4.3918  0.6818 -0.4460
 6274TIP3   OH240236   0.224   3.783   0.779  0.5636  0.2410  0.1810
 6274TIP3    H140237   0.239   3.852   0.844  0.9492  0.5659 -0.2377
 6274TIP3    H240238   0.149   3.735   0.811  0.1606  0.9884  0.3854
 6275TIP3   OH240239   0.931   2.621  15.709 -0.1816  0.1994 -0.4242
 6275TIP3    H140240   0.951   2.536  15.747  1.6709 -0.0544 -1.8553
 6275TIP3    H240241   0.897   2.602  15.621  2.2002  0.9314 -1.5760
 6276TIP3   OH240242   3.219   2.875   3.628 -0.1754 -0.6883 -0.7621
 6276TIP3    H140243   3.151   2.808   3.635 -0.4749 -0.7410 -3.1506
 6276TIP3    H240244   3.239   2.879   3.534  0.6504  1.7542 -0.5595
 6277TIP3   OH240245   0.913   1.393   3.823  0.2685  0.0647 -0.0498
 6277TIP3    H140246   0.872   1.468   3.779  0.4851  0.9588  1.2358
 6277TIP3    H240247   0.994   1.427   3.859  0.4927 -0.8545  0.3430
 6278TIP3   OH240248   5.555   6.740   0.909  0.0520  0.0007 -0.5528
 6278TIP3    H140249   5.498   6.773   0.840  0.3559  1.1075 -0.2976
 6278TIP3    H240250   5.611   6.815   0.932 -0.1758 -0.2754  1.0211
 6279TIP3   OH240251   4.938   0.240   4.340  0.3378  0.1385  0.2302
 6279TIP3    H140252   4.900   0.251   4.253  0.1375  0.6660  0.3811
 6279TIP3    H240253   5.021   0.194   4.325  0.6359  0.8354 -0.3111
 6280TIP3   OH240254   6.204   5.660  15.814 -0.3932 -0.0884  0.1690
 6280TIP3    H140255   6.127   5.709  15.784  0.6595  0.8591 -1.1031
 6280TIP3    H240256   6.198   5.662  15.910 -2.9114 -1.6474  0.1364
 6281TIP3   OH240257   5.665   1.236  12.722  0.1864 -0.7078  0.2264
 6281TIP3    H140258   5.655   1.184  12.643  0.0103  0.6659 -0.6909
 6281TIP3    H240259   5.583   1.285  12.731  1.1003  1.0037 -0.1715
 6282TIP3   OH240260   1.926   3.395   3.634 -0.8972  0.1791 -0.2827
 6282TIP3    H140261   1.971   3.374   3.551  0.4215  1.2738  0.1045
 6282TIP3    H240262   1.997   3.405   3.697 -1.8443  0.0816  0.8223
 6283TIP3   OH240263   4.144   4.368  12.160  0.6693  0.5775 -0.5840
 6283TIP3    H140264   4.058   4.383  12.199  0.5056 -2.1638  0.3046
 6283TIP3    H240265   4.206   4.404  12.224  0.2431  0.8496 -0.3222
 6284TIP3   OH240266   3.908   1.886  10.996 -0.7247 -0.2866 -0.3871
 6284TIP3    H140267   3.871   1.964  11.038 -1.4120 -0.5227 -0.5423
 6284TIP3    H240268   3.861   1.878  10.914  0.2644 -0.1234 -0.9824
 6285TIP3   OH240269   6.136   3.886  11.233  0.4560 -0.0634 -0.2063
 6285TIP3    H140270   6.056   3.841  11.261  0.2739  0.2140 -0.2744
 6285TIP3    H240271   6.199   3.868  11.302  0.5471 -0.8592 -0.4875
 6286TIP3   OH240272   2.026   1.846  14.286  0.3281  0.1853 -0.2977
 6286TIP3    H140273   2.055   1.762  14.322  0.3187 -0.1843 -1.1279
 6286TIP3    H240274   2.073   1.911  14.337  2.2797 -0.3858 -1.2780
 6287TIP3   OH240275   1.882   5.377   1.230  0.2834 -0.0835  0.4883
 6287TIP3    H140276   1.973   5.347   1.221  0.2692 -0.3597  1.2756
 6287TIP3    H240277   1.880   5.422   1.314  0.1780  1.6977 -0.3994
 6288TIP3   OH240278   2.010   1.556  13.005 -0.2915 -0.0288  0.1516
 6288TIP3    H140279   2.023   1.463  13.025  1.6045 -0.2018 -1.6294
 6288TIP3    H240280   2.043   1.601  13.082  0.4230 -0.8064  0.3210
 6289TIP3   OH240281   2.798   0.666  12.917  0.2532  0.1359  0.1625
 6289TIP3    H140282   2.850   0.745  12.897  1.7750 -0.7886  0.2935
 6289TIP3    H240283   2.861   0.606  12.957 -0.6821 -1.4571 -0.6578
 6290TIP3   OH240284   6.174   1.336  14.424  0.6307 -0.0526 -1.3870
 6290TIP3    H140285   6.172   1.312  14.517  1.5548 -0.6411 -1.5012
 6290TIP3    H240286   6.264   1.365  14.409  0.8127 -1.0462 -2.3405
 6291TIP3   OH240287   1.645   3.350   3.046 -0.0694  0.8877 -0.1602
 6291TIP3    H140288   1.699   3.369   3.123 -1.1274 -0.2058  0.8947
 6291TIP3    H240289   1.629   3.256   3.051 -1.5949  1.0976 -0.7493
 6292TIP3   OH240290   2.437   0.331   0.888 -0.2091 -0.1306 -0.4799
 6292TIP3    H140291   2.515   0.337   0.943  1.1380  0.7080 -2.3808
 6292TIP3    H240292   2.395   0.416   0.896 -0.0191 -0.0129 -0.6983
 6293TIP3   OH240293   3.528   2.218  11.168 -0.2687  0.2573  0.2713
 6293TIP3    H140294   3.532   2.188  11.077  0.1362 -0.1498  0.4210
 6293TIP3    H240295   3.496   2.308  11.163  1.9752  1.0598 -0.4383
 6294TIP3   OH240296   0.935   6.048   6.570  0.0551 -0.7546  0.3872
 6294TIP3    H140297   0.857   6.033   6.517  0.4524  0.3364 -0.5533
 6294TIP3    H240298   0.940   5.972   6.627 -1.2528 -1.2224 -0.0741
 6295TIP3   OH240299   0.495   4.248  13.306 -0.5022  0.4536 -0.1694
 6295TIP3    H140300   0.474   4.339  13.283 -0.4191  0.5395  0.0823
 6295TIP3    H240301   0.462   4.239  13.396  1.1557  0.8128  0.5093
 6296TIP3   OH240302   2.084   0.701  15.797 -0.0110 -0.0015 -0.3359
 6296TIP3    H140303   2.007   0.694  15.854  1.5717 -2.4063  1.7417
 6296TIP3    H240304   2.112   0.792  15.806 -1.1730  0.2745  0.8966
 6297TIP3   OH240305   0.338   4.531   1.097  0.1192 -0.5087  0.5836
 6297TIP3    H140306   0.429   4.550   1.073  0.1261 -0.6731  0.4817
 6297TIP3    H240307   0.288   4.605   1.063  0.2677 -0.2095  1.0026
 6298TIP3   OH240308   4.331   2.636  11.513 -0.5233  0.2977  0.2002
 6298TIP3    H140309   4.382   2.629  11.433  0.2557  0.4129  0.6772
 6298TIP3    H240310   4.339   2.550  11.555 -0.6318  0.3528  0.3357
 6299TIP3   OH240311   2.846   6.474  16.123 -0.0692 -0.1501  0.8728
 6299TIP3    H140312   2.815   6.525  16.198 -0.9440  0.9962 -0.2146
 6299TIP3    H240313   2.941   6.468  16.135 -0.1814  0.1432  1.9792
 6300TIP3   OH240314   6.116   0.870  14.768 -0.2717  0.0791 -0.0279
 6300TIP3    H140315   6.143   0.960  14.786 -0.3875  0.0607  0.2457
 6300TIP3    H240316   6.126   0.861  14.674  0.0951  0.2618 -0.0098
 6301TIP3   OH240317   0.549   0.228   1.579  0.1648  0.2183  0.0605
 6301TIP3    H140318   0.535   0.174   1.501 -0.8120 -0.1553  0.4749
 6301TIP3    H240319   0.569   0.315   1.545  0.7163 -0.1614 -0.6098
 6302TIP3   OH240320   0.646   6.271  11.087  0.2865 -0.2031  0.3243
 6302TIP3    H140321   0.695   6.316  11.018  0.5857 -0.9924  0.0037
 6302TIP3    H240322   0.713   6.231  11.142  0.0604 -2.6559 -1.0327
 6303TIP3   OH240323   2.279   3.125   0.354 -0.0549  0.1952  0.1628
 6303TIP3    H140324   2.266   3.031   0.347 -1.8721 -0.0596  4.1877
 6303TIP3    H240325   2.204   3.164   0.309  0.1391 -0.3147 -0.6009
 6304TIP3   OH240326   2.608   6.376  14.277  0.4103 -0.6104  0.4152
 6304TIP3    H140327   2.527   6.410  14.314  0.3023  0.3752 -0.6726
 6304TIP3    H240328   2.604   6.400  14.185  0.9046 -2.5403 -0.1501
 6305TIP3   OH240329   0.639   4.255  16.889 -0.3558 -0.2258 -0.1576
 6305TIP3    H140330   0.594   4.224  16.811  0.3740  1.0600 -1.1262
 6305TIP3    H240331   0.713   4.195  16.899 -0.6302 -0.5866 -0.2652
 6306TIP3   OH240332   1.043   0.355   2.653  0.1078  0.2000  0.7019
 6306TIP3    H140333   1.002   0.327   2.735  1.1325  0.6994  1.4035
 6306TIP3    H240334   0.976   0.339   2.586 -0.6000 -0.5847  1.5749
 6307TIP3   OH240335   1.240   2.213   6.311 -0.4041  0.0992 -0.6663
 6307TIP3    H140336   1.269   2.292   6.356 -2.5325 -0.5225  2.0375
 6307TIP3    H240337   1.190   2.164   6.376 -2.1826 -1.7931 -3.2251
 6308TIP3   OH240338   2.366   5.183  12.852 -0.6595 -0.2779 -0.6747
 6308TIP3    H140339   2.386   5.207  12.942  0.3637 -1.5688 -0.5277
 6308TIP3    H240340   2.285   5.133  12.857  0.3441 -1.9182 -0.2049
 6309TIP3   OH240341   4.550   2.482  13.833  0.4749 -0.0610 -0.0940
 6309TIP3    H140342   4.554   2.554  13.771  0.9056  0.4162  0.4870
 6309TIP3    H240343   4.631   2.432  13.819  0.3855 -0.1807 -0.1902
 6310TIP3   OH240344   0.782   4.258  15.143  0.1005  0.1290  0.4532
 6310TIP3    H140345   0.781   4.350  15.170  0.9994  0.0836  0.6559
 6310TIP3    H240346   0.708   4.251  15.083  1.0898  1.4565 -1.0222
 6311TIP3   OH240347   5.918   4.460   2.254  0.1566  0.2023  0.0108
 6311TIP3    H140348   5.944   4.461   2.346  1.1979  0.3453 -0.2676
 6311TIP3    H240349   5.913   4.553   2.229 -1.6561  0.2183  0.3145
 6312TIP3   OH240350   2.629   1.973  15.787  0.0171  0.3901  0.5320
 6312TIP3    H140351   2.544   2.007  15.816  0.4767  0.6037  1.6839
 6312TIP3    H240352   2.692   2.038  15.815  0.8490 -1.0585  2.2052
 6313TIP3   OH240353   5.068   3.309   4.832  0.0988 -0.2979  0.2497
 6313TIP3    H140354   5.130   3.331   4.762 -0.9392  1.6653 -0.1193
 6313TIP3    H240355   5.121   3.263   4.897  1.7031  0.3429 -0.5516
 6314TIP3   OH240356   4.566   3.820   0.883 -0.5172 -0.0938  0.0879
 6314TIP3    H140357   4.643   3.792   0.933 -1.7115  0.7930  2.5635
 6314TIP3    H240358   4.530   3.893   0.932 -4.0305 -1.6168  0.0889
 6315TIP3   OH240359   3.555   6.772  16.751  0.1447  0.2317  0.0121
 6315TIP3    H140360   3.505   6.853  16.763  1.0488  0.7402  0.4781
 6315TIP3    H240361   3.602   6.785  16.668  3.3167  1.9161  1.8645
 6316TIP3   OH240362   4.092   2.709  15.354 -0.2058  0.4771 -0.3041
 6316TIP3    H140363   4.113   2.730  15.262  0.4425  1.0661 -0.0319
 6316TIP3    H240364   4.167   2.742  15.403 -1.1391  1.3397  0.5774
 6317TIP3   OH240365   4.911   2.745   4.163 -0.2428 -0.1933 -0.0961
 6317TIP3    H140366   4.841   2.782   4.217  0.9516  0.6864  0.9310
 6317TIP3    H240367   4.964   2.693   4.224  0.3193 -0.3692 -0.7185
 6318TIP3   OH240368   1.450   4.501  11.261  0.2694  0.7658 -0.1889
 6318TIP3    H140369   1.368   4.535  11.297 -0.1110  0.7828 -1.0392
 6318TIP3    H240370   1.432   4.488  11.167  0.5423 -1.3212 -0.0091
 6319TIP3   OH240371   3.288   2.183   1.417  0.0970  0.0104  0.2859
 6319TIP3    H140372   3.218   2.172   1.352  0.2813  1.4073 -0.1878
 6319TIP3    H240373   3.332   2.098   1.420 -0.5090 -0.3574 -0.7135
 6320TIP3   OH240374   2.350   1.674   0.522  0.0001  0.7385 -0.3205
 6320TIP3    H140375   2.324   1.726   0.446 -0.0147 -1.4581 -1.9137
 6320TIP3    H240376   2.280   1.688   0.586 -0.6036  1.7106 -1.1729
 6321TIP3   OH240377   0.552   5.645  15.518  0.3737 -0.1160 -0.8588
 6321TIP3    H140378   0.563   5.729  15.562 -0.0299 -1.9799  3.2202
 6321TIP3    H240379   0.457   5.631  15.515  0.4234 -0.3006 -1.7878
 6322TIP3   OH240380   0.019   4.669   5.277 -0.1332 -0.1819  0.5058
 6322TIP3    H140381   0.079   4.710   5.215 -1.9618  2.3670  0.2846
 6322TIP3    H240382   0.001   4.582   5.240 -0.7176  1.0181 -2.2510
 6323TIP3   OH240383   5.009   2.445   5.525  0.3003 -0.3442  0.1414
 6323TIP3    H140384   5.051   2.490   5.599  0.8151 -0.2052 -0.2302
 6323TIP3    H240385   4.989   2.358   5.558 -0.5973  0.0991  0.8378
 6324TIP3   OH240386   4.694   1.965   2.748 -0.4337 -0.5341 -0.5799
 6324TIP3    H140387   4.645   2.046   2.762  2.5977  1.3886 -0.2164
 6324TIP3    H240388   4.767   1.991   2.692  2.0553 -2.4148  1.5748
 6325TIP3   OH240389   1.115   3.622   2.662  0.1284  0.1605  0.3953
 6325TIP3    H140390   1.044   3.681   2.638  0.4447  1.0699  1.6210
 6325TIP3    H240391   1.074   3.560   2.722 -0.2604 -1.0761 -1.0699
 6326TIP3   OH240392   2.211   5.904  14.221  0.2251  0.0740  0.2189
 6326TIP3    H140393   2.232   5.907  14.314  0.5027  0.4158  0.1438
 6326TIP3    H240394   2.128   5.952  14.214 -0.9991 -1.8587  0.6159
 6327TIP3   OH240395   0.925   6.094  14.506 -0.3890  0.2273 -0.1963
 6327TIP3    H140396   0.841   6.076  14.548 -0.2336 -0.5376 -0.2006
 6327TIP3    H240397   0.979   6.018  14.525 -0.3919 -0.2738 -1.9717
 6328TIP3   OH240398   4.530   0.351   3.216 -0.8125 -0.1665  0.2326
 6328TIP3    H140399   4.615   0.394   3.222 -0.0397 -1.7627  4.3483
 6328TIP3    H240400   4.512   0.345   3.122  3.7548 -0.0827 -0.8752
 6329TIP3   OH240401   5.944   4.746   1.010 -0.2179  0.7238  0.2866
 6329TIP3    H140402   5.960   4.817   1.073 -2.4983  0.0510  1.7690
 6329TIP3    H240403   5.892   4.787   0.940  0.8589  1.0938 -0.3176
 6330TIP3   OH240404   5.565   0.168   5.231  0.4707  0.0201  0.5663
 6330TIP3    H140405   5.640   0.228   5.232 -0.3422  1.2066 -2.1734
 6330TIP3    H240406   5.599   0.089   5.189  0.3822  0.3235 -0.0930
 6331TIP3   OH240407   2.264   1.609  13.666  0.3209  0.1174  0.3776
 6331TIP3    H140408   2.236   1.701  13.667  2.1934  0.7920 -1.3300
 6331TIP3    H240409   2.284   1.588  13.757 -0.9953  1.0909  0.9214
 6332TIP3   OH240410   0.013   2.220   3.750 -1.1583  0.0155 -0.5883
 6332TIP3    H140411   0.022   2.198   3.843 -0.7664 -0.4699 -0.7339
 6332TIP3    H240412   0.000   2.314   3.749  1.1902  0.3926 -0.1666
 6333TIP3   OH240413   1.996   2.553   1.227 -0.2599  0.1794 -0.0125
 6333TIP3    H140414   1.979   2.459   1.235 -0.6493  0.1175 -1.3176
 6333TIP3    H240415   2.088   2.563   1.251 -0.2114 -0.5409  0.1079
 6334TIP3   OH240416   0.542   5.180   5.454  0.1798 -0.2240 -0.2099
 6334TIP3    H140417   0.529   5.086   5.456  2.4225 -0.5948 -0.5874
 6334TIP3    H240418   0.456   5.217   5.473 -0.9197 -2.3192 -0.8755
 6335TIP3   OH240419   0.027   1.153   1.481  0.4017  0.1300 -0.1339
 6335TIP3    H140420   0.061   1.079   1.530 -0.8940 -0.6600 -0.3875
 6335TIP3    H240421  -0.068   1.139   1.479  0.0898  1.9584  0.0855
 6336TIP3   OH240422   1.351   3.079  12.625 -0.1018  0.2102  0.0012
 6336TIP3    H140423   1.369   3.010  12.560  0.7517 -0.0281  0.4716
 6336TIP3    H240424   1.261   3.064  12.651 -0.4668  0.3084 -1.1285
 6337TIP3   OH240425   0.217   1.188   6.258 -0.0892  0.3022  1.3103
 6337TIP3    H140426   0.123   1.186   6.275 -0.2962  0.7148  0.3056
 6337TIP3    H240427   0.241   1.280   6.262 -0.0762  0.3832 -0.1385
 6338TIP3   OH240428   0.945   3.033   3.593 -0.4120  0.1402  0.5385
 6338TIP3    H140429   0.902   3.081   3.521  1.4743  0.5428 -0.3784
 6338TIP3    H240430   0.980   2.955   3.552  2.7851  1.5167  0.3919
 6339TIP3   OH240431   3.418   2.941  11.231  0.3519  0.2112 -0.5566
 6339TIP3    H140432   3.433   3.033  11.251 -0.0462  0.3100 -0.6898
 6339TIP3    H240433   3.504   2.906  11.208  0.4268  0.6675 -0.9795
 6340TIP3   OH240434   3.127   0.056  12.956  0.0454 -0.3100  0.2053
 6340TIP3    H140435   3.068   0.044  13.031 -1.1023  0.7553 -0.4726
 6340TIP3    H240436   3.068   0.064  12.881  0.8276  3.0953 -0.2204
 6341TIP3   OH240437   2.368   4.747  13.538 -0.8941  0.3406 -0.5905
 6341TIP3    H140438   2.293   4.796  13.571 -0.4010 -0.8021  2.6647
 6341TIP3    H240439   2.445   4.797  13.565 -0.4212  0.4955 -2.1213
 6342TIP3   OH240440   1.174   4.694   4.968 -0.3736  0.0787  0.0417
 6342TIP3    H140441   1.233   4.651   5.030  1.2157  1.8420 -0.1591
 6342TIP3    H240442   1.230   4.720   4.895 -1.3422  1.8649 -0.1435
 6343TIP3   OH240443   3.407   3.573   2.292  0.9515 -0.2706 -0.8383
 6343TIP3    H140444   3.401   3.478   2.302 -2.2657 -0.0614  0.4734
 6343TIP3    H240445   3.462   3.586   2.215  0.5650 -3.2383 -1.7272
 6344TIP3   OH240446   5.634   5.187   3.835  0.1396  0.0963 -0.3833
 6344TIP3    H140447   5.611   5.155   3.923  1.7626  0.9389  0.4007
 6344TIP3    H240448   5.587   5.271   3.829  0.2526  0.1745 -0.2011
 6345TIP3   OH240449   1.144   5.443   0.457 -0.2636 -0.1661 -0.2381
 6345TIP3    H140450   1.138   5.535   0.434  0.2937  0.0910  0.5910
 6345TIP3    H240451   1.095   5.398   0.388  0.4076  0.6391 -1.2686
 6346TIP3   OH240452   5.530   2.137   5.677  0.3342 -0.2438 -0.0446
 6346TIP3    H140453   5.487   2.207   5.724 -0.1169 -0.0503 -0.7257
 6346TIP3    H240454   5.622   2.144   5.702 -0.2014 -1.6570  2.6729
 6347TIP3   OH240455   4.990   5.468   0.518 -0.4807  0.3793  0.1984
 6347TIP3    H140456   4.898   5.447   0.503 -0.8056  1.2425  0.9137
 6347TIP3    H240457   5.000   5.557   0.485  0.3149 -0.0141 -0.6614
 6348TIP3   OH240458   2.976   4.895  14.687  0.3014 -0.0668 -0.8327
 6348TIP3    H140459   2.904   4.833  14.695 -0.6376  1.1262  0.6180
 6348TIP3    H240460   3.054   4.845  14.713 -0.1961 -1.0096 -1.1122
 6349TIP3   OH240461   0.170   1.491   1.696  0.4257 -0.0661 -0.1905
 6349TIP3    H140462   0.234   1.550   1.735  1.1055 -2.7408  3.2103
 6349TIP3    H240463   0.086   1.536   1.707  1.2517  1.8348 -1.2438
 6350TIP3   OH240464   2.396   5.077  15.515  0.4674  0.0325  0.6388
 6350TIP3    H140465   2.405   5.087  15.609 -1.5437 -0.9182  0.9851
 6350TIP3    H240466   2.399   4.983  15.499  0.5470  0.1661 -0.2190
 6351TIP3   OH240467   0.918   0.795   7.002 -0.1722  0.0097  0.0101
 6351TIP3    H140468   0.921   0.699   7.000 -0.4105 -0.0223  0.9360
 6351TIP3    H240469   1.002   0.822   6.965  0.4979 -0.5749  1.0526
 6352TIP3   OH240470   3.234   3.420   0.927 -0.3126 -0.1609  0.8005
 6352TIP3    H140471   3.218   3.343   0.982  1.5606 -0.8366  0.4817
 6352TIP3    H240472   3.296   3.389   0.861  0.0766  1.4986  0.3525
 6353TIP3   OH240473   2.030   3.857  14.784 -0.2705 -0.1730  0.3656
 6353TIP3    H140474   2.117   3.876  14.750 -0.4165 -1.0423 -0.5438
 6353TIP3    H240475   2.000   3.941  14.820  0.2383  0.6146 -0.9380
 6354TIP3   OH240476   5.031   0.834   5.361 -1.2198  0.1178 -0.1220
 6354TIP3    H140477   5.053   0.889   5.286 -2.3273 -2.6414 -2.6591
 6354TIP3    H240478   4.946   0.867   5.391 -0.5016  1.6101  0.3875
 6355TIP3   OH240479   1.133   0.139  16.958  0.1205  0.0935 -0.3894
 6355TIP3    H140480   1.085   0.220  16.974 -0.0937 -0.3799  1.6677
 6355TIP3    H240481   1.068   0.079  16.920  0.0275  0.5487 -0.9669
 6356TIP3   OH240482   4.489   0.216   3.992  0.4333 -0.2904 -0.7332
 6356TIP3    H140483   4.519   0.135   3.951  0.2960 -1.0883  0.6905
 6356TIP3    H240484   4.407   0.236   3.948 -0.2803 -1.7475 -0.1253
 6357TIP3   OH240485   2.964   2.820  11.740  0.2084  0.2070 -0.5333
 6357TIP3    H140486   2.886   2.857  11.780 -0.6106 -0.9384 -1.0276
 6357TIP3    H240487   2.936   2.791  11.653  0.7428 -1.7354 -0.1102
 6358TIP3   OH240488   0.708   5.390   5.031  0.0226 -0.2416 -0.6660
 6358TIP3    H140489   0.650   5.452   5.076  0.7229 -0.2659  0.2898
 6358TIP3    H240490   0.795   5.428   5.038  0.3938 -1.0951 -0.4962
 6359TIP3   OH240491   5.629   4.362  12.414 -0.0483  0.7471  0.0783
 6359TIP3    H140492   5.682   4.361  12.494 -0.7556  0.2228  0.5643
 6359TIP3    H240493   5.659   4.438  12.365 -0.3743  1.7645  1.3934
 6360TIP3   OH240494   3.570   3.937  16.415 -0.2483 -0.0324  0.5958
 6360TIP3    H140495   3.524   3.926  16.498  0.4833  1.4518  1.2290
 6360TIP3    H240496   3.641   3.873  16.418 -0.0913  0.1711  1.2121
 6361TIP3   OH240497   1.881   2.794  17.269  0.5448  0.0367  0.6019
 6361TIP3    H140498   1.853   2.839  17.349 -0.4758  0.6765 -0.0946
 6361TIP3    H240499   1.907   2.707  17.299  1.6036  0.7481  1.8256
 6362TIP3   OH240500   3.668   4.072   0.960 -0.3102  0.0505 -0.0262
 6362TIP3    H140501   3.703   4.139   0.900  0.7120  0.6623  1.1955
 6362TIP3    H240502   3.628   4.122   1.031  0.1370 -0.6334  0.7248
 6363TIP3   OH240503   1.239   1.860  15.573  0.6340 -0.2930 -0.4430
 6363TIP3    H140504   1.304   1.877  15.505 -0.5483  0.7819 -1.3228
 6363TIP3    H240505   1.233   1.764  15.576  1.2581 -0.3743 -1.3070
 6364TIP3   OH240506   1.222   6.105  14.746 -0.4477  1.0094 -0.2821
 6364TIP3    H140507   1.188   6.065  14.666  0.5901 -0.6693  0.0786
 6364TIP3    H240508   1.316   6.117  14.729  0.3727 -1.8701  1.5695
 6365TIP3   OH240509   1.757   4.811   3.907  0.4906 -0.0730  0.0121
 6365TIP3    H140510   1.707   4.886   3.938  2.0790  0.9732  0.1695
 6365TIP3    H240511   1.784   4.835   3.818  0.0456 -0.9579 -0.3692
 6366TIP3   OH240512   4.716   1.208   1.656 -0.2683 -0.1399 -0.3069
 6366TIP3    H140513   4.734   1.125   1.700  0.0273 -0.9365 -1.8747
 6366TIP3    H240514   4.803   1.241   1.632 -0.5221 -0.9250 -2.4164
 6367TIP3   OH240515   2.473   3.502   0.492 -0.0395 -0.1793  0.0615
 6367TIP3    H140516   2.471   3.549   0.409  0.0307  1.9837  1.2273
 6367TIP3    H240517   2.462   3.410   0.467 -2.7963  0.5843 -2.1757
 6368TIP3   OH240518   3.065   2.164  14.977  0.0196  0.3021 -0.0545
 6368TIP3    H140519   3.067   2.118  15.061  1.0654 -1.1167 -0.8137
 6368TIP3    H240520   3.149   2.142  14.936  0.7504  3.2056 -0.3277
 6369TIP3   OH240521   1.397   2.521   4.114  0.4340 -0.5521 -0.1110
 6369TIP3    H140522   1.377   2.444   4.060 -0.9129 -1.2862  1.3161
 6369TIP3    H240523   1.319   2.577   4.105  0.5280 -0.3266  0.4420
 6370TIP3   OH240524   6.547   2.096  15.979  0.3325 -0.5428  0.2531
 6370TIP3    H140525   6.590   2.143  16.050 -1.7309  1.2586  0.4291
 6370TIP3    H240526   6.517   2.165  15.920 -0.3337 -1.8382 -0.9665
 6371TIP3   OH240527   1.784   2.318   3.908 -0.0887  0.8721  0.3033
 6371TIP3    H140528   1.695   2.349   3.890  0.2513  1.4867 -0.3459
 6371TIP3    H240529   1.771   2.233   3.951 -0.9852  0.1486 -1.2802
 6372TIP3   OH240530   0.990   5.660  11.362 -0.3582 -0.0902 -0.0393
 6372TIP3    H140531   1.006   5.673  11.268  0.5277  0.1161  0.1250
 6372TIP3    H240532   1.078   5.663  11.401 -0.2035 -4.1190  0.3382
 6373TIP3   OH240533   5.621   1.225   6.376  0.0818 -0.1297  0.2588
 6373TIP3    H140534   5.631   1.142   6.328 -0.7853 -0.6347  0.9104
 6373TIP3    H240535   5.704   1.235   6.424  0.0879 -0.7823  0.4026
 6374TIP3   OH240536   1.064   3.876   4.416 -0.4626  0.2592 -0.4353
 6374TIP3    H140537   1.120   3.952   4.403 -0.8875  1.0672  1.9184
 6374TIP3    H240538   1.108   3.825   4.483 -1.1224 -0.5907 -0.6236
 6375TIP3   OH240539   4.801   1.875   1.934 -0.3762  0.3354  0.5530
 6375TIP3    H140540   4.799   1.788   1.894  2.6619 -0.5762  2.1259
 6375TIP3    H240541   4.710   1.890   1.962 -1.0683 -2.1352 -0.1090
 6376TIP3   OH240542   3.877   3.555  12.669 -0.5523  0.1967  0.5044
 6376TIP3    H140543   3.908   3.643  12.692 -2.8219  1.1633  0.1830
 6376TIP3    H240544   3.934   3.496  12.717  0.4533  1.8722  1.4870
 6377TIP3   OH240545   1.617   5.284   6.017 -0.8711  0.6075  0.7846
 6377TIP3    H140546   1.528   5.309   5.992 -0.5704  1.5516  0.5900
 6377TIP3    H240547   1.614   5.189   6.026 -1.5239  0.4503 -0.7657
 6378TIP3   OH240548   0.565   1.959   4.868 -0.2733 -0.7148 -0.0879
 6378TIP3    H140549   0.547   2.046   4.832  0.8583  0.8064  2.7299
 6378TIP3    H240550   0.484   1.933   4.911 -0.6029 -1.1062 -0.9084
 6379TIP3   OH240551   5.353   0.180  11.386  0.5667  0.1044 -0.2751
 6379TIP3    H140552   5.268   0.171  11.344  1.7972  0.5680 -3.0576
 6379TIP3    H240553   5.414   0.140  11.325  2.5889  1.5510  0.6963
 6380TIP3   OH240554   6.246   0.381  14.845 -0.3855  0.3963 -0.6860
 6380TIP3    H140555   6.213   0.383  14.755 -0.0937  1.3586 -0.7853
 6380TIP3    H240556   6.214   0.463  14.883  1.3956  1.1041 -0.6210
 6381TIP3   OH240557   2.033   0.258   4.140 -0.5177 -0.2260  0.1814
 6381TIP3    H140558   1.960   0.208   4.177 -0.4001 -0.8889 -0.4524
 6381TIP3    H240559   1.990   0.330   4.092 -0.7228 -0.1692  0.4482
 6382TIP3   OH240560   2.821   1.606   6.128  0.0587  0.7104 -0.7254
 6382TIP3    H140561   2.766   1.628   6.203  0.3782 -0.3749 -0.1522
 6382TIP3    H240562   2.893   1.670   6.132  0.5770  0.0895  0.4732
 6383TIP3   OH240563   5.232   0.154  16.222  0.2481 -0.4315  0.2600
 6383TIP3    H140564   5.279   0.081  16.181  1.1670  0.2391  0.0890
 6383TIP3    H240565   5.294   0.227  16.219 -0.8749  0.5307 -0.1317
 6384TIP3   OH240566   2.977   5.253  16.439 -0.1975 -0.0785 -0.3048
 6384TIP3    H140567   2.907   5.205  16.393 -0.9928  1.1938 -0.4638
 6384TIP3    H240568   3.058   5.221  16.399 -0.5607 -2.5119  0.7357
 6385TIP3   OH240569   6.154   3.982   3.231 -0.2650  0.0798  0.1070
 6385TIP3    H140570   6.078   3.931   3.203  0.0746  0.6362 -1.9142
 6385TIP3    H240571   6.137   4.071   3.200  0.9182  0.3573  0.2214
 6386TIP3   OH240572   1.535   6.580  12.824 -1.0480  0.3417 -0.2142
 6386TIP3    H140573   1.593   6.503  12.821 -3.9258 -1.9836 -2.4545
 6386TIP3    H240574   1.590   6.652  12.793  1.5858 -0.8638  1.2751
 6387TIP3   OH240575   5.556   6.765  16.307  0.3935 -0.4203 -0.2016
 6387TIP3    H140576   5.615   6.813  16.248  0.3616  0.3777  0.3986
 6387TIP3    H240577   5.470   6.774  16.266  0.4876 -0.5074 -0.4236
 6388TIP3   OH240578   2.449   5.888  11.414  0.1409 -0.5180 -0.2985
 6388TIP3    H140579   2.497   5.971  11.420  0.5609 -0.8236  1.0264
 6388TIP3    H240580   2.357   5.914  11.420  0.2271 -0.0804 -0.8238
 6389TIP3   OH240581   2.529   2.331  17.082 -0.3182 -0.4860  0.5483
 6389TIP3    H140582   2.512   2.295  17.169  0.6626 -0.6197  0.6931
 6389TIP3    H240583   2.518   2.426  17.094 -0.4475 -0.5240  0.7460
 6390TIP3   OH240584   3.239   3.463   3.736  0.0576  0.0492 -0.3587
 6390TIP3    H140585   3.229   3.398   3.666  0.2256 -1.4651  0.9760
 6390TIP3    H240586   3.149   3.488   3.758 -0.0326 -0.0779 -0.5763
 6391TIP3   OH240587   1.567   5.484  11.984 -0.5424 -0.4346 -0.4104
 6391TIP3    H140588   1.515   5.542  11.928 -0.4175  0.6985  0.6143
 6391TIP3    H240589   1.630   5.542  12.027 -0.5207 -1.2948  0.7789
 6392TIP3   OH240590   4.785   6.028   1.877  0.1100 -0.2648 -0.6687
 6392TIP3    H140591   4.867   6.076   1.863  2.1983 -3.5805 -0.8657
 6392TIP3    H240592   4.758   6.001   1.789 -2.4780  2.4402 -0.8717
 6393TIP3   OH240593   4.246   0.325  12.548 -0.3043  0.2791 -0.1345
 6393TIP3    H140594   4.237   0.398  12.609 -1.1464  2.6801 -2.9382
 6393TIP3    H240595   4.186   0.346  12.476  0.2800 -2.6242 -1.6038
 6394TIP3   OH240596   4.785   6.067   0.615 -0.4980  0.1749  0.6066
 6394TIP3    H140597   4.765   6.157   0.588 -0.3343 -0.0882 -0.4360
 6394TIP3    H240598   4.701   6.032   0.646 -1.0264  0.0537 -0.8877
 6395TIP3   OH240599   2.641   0.524   0.239 -0.0231  0.5841 -0.1229
 6395TIP3    H140600   2.599   0.589   0.183 -1.4051 -0.0941  0.1001
 6395TIP3    H240601   2.717   0.495   0.188 -0.4746  0.9708 -1.0494
 6396TIP3   OH240602   0.951   3.711  15.056  0.3461  0.3273  0.0651
 6396TIP3    H140603   1.000   3.659  15.120  2.4847  2.7941  0.5925
 6396TIP3    H240604   0.943   3.654  14.979 -0.7772 -2.0815  1.8265
 6397TIP3   OH240605   2.011   2.522  16.465  0.7435  0.1878 -0.3610
 6397TIP3    H140606   2.048   2.526  16.377  1.4857  1.7526 -0.0016
 6397TIP3    H240607   1.949   2.449  16.461  2.9276 -1.7931 -1.3443
 6398TIP3   OH240608   2.946   5.495   6.462 -0.3387  0.2452  0.3169
 6398TIP3    H140609   2.956   5.519   6.554  1.6600  1.5679 -0.1987
 6398TIP3    H240610   3.028   5.450   6.440 -1.2346 -1.0259 -0.5614
 6399TIP3   OH240611   1.823   0.099  11.936 -0.3241 -0.2744 -0.8909
 6399TIP3    H140612   1.765   0.051  11.877 -2.7312  1.3767  0.0205
 6399TIP3    H240613   1.809   0.060  12.022  0.3706 -0.2093 -0.7366
 6400TIP3   OH240614   2.744   2.380  16.235 -1.0269  0.7328 -0.1131
 6400TIP3    H140615   2.686   2.313  16.273 -1.8847  1.2015 -0.5681
 6400TIP3    H240616   2.833   2.348  16.253 -1.3929 -1.2043 -1.4178
 6401TIP3   OH240617   6.584   0.661   2.620 -0.0613  0.6140 -0.4562
 6401TIP3    H140618   6.628   0.746   2.620 -0.4058  0.8277  1.0673
 6401TIP3    H240619   6.494   0.680   2.592 -0.2593  0.8451  0.3026
 6402TIP3   OH240620   0.068   5.154   5.183 -0.2421  0.2772  0.3010
 6402TIP3    H140621  -0.007   5.125   5.234  0.3663  0.8989  1.6033
 6402TIP3    H240622   0.068   5.249   5.192  1.2722  0.2395  1.2343
 6403TIP3   OH240623   6.771   2.924  14.944 -0.6323 -0.9042 -0.1364
 6403TIP3    H140624   6.776   3.017  14.969  1.9551 -1.3669  1.4117
 6403TIP3    H240625   6.811   2.920  14.857 -1.0241 -0.5372 -0.3359
 6404TIP3   OH240626   4.886   0.031  16.224 -0.2381  0.1785 -0.2860
 6404TIP3    H140627   4.900  -0.036  16.157 -1.4975  0.4894 -0.8844
 6404TIP3    H240628   4.791   0.040  16.230 -0.1264  0.6277  1.0830
 6405TIP3   OH240629   6.371   6.509   2.516  0.4050  0.2593 -0.3946
 6405TIP3    H140630   6.311   6.563   2.465 -0.5393 -0.1478  0.2606
 6405TIP3    H240631   6.458   6.544   2.496 -0.2596  3.6517  1.8715
 6406TIP3   OH240632   6.369   1.975   1.776  0.5357 -0.0392 -0.4941
 6406TIP3    H140633   6.462   1.953   1.785  0.2368 -1.0139  0.4021
 6406TIP3    H240634   6.369   2.059   1.730  1.8735  0.1860 -0.1299
 6407TIP3   OH240635   4.744   4.501  16.182  0.2109  0.0582 -0.6405
 6407TIP3    H140636   4.732   4.533  16.092  0.9752  0.5817 -0.5652
 6407TIP3    H240637   4.661   4.521  16.225 -0.4047 -0.7976 -1.4003
 6408TIP3   OH240638   4.283   2.439   6.109  0.2016  0.3853  0.1267
 6408TIP3    H140639   4.252   2.407   6.194  0.6977  0.1786  0.2308
 6408TIP3    H240640   4.271   2.534   6.114  1.2392  0.5049  0.8572
 6409TIP3   OH240641   6.760   3.991   5.473  0.6026 -0.0429  0.1430
 6409TIP3    H140642   6.687   3.957   5.526  0.7929 -0.8577 -0.1079
 6409TIP3    H240643   6.832   4.000   5.536 -0.2174  2.6100  0.8177
 6410TIP3   OH240644   0.639   1.076   0.080  0.3898  0.0484 -0.7794
 6410TIP3    H140645   0.706   1.031   0.029 -0.9500  1.2537 -3.7933
 6410TIP3    H240646   0.559   1.024   0.066  0.1787 -0.1773  1.0217
 6411TIP3   OH240647   6.662   2.880   3.268 -0.0311  0.1370 -0.2807
 6411TIP3    H140648   6.665   2.935   3.346  1.5324  0.0463 -0.2327
 6411TIP3    H240649   6.601   2.810   3.289 -0.9588  1.0551  0.1930
 6412TIP3   OH240650   4.872   4.721   3.311  0.6174  0.5033  0.0745
 6412TIP3    H140651   4.877   4.636   3.266  0.3682  1.4284 -1.7705
 6412TIP3    H240652   4.866   4.698   3.404  0.7222 -1.4952 -0.3687
 6413TIP3   OH240653   0.950   0.893  11.431 -0.6981  0.0188 -0.0996
 6413TIP3    H140654   0.946   0.985  11.458  1.0911  0.5596 -1.4531
 6413TIP3    H240655   1.040   0.866  11.452 -0.4380 -0.6467 -1.9116
 6414TIP3   OH240656   4.290   0.204   2.191 -0.1574 -0.3408  0.0573
 6414TIP3    H140657   4.200   0.192   2.160 -0.3984  1.0772  0.1254
 6414TIP3    H240658   4.314   0.291   2.161  1.0530 -0.5406  0.4071
 6415TIP3   OH240659   3.235   2.191   5.836  0.1165  0.0431 -0.0966
 6415TIP3    H140660   3.300   2.130   5.870 -0.4666 -0.7475 -0.3693
 6415TIP3    H240661   3.180   2.213   5.911 -0.1250 -0.3541 -0.1558
 6416TIP3   OH240662   4.370   2.891   5.177 -0.0798  0.1237  1.2062
 6416TIP3    H140663   4.288   2.876   5.224 -1.5496  1.6568 -0.6821
 6416TIP3    H240664   4.416   2.957   5.230 -0.8466  0.4740  1.4512
 6417TIP3   OH240665   1.315   4.922  16.398 -0.2938  0.0964  0.2114
 6417TIP3    H140666   1.272   5.003  16.370 -1.2020 -0.8321 -1.2182
 6417TIP3    H240667   1.408   4.937  16.381 -0.6653  0.0419 -2.3155
 6418TIP3   OH240668   3.476   3.207  15.846  0.3393 -0.7498  0.0893
 6418TIP3    H140669   3.475   3.129  15.791 -0.2755 -0.4419 -0.3451
 6418TIP3    H240670   3.521   3.180  15.926  0.6022 -1.3970 -0.2738
 6419TIP3   OH240671   1.895   4.662   2.721  0.0241  0.3206  0.4131
 6419TIP3    H140672   1.972   4.634   2.672 -0.3264 -0.5664  0.3483
 6419TIP3    H240673   1.906   4.623   2.808 -1.4538 -1.8583 -0.2778
 6420TIP3   OH240674   4.769   3.488  10.586  0.2120 -0.2400  0.3430
 6420TIP3    H140675   4.778   3.556  10.652 -1.9429 -0.3479  0.8326
 6420TIP3    H240676   4.858   3.464  10.563  1.0030  1.5935  1.3475
 6421TIP3   OH240677   5.281   4.942   4.650  0.1746  0.2845 -0.6254
 6421TIP3    H140678   5.232   4.971   4.573  0.2070  0.5702 -0.5408
 6421TIP3    H240679   5.215   4.933   4.719 -0.0140 -0.9617 -0.9413
 6422TIP3   OH240680   1.189   6.454   0.897  1.3123 -0.1384 -0.6477
 6422TIP3    H140681   1.178   6.402   0.818  0.0864 -0.1152 -0.5163
 6422TIP3    H240682   1.280   6.439   0.923  1.4160 -1.0180 -1.4416
 6423TIP3   OH240683   4.562   4.794  11.221 -0.2854 -0.1013  0.4665
 6423TIP3    H140684   4.644   4.780  11.173 -1.1970 -0.8224 -0.9534
 6423TIP3    H240685   4.517   4.710  11.216 -2.5654  1.0864 -1.6969
 6424TIP3   OH240686   6.382   2.295  12.303 -0.0952  0.1237 -0.6105
 6424TIP3    H140687   6.329   2.218  12.320 -1.9844  1.2715 -0.9862
 6424TIP3    H240688   6.338   2.366  12.350 -0.1191  1.5226 -2.5820
 6425TIP3   OH240689   0.661   5.688  17.012  0.2552 -0.7889 -0.0276
 6425TIP3    H140690   0.602   5.618  16.984 -0.3999 -0.0791 -0.4556
 6425TIP3    H240691   0.741   5.674  16.961  0.5165 -1.8144  0.6310
 6426TIP3   OH240692   4.362   5.232   4.418  0.4724 -0.2482  0.4445
 6426TIP3    H140693   4.422   5.303   4.438  0.6814 -0.4715  0.6279
 6426TIP3    H240694   4.291   5.242   4.482  0.5866 -0.3051  0.5806
 6427TIP3   OH240695   1.104   4.925   3.193  0.0461  0.0865 -0.0020
 6427TIP3    H140696   1.091   4.949   3.101  0.2599  2.9131  0.6236
 6427TIP3    H240697   1.068   4.836   3.199 -1.3335  0.3648 -2.4905
 6428TIP3   OH240698   5.489   3.326  12.002 -0.0885 -0.0930  0.1262
 6428TIP3    H140699   5.562   3.318  12.064  0.1354  0.3185 -0.0771
 6428TIP3    H240700   5.448   3.240  12.002  0.1123 -0.1947  0.5973
 6429TIP3   OH240701   6.009   6.108  14.660 -0.1499  0.4685  0.2426
 6429TIP3    H140702   5.941   6.051  14.695  0.1269  0.5038  0.8596
 6429TIP3    H240703   6.053   6.055  14.593  0.0443 -0.0125  0.7448
 6430TIP3   OH240704   4.528   4.393  12.918 -0.3297 -0.4614  0.0984
 6430TIP3    H140705   4.493   4.321  12.971 -0.1237  1.3425  2.8557
 6430TIP3    H240706   4.465   4.402  12.846 -2.7665 -0.5950  2.0975
 6431TIP3   OH240707   4.852   3.976  13.357  0.3597  0.2522 -0.1449
 6431TIP3    H140708   4.893   3.989  13.272  0.4485  1.2932  0.0405
 6431TIP3    H240709   4.768   4.023  13.350 -0.4791 -1.2183 -0.2731
 6432TIP3   OH240710   4.014   1.947   1.459  0.2107  0.2770 -0.9703
 6432TIP3    H140711   3.918   1.941   1.465  0.1922  1.8330  1.5573
 6432TIP3    H240712   4.044   1.858   1.476 -0.7419 -0.2406 -1.8255
 6433TIP3   OH240713   3.721   6.144   3.545 -0.5188  0.1606 -0.7380
 6433TIP3    H140714   3.793   6.092   3.511  0.8884  1.2714  0.4361
 6433TIP3    H240715   3.763   6.215   3.594 -2.3403 -1.0086  2.8607
 6434TIP3   OH240716   1.094   4.558   5.384  0.3617  0.2112 -0.1983
 6434TIP3    H140717   1.167   4.565   5.446  2.1227  0.3241 -2.1438
 6434TIP3    H240718   1.071   4.465   5.384  1.5190 -0.0954 -0.5830
 6435TIP3   OH240719   1.372   2.329  12.317 -0.4143  0.1275 -0.0395
 6435TIP3    H140720   1.436   2.385  12.361 -1.8714  1.4544  0.5059
 6435TIP3    H240721   1.295   2.330  12.375 -1.3624 -0.4210 -1.2335
 6436TIP3   OH240722   1.970   1.737   1.705  1.3624 -0.7170  0.0624
 6436TIP3    H140723   2.056   1.721   1.746  2.1269 -0.9345 -1.5457
 6436TIP3    H240724   1.958   1.831   1.711  0.6661 -0.8904  2.2392
 6437TIP3   OH240725   1.317   3.165  17.067  0.8852  0.5061 -0.0063
 6437TIP3    H140726   1.322   3.105  16.993  0.2907  1.3834 -0.7709
 6437TIP3    H240727   1.270   3.241  17.034 -0.7262  0.3143  1.6737
 6438TIP3   OH240728   4.691   2.760  16.585 -0.5479  0.0205 -0.4771
 6438TIP3    H140729   4.649   2.846  16.583 -2.9191 -1.0432  0.6516
 6438TIP3    H240730   4.782   2.779  16.609 -0.4844  2.3451 -2.2626
 6439TIP3   OH240731   1.703   5.102  13.982  0.0303  0.4499  0.1720
 6439TIP3    H140732   1.726   5.193  14.000  2.9665 -0.5009  1.8949
 6439TIP3    H240733   1.785   5.054  13.992 -1.0498 -2.2352 -2.3261
 6440TIP3   OH240734   6.580   4.499   4.934  0.0291  0.0397  0.6285
 6440TIP3    H140735   6.548   4.425   4.881  0.6292  0.0907  0.1813
 6440TIP3    H240736   6.654   4.533   4.884  0.2051  0.4932  1.1952
 6441TIP3   OH240737   4.852   2.301  17.290  0.6122 -0.0464  0.0577
 6441TIP3    H140738   4.836   2.222  17.342  2.5455 -1.6596 -1.6289
 6441TIP3    H240739   4.765   2.330  17.263 -0.1985 -1.0930  1.4120
 6442TIP3   OH240740   2.700   3.173  14.269 -0.0240 -0.4466  0.1967
 6442TIP3    H140741   2.620   3.164  14.322  0.2066 -1.2485  0.4312
 6442TIP3    H240742   2.669   3.206  14.185 -0.1227  3.3929  1.5691
 6443TIP3   OH240743   1.586   6.365  14.405  0.7595 -0.1060  0.5450
 6443TIP3    H140744   1.499   6.372  14.444  1.0842  0.5172  1.1833
 6443TIP3    H240745   1.617   6.456  14.399  0.3202 -0.0368 -2.1376
 6444TIP3   OH240746   2.795   5.239   2.715  0.1147 -0.4849 -0.0775
 6444TIP3    H140747   2.789   5.251   2.809 -0.4908  1.8709 -0.3513
 6444TIP3    H240748   2.888   5.241   2.695  0.2098  2.6046  0.1803
 6445TIP3   OH240749   6.178   2.304  15.425  0.2590  0.2678  0.4045
 6445TIP3    H140750   6.113   2.268  15.486 -0.4662  0.8584  0.0057
 6445TIP3    H240751   6.253   2.246  15.432 -0.4793 -0.6851  0.5691
 6446TIP3   OH240752   4.443   2.333  16.927  0.0874  0.1990 -0.2324
 6446TIP3    H140753   4.536   2.325  16.907  0.1237 -0.7716  0.2868
 6446TIP3    H240754   4.435   2.308  17.019 -0.8745 -1.2911 -0.6735
 6447TIP3   OH240755   3.641   3.572  15.133  0.6947  0.3914  0.2735
 6447TIP3    H140756   3.579   3.506  15.164  2.2425 -0.7723  1.0366
 6447TIP3    H240757   3.592   3.620  15.066 -1.1642 -0.1664  1.1358
 6448TIP3   OH240758   1.576   4.485   3.795  0.2416  0.2552  0.1565
 6448TIP3    H140759   1.567   4.390   3.797  0.1629  0.2736  1.1603
 6448TIP3    H240760   1.527   4.513   3.717 -1.2110 -0.3684  0.8258
 6449TIP3   OH240761   6.197   2.529   3.535 -0.3437 -0.0548 -0.7703
 6449TIP3    H140762   6.115   2.481   3.545 -0.4148  0.3936  1.4056
 6449TIP3    H240763   6.245   2.482   3.467 -1.6522 -1.3855 -0.8231
 6450TIP3   OH240764   0.995   5.796   6.354 -0.8724 -0.3730  0.7660
 6450TIP3    H140765   1.069   5.849   6.325 -2.4158  1.1264 -0.6942
 6450TIP3    H240766   1.027   5.749   6.431  1.1060  1.3651  1.0844
 6451TIP3   OH240767   4.599   3.052  15.136  0.4111  0.2055  0.2609
 6451TIP3    H140768   4.584   3.092  15.222  1.6016  0.9069  0.1650
 6451TIP3    H240769   4.594   3.126  15.075  1.0729 -0.0453 -0.0990
 6452TIP3   OH240770   1.775   1.904  14.341  0.2397 -0.2368  0.1797
 6452TIP3    H140771   1.728   1.881  14.261 -1.2892 -0.4041  1.0696
 6452TIP3    H240772   1.864   1.873  14.327 -0.1218 -0.6873 -1.2679
 6453TIP3   OH240773   6.334   5.906  16.831  0.2889 -0.1001  0.7836
 6453TIP3    H140774   6.256   5.908  16.885 -0.6314 -0.7652 -0.4630
 6453TIP3    H240775   6.352   5.998  16.810 -1.0626 -0.0115 -0.1307
 6454TIP3   OH240776   1.350   0.945   0.964 -0.2975  0.4403 -0.1434
 6454TIP3    H140777   1.367   1.016   0.902  0.7801  0.9655  0.7272
 6454TIP3    H240778   1.301   0.986   1.035  0.1526  0.2642  0.2699
 6455TIP3   OH240779   5.773   3.144  15.562  0.3344 -0.2685  0.3521
 6455TIP3    H140780   5.727   3.143  15.646 -1.0158 -0.9848 -0.3455
 6455TIP3    H240781   5.720   3.202  15.507 -1.0312 -2.7128 -1.0962
 6456TIP3   OH240782   1.997   5.207   5.620  0.3224 -0.0720 -0.2260
 6456TIP3    H140783   1.991   5.252   5.704  2.4968  0.2827 -0.1983
 6456TIP3    H240784   2.039   5.124   5.640  2.5629  0.7565 -1.1153
 6457TIP3   OH240785   1.478   6.715   4.323  0.6666  0.5120 -0.0862
 6457TIP3    H140786   1.458   6.629   4.288  0.0002  0.8966 -0.6848
 6457TIP3    H240787   1.495   6.769   4.246  1.4576  0.8319  0.2983
 6458TIP3   OH240788   6.541   0.671   3.625 -0.6653  0.5362 -0.3921
 6458TIP3    H140789   6.571   0.749   3.673 -0.9460  0.9624 -0.9035
 6458TIP3    H240790   6.610   0.654   3.561 -1.0373  0.9108 -0.8916
 6459TIP3   OH240791   5.848   3.824  12.702 -0.5324 -0.4046  0.0166
 6459TIP3    H140792   5.820   3.911  12.732 -0.9071 -0.3444 -0.4933
 6459TIP3    H240793   5.841   3.769  12.780 -0.7148 -0.0694  0.2410
 6460TIP3   OH240794   4.620   0.867   6.207  0.0029 -0.9421  0.2167
 6460TIP3    H140795   4.592   0.775   6.207  0.6764 -1.1586  1.2659
 6460TIP3    H240796   4.706   0.866   6.165  0.5695 -0.9884  1.3408
 6461TIP3   OH240797   6.465   1.231  10.889  0.0389 -0.0017  0.2518
 6461TIP3    H140798   6.483   1.266  10.976  1.3755 -1.4935  0.6136
 6461TIP3    H240799   6.377   1.192  10.896  0.6023 -1.1558  1.3145
 6462TIP3   OH240800   0.715   2.219  12.801  0.1030  0.1665  0.6067
 6462TIP3    H140801   0.729   2.150  12.735 -0.1457  0.4550  0.2467
 6462TIP3    H240802   0.720   2.173  12.885 -0.4889 -0.3699  0.3582
 6463TIP3   OH240803   0.006   3.715  16.288 -0.4094 -0.0929  1.0179
 6463TIP3    H140804   0.004   3.691  16.381  1.1408 -2.0846  0.6082
 6463TIP3    H240805   0.092   3.756  16.276 -0.0712 -1.0023  0.2383
 6464TIP3   OH240806   4.327   0.643  16.259 -0.0581 -0.1152  0.2490
 6464TIP3    H140807   4.325   0.563  16.311 -2.5265  0.7307  1.6107
 6464TIP3    H240808   4.237   0.652  16.226  0.3034  1.8114 -0.3003
 6465TIP3   OH240809   3.183   0.700   4.066  0.1127 -0.4158 -0.3538
 6465TIP3    H140810   3.190   0.692   3.971  2.3462  1.7174 -0.4820
 6465TIP3    H240811   3.106   0.755   4.080  1.2055  1.4519 -1.1859
 6466TIP3   OH240812   5.007   5.534  11.379 -0.5539 -0.6452 -0.3432
 6466TIP3    H140813   4.988   5.471  11.309  0.3307  0.4654 -1.6521
 6466TIP3    H240814   4.988   5.619  11.340  0.1263  0.0183  0.7192
 6467TIP3   OH240815   6.595   0.777   1.553  0.5495 -1.0105  0.0459
 6467TIP3    H140816   6.576   0.870   1.547 -1.4331 -1.3904 -0.0301
 6467TIP3    H240817   6.618   0.751   1.463  1.3596 -0.5658  0.1165
 6468TIP3   OH240818   5.364   5.495   2.169  0.3961  0.3446  0.2316
 6468TIP3    H140819   5.322   5.561   2.115  1.5059  0.7390 -0.1933
 6468TIP3    H240820   5.351   5.525   2.259 -0.6466  0.1815  0.1463
 6469TIP3   OH240821   3.799   0.287  14.996  0.1987 -0.2229 -0.0101
 6469TIP3    H140822   3.858   0.319  15.064 -0.4857  0.7870  0.1259
 6469TIP3    H240823   3.714   0.282  15.038 -0.7022  2.4624 -1.2723
 6470TIP3   OH240824   5.931   5.122  14.289 -0.1340  0.6232 -0.0114
 6470TIP3    H140825   5.930   5.061  14.363  2.5452 -0.6035 -0.8599
 6470TIP3    H240826   5.897   5.072  14.216 -1.5512  1.4220  0.0775
 6471TIP3   OH240827   0.824   2.688   3.673 -0.2603  0.0023 -0.3108
 6471TIP3    H140828   0.795   2.638   3.597 -2.1382  0.0712  0.2913
 6471TIP3    H240829   0.802   2.779   3.652 -1.1954 -0.0242  0.4277
 6472TIP3   OH240830   4.798   4.180   4.560  0.6508  0.2894  0.5982
 6472TIP3    H140831   4.790   4.105   4.501 -0.0147  0.5284  0.3798
 6472TIP3    H240832   4.883   4.168   4.602 -0.3290 -1.8085  2.2147
 6473TIP3   OH240833   2.287   5.049  17.290 -0.3548 -0.0992  0.1118
 6473TIP3    H140834   2.242   4.977  17.334  1.3307 -0.0111  2.1551
 6473TIP3    H240835   2.345   5.005  17.227 -0.6349 -0.4268  0.0810
 6474TIP3   OH240836   3.440   1.165   3.511  0.2384 -0.1193  0.3741
 6474TIP3    H140837   3.345   1.174   3.507  0.2113 -0.5903 -0.0995
 6474TIP3    H240838   3.472   1.255   3.517 -0.2140  0.0742 -0.0091
 6475TIP3   OH240839   4.991   5.226  17.198  0.4622 -0.3598 -0.4657
 6475TIP3    H140840   4.898   5.237  17.216  1.2796  3.6925  3.2931
 6475TIP3    H240841   5.008   5.282  17.122 -0.0906 -0.7234 -0.8573
 6476TIP3   OH240842   5.529   1.874  13.824 -0.0561  0.1370  0.4061
 6476TIP3    H140843   5.522   1.953  13.770  1.0296 -0.8048 -1.2032
 6476TIP3    H240844   5.612   1.883  13.870  0.0023  0.0019  0.3291
 6477TIP3   OH240845   0.107   4.936  15.834 -0.1724 -0.0147  0.5740
 6477TIP3    H140846   0.126   4.899  15.921 -1.3023 -0.6639  0.5682
 6477TIP3    H240847   0.023   4.897  15.810  0.1030  0.2068 -0.7960
 6478TIP3   OH240848   5.247   2.755   2.298  0.4300 -0.0044 -0.2654
 6478TIP3    H140849   5.236   2.844   2.263  0.2660  0.3665  0.6992
 6478TIP3    H240850   5.161   2.733   2.333  1.1152  0.4899  1.8203
 6479TIP3   OH240851   2.152   5.296  15.678 -0.4064  0.3355 -0.0974
 6479TIP3    H140852   2.115   5.277  15.592  2.3005  1.1610 -1.5327
 6479TIP3    H240853   2.213   5.225  15.695  0.5583  1.2186  0.2195
 6480TIP3   OH240854   0.714   3.029  14.994 -0.0961 -0.1105 -0.4255
 6480TIP3    H140855   0.699   2.991  15.080 -1.9184  0.0083 -0.6618
 6480TIP3    H240856   0.739   2.955  14.939 -1.3975 -0.6273 -0.3575
 6481TIP3   OH240857   4.823   1.386  12.825 -0.0723 -0.7332  0.5864
 6481TIP3    H140858   4.885   1.329  12.869 -0.9164 -2.0685  0.1209
 6481TIP3    H240859   4.766   1.418  12.894 -0.3689 -1.4954  0.7120
 6482TIP3   OH240860   2.330   4.030  13.435 -0.6921 -0.0337 -0.2370
 6482TIP3    H140861   2.416   3.989  13.442 -1.7098 -2.1876  0.8128
 6482TIP3    H240862   2.287   4.010  13.518 -1.2707  3.4511  0.4419
 6483TIP3   OH240863   2.690   4.673  12.419 -0.8333 -0.0539  0.7463
 6483TIP3    H140864   2.607   4.717  12.436 -1.2361 -0.5529  0.1353
 6483TIP3    H240865   2.666   4.595  12.368  0.1696  0.7510 -1.0550
 6484TIP3   OH240866   4.248   2.314  12.292 -0.4677  0.5923  0.0826
 6484TIP3    H140867   4.310   2.242  12.305  2.2042  2.2708 -2.2305
 6484TIP3    H240868   4.203   2.293  12.211  1.4755  2.0892 -1.5038
 6485TIP3   OH240869   4.196   5.122   2.280  0.1662  0.4164 -0.7177
 6485TIP3    H140870   4.233   5.204   2.248  0.4537 -0.1195 -1.8058
 6485TIP3    H240871   4.101   5.134   2.273  0.0481  1.7117  1.8759
 6486TIP3   OH240872   2.635   5.238   3.550 -0.0781 -0.5599 -0.1308
 6486TIP3    H140873   2.630   5.332   3.567 -0.2035 -0.5871 -0.0203
 6486TIP3    H240874   2.659   5.199   3.634  0.4662 -0.5817 -0.2860
 6487TIP3   OH240875   3.953   0.754  13.853  0.2578  0.3954 -0.1816
 6487TIP3    H140876   3.951   0.828  13.914  2.0256 -0.7678  1.4209
 6487TIP3    H240877   4.035   0.709  13.873 -0.0151 -1.1318 -2.1681
 6488TIP3   OH240878   3.059   5.356   0.676  0.5620 -0.2165 -0.2776
 6488TIP3    H140879   3.071   5.416   0.602  1.3847  0.7375  0.6090
 6488TIP3    H240880   3.039   5.412   0.750  1.4195 -1.0312  0.5918
 6489TIP3   OH240881   6.144   5.269   0.329  0.4084 -0.1781  0.0080
 6489TIP3    H140882   6.090   5.285   0.406  1.2024 -0.1664  0.5738
 6489TIP3    H240883   6.179   5.356   0.305  0.2000 -0.1873 -0.3407
 6490TIP3   OH240884   4.672   5.005   1.412  0.0397  0.2182  0.8581
 6490TIP3    H140885   4.611   4.974   1.345  0.5314 -0.9267  0.9254
 6490TIP3    H240886   4.621   5.067   1.463 -0.2938  1.2857 -0.6820
 6491TIP3   OH240887   3.496   4.480  17.208  0.4445  0.1326  0.2964
 6491TIP3    H140888   3.434   4.417  17.170 -0.4176  1.3536 -0.3911
 6491TIP3    H240889   3.444   4.558  17.224  1.5504  0.7643  0.9151
 6492TIP3   OH240890   3.258   3.443   1.680  0.6754  0.4393 -0.7749
 6492TIP3    H140891   3.224   3.496   1.751  2.6540  0.0982  0.5144
 6492TIP3    H240892   3.185   3.387   1.654  0.4557 -0.9758  2.4873
 6493TIP3   OH240893   6.348   5.201   5.872 -0.2311 -0.1224  0.0838
 6493TIP3    H140894   6.262   5.174   5.902  0.7770 -2.9868  0.7196
 6493TIP3    H240895   6.383   5.253   5.945 -0.6212 -0.7595  0.7412
 6494TIP3   OH240896   2.047   3.501  13.123 -0.4334  0.1254  0.1045
 6494TIP3    H140897   1.999   3.573  13.165  0.9393  2.0947 -1.4748
 6494TIP3    H240898   2.127   3.492  13.176 -0.1847  0.4130 -0.2157
 6495TIP3   OH240899   2.360   5.438   0.975  0.2806 -0.1727  0.0537
 6495TIP3    H140900   2.319   5.417   0.891 -0.3561  0.4620  0.1951
 6495TIP3    H240901   2.452   5.414   0.964  0.1372 -0.3779 -0.7224
 6496TIP3   OH240902   5.185   4.649  13.745 -0.3098 -0.7636  0.3778
 6496TIP3    H140903   5.095   4.638  13.716 -0.8273  0.6227  1.3523
 6496TIP3    H240904   5.238   4.617  13.671 -1.5765 -0.4158 -0.7289
 6497TIP3   OH240905   1.119   0.796   1.205 -0.6793  0.4584 -0.1886
 6497TIP3    H140906   1.111   0.869   1.144  0.2496  0.8768  0.1657
 6497TIP3    H240907   1.029   0.772   1.227 -1.0034  1.8427  0.0913
 6498TIP3   OH240908   1.413   3.830  10.862  0.3221 -0.0313  0.2657
 6498TIP3    H140909   1.321   3.814  10.839  0.1583  1.2969 -0.0949
 6498TIP3    H240910   1.419   3.807  10.955 -0.3131 -0.3600  0.2325
 6499TIP3   OH240911   6.325   1.651  13.689 -0.6996 -0.4479  0.0371
 6499TIP3    H140912   6.358   1.576  13.639  0.4875  0.2506 -0.2749
 6499TIP3    H240913   6.392   1.719  13.678 -2.0615  0.9141 -0.2623
 6500TIP3   OH240914   3.071   3.792   1.605  0.1708 -0.0405  0.2493
 6500TIP3    H140915   3.138   3.861   1.611 -0.7458  1.3036 -2.7161
 6500TIP3    H240916   3.045   3.793   1.513 -2.7986 -1.6183  0.9560
 6501TIP3   OH240917   3.203   1.435  13.942  0.1077 -0.3983 -0.1998
 6501TIP3    H140918   3.226   1.349  13.906  1.5311  0.8279 -2.5056
 6501TIP3    H240919   3.266   1.450  14.013  1.0909 -0.5450 -1.0108
 6502TIP3   OH240920   0.385   1.943   4.147  1.0697 -0.6229  0.3285
 6502TIP3    H140921   0.410   1.958   4.238 -0.1576  0.0460  0.5782
 6502TIP3    H240922   0.434   2.007   4.097  0.3303  0.2908  0.7452
 6503TIP3   OH240923   2.675   3.824  12.972 -0.8592  0.6402  0.4897
 6503TIP3    H140924   2.725   3.831  13.053 -0.0551  0.7105  0.0004
 6503TIP3    H240925   2.698   3.902  12.923  1.2323 -0.9148 -1.1984
 6504TIP3   OH240926   5.758   0.745   5.272 -0.0514  0.3745  0.0955
 6504TIP3    H140927   5.814   0.697   5.333 -0.9576 -0.1374  0.5417
 6504TIP3    H240928   5.805   0.741   5.189  0.8972  0.5397  0.6053
 6505TIP3   OH240929   2.437   1.460  15.867 -0.1350 -0.6410 -0.2731
 6505TIP3    H140930   2.467   1.550  15.877 -1.2972 -0.3250  0.6962
 6505TIP3    H240931   2.474   1.414  15.942 -1.8062 -0.2875  0.8336
 6506TIP3   OH240932   5.083   3.457  16.477  0.0299  0.7159 -0.2606
 6506TIP3    H140933   5.146   3.515  16.518 -1.0063  1.1581  0.7614
 6506TIP3    H240934   5.124   3.431  16.394  1.9184  0.2782  0.7540
 6507TIP3   OH240935   1.688   5.094  15.684 -0.2741  0.0915  0.4092
 6507TIP3    H140936   1.611   5.137  15.722 -0.8541  0.5019 -1.1281
 6507TIP3    H240937   1.669   5.091  15.590  1.1724 -0.6845  0.1152
 6508TIP3   OH240938   2.114   3.076  13.720 -0.5284 -0.0827 -0.6293
 6508TIP3    H140939   2.085   2.992  13.687 -1.2302 -0.3870  0.6885
 6508TIP3    H240940   2.055   3.140  13.679 -1.9285 -0.5282  0.6123
 6509TIP3   OH240941   0.630   3.335   4.430 -0.0506 -0.4237  0.2371
 6509TIP3    H140942   0.707   3.281   4.415  1.0567  1.4378 -1.0791
 6509TIP3    H240943   0.582   3.334   4.347  0.5770  1.4503 -0.1960
 6510TIP3   OH240944   5.726   4.174   5.388 -0.5170  0.2530 -0.1777
 6510TIP3    H140945   5.819   4.198   5.388 -0.4257 -0.0872  0.2280
 6510TIP3    H240946   5.685   4.238   5.446 -0.3561 -0.2404  0.4963
 6511TIP3   OH240947   2.876   0.945   3.118  0.3732 -0.0790 -0.0061
 6511TIP3    H140948   2.811   0.957   3.188  0.8448  2.2412  0.0973
 6511TIP3    H240949   2.957   0.923   3.164  0.6861  1.4590  0.2450
 6512TIP3   OH240950   1.256   0.677   3.472 -0.2260 -0.1673 -0.0059
 6512TIP3    H140951   1.277   0.767   3.497  2.6202 -1.0713  1.2381
 6512TIP3    H240952   1.277   0.673   3.378 -0.4151  0.4787 -0.0796
 6513TIP3   OH240953   6.091   0.582  11.209 -0.2370  0.0491 -0.2395
 6513TIP3    H140954   6.074   0.557  11.119  1.9491 -3.0941  0.0763
 6513TIP3    H240955   6.172   0.634  11.205 -0.9449  1.2092 -0.1617
 6514TIP3   OH240956   0.073   2.759   5.105  0.2336 -0.0051 -0.3388
 6514TIP3    H140957   0.076   2.849   5.072  2.1078 -0.1998 -0.8036
 6514TIP3    H240958   0.081   2.768   5.200  0.8819  0.3094 -0.4164
 6515TIP3   OH240959   4.442   3.310  17.194 -0.0925  0.1349 -0.4213
 6515TIP3    H140960   4.527   3.291  17.156  0.4046 -1.5649  1.3528
 6515TIP3    H240961   4.381   3.256  17.143  0.1699 -0.1097 -0.4814
 6516TIP3   OH240962   0.154   5.836  12.253 -0.1014 -0.2380  0.2310
 6516TIP3    H140963   0.214   5.780  12.202  0.0117  0.0127  0.0858
 6516TIP3    H240964   0.067   5.810  12.223 -0.0120  0.3812 -0.5937
 6517TIP3   OH240965   6.132   2.107   3.064  0.4558 -0.0557 -0.1232
 6517TIP3    H140966   6.045   2.066   3.065 -0.2124  1.2810 -0.5442
 6517TIP3    H240967   6.114   2.201   3.071  1.8913  0.2281  0.0754
 6518TIP3   OH240968   3.803   0.470  13.874  0.5790 -0.0876  0.6711
 6518TIP3    H140969   3.878   0.415  13.897  0.9776 -0.0916 -0.5785
 6518TIP3    H240970   3.829   0.559  13.897  0.6156 -0.2030  1.0717
 6519TIP3   OH240971   4.850   5.000   4.245  0.3213 -0.0169 -0.2357
 6519TIP3    H140972   4.767   5.048   4.244 -0.0259 -0.5851 -1.5040
 6519TIP3    H240973   4.842   4.938   4.172  1.4575 -0.7867  0.2697
 6520TIP3   OH240974   0.610   4.660  14.565 -0.3102  0.3113  0.2466
 6520TIP3    H140975   0.617   4.741  14.515 -3.4157  0.8992  0.5598
 6520TIP3    H240976   0.700   4.631  14.576  0.8625  3.1987 -0.7039
 6521TIP3   OH240977   2.175   6.258  12.435  0.5538  0.1160  0.0115
 6521TIP3    H140978   2.225   6.263  12.517 -0.3679 -0.4293  0.6290
 6521TIP3    H240979   2.138   6.169  12.436 -1.8639  1.0567  0.4537
 6522TIP3   OH240980   0.509   4.892   4.523  0.0474  0.4202 -0.3345
 6522TIP3    H140981   0.427   4.923   4.483 -0.0788  1.7397  0.8852
 6522TIP3    H240982   0.578   4.938   4.475 -0.0000  0.5198 -0.3062
 6523TIP3   OH240983   4.632   6.330  16.756 -0.1888  0.1354 -0.4889
 6523TIP3    H140984   4.709   6.285  16.791 -0.0864  1.3264  0.8817
 6523TIP3    H240985   4.566   6.261  16.748  0.8763 -0.8386 -1.3723
 6524TIP3   OH240986   1.717   0.412  16.343  0.6625 -0.4009  0.5465
 6524TIP3    H140987   1.667   0.371  16.414 -2.5817  0.1026 -1.2705
 6524TIP3    H240988   1.682   0.501  16.338  1.8234  0.0124 -0.7820
 6525TIP3   OH240989   0.149   0.833   5.615 -0.0237  0.2458 -0.0774
 6525TIP3    H140990   0.092   0.801   5.686 -0.2819 -0.9135 -0.7911
 6525TIP3    H240991   0.214   0.887   5.660 -1.1812  0.9151  0.8565
 6526TIP3   OH240992   2.729   2.392  15.821 -0.6571 -0.1010  0.0574
 6526TIP3    H140993   2.748   2.302  15.846  1.5860  0.1335 -0.6127
 6526TIP3    H240994   2.775   2.404  15.738  2.1013  2.6214  1.7651
 6527TIP3   OH240995   3.296   4.453   5.717 -0.2616 -0.1206  0.3754
 6527TIP3    H140996   3.373   4.506   5.697 -1.4988  2.1581  1.2411
 6527TIP3    H240997   3.293   4.449   5.812 -0.9393 -0.5858  0.3453
 6528TIP3   OH240998   2.304   2.272   0.326  0.1811  0.2140 -0.4613
 6528TIP3    H140999   2.278   2.347   0.379  1.0649 -0.3891  0.8679
 6528TIP3    H241000   2.395   2.290   0.302 -0.1343  0.3693 -1.6229
 6529TIP3   OH241001   3.017   0.877   0.899  0.3330 -0.6435  0.1511
 6529TIP3    H141002   3.044   0.969   0.897 -0.2404 -0.4627  0.4570
 6529TIP3    H241003   2.930   0.877   0.858  0.8232 -1.2296 -0.9180
 6530TIP3   OH241004   1.318   1.165  13.899  0.0019 -0.2989  0.3363
 6530TIP3    H141005   1.242   1.137  13.950 -0.2520  0.7432  0.5575
 6530TIP3    H241006   1.394   1.140  13.952 -0.2688  1.7074  1.8046
 6531TIP3   OH241007   3.606   0.573   1.268  0.2099 -0.3031 -0.4953
 6531TIP3    H141008   3.590   0.572   1.173 -0.8206  0.8751 -0.3611
 6531TIP3    H241009   3.522   0.602   1.305  0.5774 -0.8480  0.7832
 6532TIP3   OH241010   0.963   6.757   4.699 -0.0193  0.1532 -0.9534
 6532TIP3    H141011   1.038   6.783   4.647  0.3060 -0.1786 -0.6536
 6532TIP3    H241012   0.959   6.662   4.690  1.4506 -0.2289  1.4657
 6533TIP3   OH241013   5.164   5.447  13.427  0.1249  0.5094  0.1677
 6533TIP3    H141014   5.217   5.366  13.429 -1.3923 -0.5315 -0.2165
 6533TIP3    H241015   5.105   5.438  13.502 -1.7738  0.0053 -1.3026
 6534TIP3   OH241016   5.031   5.056   2.506  0.1311 -0.7279 -0.0223
 6534TIP3    H141017   5.000   5.086   2.421  0.0732 -1.5503 -0.3033
 6534TIP3    H241018   5.083   4.978   2.486 -0.8380 -1.6184  0.7845
 6535TIP3   OH241019   1.858   6.042   5.921  0.7018 -0.5437 -0.4447
 6535TIP3    H141020   1.908   6.083   5.851 -0.0075  0.0674 -0.6082
 6535TIP3    H241021   1.799   5.981   5.876 -0.0999  0.2067 -0.4407
 6536TIP3   OH241022   3.400   2.824  12.510 -0.5690  0.0565 -0.3496
 6536TIP3    H141023   3.352   2.746  12.484 -2.6474  1.6549 -1.6423
 6536TIP3    H241024   3.467   2.834  12.442 -0.0500 -0.7764  0.0266
 6537TIP3   OH241025   3.459   3.347  14.020  0.7654 -0.3106  0.3467
 6537TIP3    H141026   3.472   3.296  14.100  1.3716 -0.4776  0.1441
 6537TIP3    H241027   3.390   3.300  13.972 -0.1325  0.1961  1.1023
 6538TIP3   OH241028   1.694   2.333   0.533  0.5170  0.1688 -0.3894
 6538TIP3    H141029   1.760   2.401   0.523 -0.7362  1.5697  0.4324
 6538TIP3    H241030   1.710   2.273   0.460  1.3111  1.6426 -1.4782
 6539TIP3   OH241031   1.732   0.603   5.503 -0.6556 -0.0944 -0.5474
 6539TIP3    H141032   1.646   0.578   5.471  0.5675 -1.0240 -3.4838
 6539TIP3    H241033   1.775   0.521   5.525 -0.2205  0.2809  0.0351
 6540TIP3   OH241034   5.261   1.675   3.628  0.3019  0.0574  0.0991
 6540TIP3    H141035   5.170   1.702   3.641  0.6571  0.7872  1.3045
 6540TIP3    H241036   5.281   1.702   3.538 -0.2251  1.3069  0.3290
 6541TIP3   OH241037   5.736   1.795   5.296 -0.5843 -0.1255 -1.1541
 6541TIP3    H141038   5.648   1.831   5.304 -1.9977 -3.1110 -1.6452
 6541TIP3    H241039   5.769   1.830   5.212 -1.0048  1.4908 -0.6783
 6542TIP3   OH241040   3.340   3.495  15.096 -0.0547 -0.4783  0.1733
 6542TIP3    H141041   3.252   3.498  15.060  0.2042  0.9077 -0.3969
 6542TIP3    H241042   3.328   3.478  15.189 -1.1259  2.3927  0.6538
 6543TIP3   OH241043   5.255   4.867   0.204 -0.0107  0.2170  0.6874
 6543TIP3    H141044   5.264   4.777   0.171 -1.1894  0.2783  0.1410
 6543TIP3    H241045   5.186   4.905   0.149 -0.1429  1.1747  1.5031
 6544TIP3   OH241046   2.064   4.605   5.421 -0.4244 -0.5100 -0.4396
 6544TIP3    H141047   2.077   4.578   5.330  1.1381  0.4982 -0.5468
 6544TIP3    H241048   2.112   4.540   5.472  0.1681 -0.0957 -0.4599
 6545TIP3   OH241049   6.019   1.210   1.120 -0.3684 -0.6901  0.1868
 6545TIP3    H141050   6.080   1.279   1.093  0.0497 -0.9504  0.4521
 6545TIP3    H241051   6.075   1.143   1.160 -0.7149 -1.4039 -0.5042
 6546TIP3   OH241052   5.284   6.221   2.209 -0.3369 -0.3698 -0.0691
 6546TIP3    H141053   5.299   6.306   2.167  0.7023 -1.1813 -1.4628
 6546TIP3    H241054   5.189   6.209   2.207 -0.5266  0.9213  0.5280
 6547TIP3   OH241055   6.392   5.347   3.983 -0.1658  0.1390  0.3546
 6547TIP3    H141056   6.296   5.344   3.993 -0.1935  0.3626  0.1552
 6547TIP3    H241057   6.406   5.401   3.906  0.1531  1.0578  1.0279
 6548TIP3   OH241058   2.135   3.625   3.372  0.3998  0.1946  0.0343
 6548TIP3    H141059   2.047   3.635   3.334 -0.0584 -0.7046  0.8297
 6548TIP3    H241060   2.194   3.653   3.302 -0.5556  3.6457  0.4150
 6549TIP3   OH241061   1.260   1.442  13.764 -0.0188  0.2371 -0.1349
 6549TIP3    H141062   1.206   1.401  13.832 -1.0431 -1.1902 -1.7154
 6549TIP3    H241063   1.210   1.518  13.735 -0.9724 -0.7666 -1.2097
 6550TIP3   OH241064   3.665   2.573  16.971 -0.4470 -0.0093 -0.1492
 6550TIP3    H141065   3.627   2.584  16.883 -0.3995  0.8657 -0.0744
 6550TIP3    H241066   3.600   2.521  17.018 -0.6032 -0.2517 -0.6218
 6551TIP3   OH241067   5.039   1.676   2.149 -0.3429 -0.4530 -0.4644
 6551TIP3    H141068   5.030   1.582   2.161 -0.1095 -0.4396 -0.1799
 6551TIP3    H241069   4.955   1.703   2.111 -0.3754 -0.7855 -0.6337
 6552TIP3   OH241070   6.727   2.583   3.489 -0.7594 -0.3482 -0.3009
 6552TIP3    H141071   6.651   2.616   3.536 -1.0537 -1.6197  0.1538
 6552TIP3    H241072   6.757   2.658   3.436 -0.1670  1.2875  2.1472
 6553TIP3   OH241073   2.154   4.402   0.563 -0.9721  0.0064  0.4655
 6553TIP3    H141074   2.166   4.421   0.656 -2.7902 -1.7257  1.1422
 6553TIP3    H241075   2.225   4.342   0.542 -0.3407  0.6833  0.6256
 6554TIP3   OH241076   3.088   4.147   2.403  0.4113 -0.3738  0.2189
 6554TIP3    H141077   3.152   4.142   2.331 -1.7978 -0.4555 -1.8613
 6554TIP3    H241078   3.078   4.240   2.420  0.9585 -0.3556  0.4792
 6555TIP3   OH241079   0.539   4.093  10.957 -0.4765  0.7676 -0.2175
 6555TIP3    H141080   0.599   4.164  10.937  1.4114 -0.2945  1.3493
 6555TIP3    H241081   0.566   4.022  10.898 -0.3505  0.3634  0.3270
 6556TIP3   OH241082   4.481   4.861   0.799 -0.0613  0.3014 -0.7733
 6556TIP3    H141083   4.431   4.780   0.802  0.1740  0.1497 -0.9000
 6556TIP3    H241084   4.418   4.929   0.821  0.4251 -0.1910  2.5634
 6557TIP3   OH241085   4.650   2.451  17.152  0.4630 -0.4364 -0.4519
 6557TIP3    H141086   4.589   2.523  17.138 -0.3701 -0.7081  1.4898
 6557TIP3    H241087   4.596   2.378  17.182  1.7045 -0.6014  1.6117
 6558TIP3   OH241088   2.574   2.693   0.087 -0.2153 -0.4986 -0.3301
 6558TIP3    H141089   2.601   2.648   0.168  1.9424 -0.7767 -1.1292
 6558TIP3    H241090   2.505   2.638   0.051 -1.0317 -0.5126  1.1615
 6559TIP3   OH241091   2.369   4.131   3.273  0.0894  0.1314 -0.4212
 6559TIP3    H141092   2.438   4.133   3.207 -0.3754  0.6524 -0.8986
 6559TIP3    H241093   2.290   4.159   3.227 -0.4887 -0.6620  0.0686
 6560TIP3   OH241094   2.989   3.587  13.999 -0.2096 -0.1140 -0.3418
 6560TIP3    H141095   2.983   3.557  14.090  0.0921  1.5093  0.2496
 6560TIP3    H241096   2.897   3.595  13.972 -0.3103 -0.2433 -0.0547
 6561TIP3   OH241097   2.436   6.504  12.808  0.0415 -0.3418  0.1615
 6561TIP3    H141098   2.363   6.513  12.869  0.4240  0.0831  0.5719
 6561TIP3    H241099   2.424   6.577  12.747  0.5270  0.1844  0.6763
 6562TIP3   OH241100   5.809   6.150  11.304 -0.0876  0.5232 -0.2075
 6562TIP3    H141101   5.742   6.115  11.245  0.7053 -0.9147 -0.3023
 6562TIP3    H241102   5.801   6.245  11.295 -0.7195  0.3615 -1.7993
 6563TIP3   OH241103   1.247   3.292  15.360 -0.0002  0.1142 -0.4765
 6563TIP3    H141104   1.202   3.226  15.308 -0.2874 -1.1016  1.2559
 6563TIP3    H241105   1.247   3.257  15.449  3.9701  0.1991 -0.2642
 6564TIP3   OH241106   0.314   2.500   5.071  0.6849 -0.0565 -0.1694
 6564TIP3    H141107   0.298   2.593   5.051  0.6829  0.0266  0.2277
 6564TIP3    H241108   0.288   2.490   5.162  0.2853 -0.5437 -0.3314
 6565TIP3   OH241109   0.246   2.643   3.993  0.0378 -0.2621 -0.3948
 6565TIP3    H141110   0.176   2.708   3.994  0.5183  0.4056 -2.8417
 6565TIP3    H241111   0.324   2.691   3.965  0.9060 -1.4702 -0.1508
 6566TIP3   OH241112   6.162   5.044   4.932 -0.2161 -0.3330  0.4941
 6566TIP3    H141113   6.090   4.999   4.888  0.5336 -1.2087  0.1318
 6566TIP3    H241114   6.240   4.999   4.901  0.5064  0.7419  0.7172
 6567TIP3   OH241115   2.771   2.140  15.947  0.1610 -0.0652  0.0331
 6567TIP3    H141116   2.863   2.129  15.970  0.4487  0.3917 -0.8457
 6567TIP3    H241117   2.735   2.195  16.016  1.2649  2.2262 -1.1080
 6568TIP3   OH241118   3.278   5.318   4.962 -0.1742  0.2015  0.1373
 6568TIP3    H141119   3.360   5.348   4.922 -0.8649  1.6143 -0.2885
 6568TIP3    H241120   3.286   5.342   5.054 -0.8227  2.0756 -0.2427
 6569TIP3   OH241121   0.085   6.690  14.058 -0.0361  0.0380 -0.2896
 6569TIP3    H141122   0.116   6.780  14.049 -0.7714  0.5807  1.9967
 6569TIP3    H241123  -0.008   6.698  14.079 -0.6435 -1.3776 -2.2159
 6570TIP3   OH241124   1.591   1.405  15.413  0.3338 -0.3241 -0.1286
 6570TIP3    H141125   1.501   1.436  15.424 -0.4794 -2.1131 -1.3414
 6570TIP3    H241126   1.584   1.310  15.419  1.7791 -0.6488 -2.5086
 6571TIP3   OH241127   6.553   1.050   1.541 -0.4576  0.4552 -0.3217
 6571TIP3    H141128   6.551   1.115   1.611 -0.2698 -1.4097  1.4914
 6571TIP3    H241129   6.487   1.080   1.479 -1.7451  1.3454  1.4036
 6572TIP3   OH241130   5.703   6.332   5.743 -0.1659 -0.7164  0.1340
 6572TIP3    H141131   5.732   6.423   5.749 -1.1765 -0.2871 -1.1245
 6572TIP3    H241132   5.681   6.309   5.833 -1.4975  0.8539  0.2707
 6573TIP3   OH241133   1.436   5.618  11.807  0.3730 -0.3517 -0.5440
 6573TIP3    H141134   1.496   5.693  11.801  0.3320 -0.2411  0.3353
 6573TIP3    H241135   1.350   5.654  11.785  0.4005 -0.2025 -0.4101
 6574TIP3   OH241136   0.462   6.170   3.346  0.0013 -0.0969  0.1734
 6574TIP3    H141137   0.468   6.197   3.254 -0.8604  0.0862  0.1668
 6574TIP3    H241138   0.501   6.082   3.347 -0.4869 -0.3372 -0.4776
 6575TIP3   OH241139   3.438   5.065  12.898  0.1627  0.3733 -0.5430
 6575TIP3    H141140   3.386   5.113  12.963  0.4624 -0.4880  0.3665
 6575TIP3    H241141   3.527   5.068  12.933  0.1201 -1.1667 -0.2405
 6576TIP3   OH241142   2.736   0.396  16.166  0.4235  0.2707  0.2519
 6576TIP3    H141143   2.788   0.350  16.100  0.5361 -0.0961  0.5889
 6576TIP3    H241144   2.782   0.479  16.179  0.6597  0.1491  0.2021
 6577TIP3   OH241145   4.890   3.691   0.396 -0.9593 -0.5553  0.1418
 6577TIP3    H141146   4.901   3.771   0.345  0.0913 -0.1600  0.9347
 6577TIP3    H241147   4.809   3.703   0.445 -1.4071 -0.4828 -0.6048
 6578TIP3   OH241148   2.390   3.182  12.180 -0.1543  0.1004  0.1321
 6578TIP3    H141149   2.365   3.118  12.246  0.1974 -0.9068 -0.6703
 6578TIP3    H241150   2.439   3.249  12.228  1.4141 -1.3682  0.7108
 6579TIP3   OH241151   6.045   2.217  12.822  0.7215  0.0105  0.2895
 6579TIP3    H141152   6.039   2.126  12.851  2.0080 -0.4756 -0.8394
 6579TIP3    H241153   6.137   2.241  12.836  0.7413  0.6436 -0.7581
 6580TIP3   OH241154   1.709   4.395  10.646 -0.1096  0.6799 -0.2937
 6580TIP3    H141155   1.622   4.436  10.646 -1.2566 -1.6021  0.0081
 6580TIP3    H241156   1.768   4.464  10.617 -2.1229  2.1046 -1.2189
 6581TIP3   OH241157   1.406   0.137   2.470  0.3340 -0.7758 -0.0788
 6581TIP3    H141158   1.406   0.044   2.496  2.1082 -0.1757  2.4682
 6581TIP3    H241159   1.494   0.152   2.436  0.5584  0.2574  0.8896
 6582TIP3   OH241160   5.225   0.480  12.386 -0.4183  0.1340 -0.4174
 6582TIP3    H141161   5.314   0.453  12.407  0.5172  1.8531 -1.9238
 6582TIP3    H241162   5.188   0.508  12.469 -0.4559 -2.8304  0.6828
 6583TIP3   OH241163   5.764   4.812  16.562  0.0812 -0.8473 -0.1006
 6583TIP3    H141164   5.720   4.855  16.635  0.5471 -1.0701  0.3146
 6583TIP3    H241165   5.723   4.850  16.484 -1.6175 -1.8432  0.2702
 6584TIP3   OH241166   5.683   2.043  11.219  0.1095  0.7809 -0.3589
 6584TIP3    H141167   5.663   2.136  11.228  0.1756  1.0996 -2.9365
 6584TIP3    H241168   5.777   2.036  11.234  0.1436  1.1600 -0.4018
 6585TIP3   OH241169   6.552   1.112   5.915  0.5533  0.0134  0.0028
 6585TIP3    H141170   6.581   1.069   5.835  2.2571 -3.0535  2.0740
 6585TIP3    H241171   6.626   1.167   5.940  0.8861 -0.6569  0.5186
 6586TIP3   OH241172   4.842   4.291   2.232  0.4868  0.0517  0.5253
 6586TIP3    H141173   4.781   4.223   2.204  1.4399 -0.7275  0.2825
 6586TIP3    H241174   4.792   4.373   2.226 -0.1999 -0.4389 -0.7052
 6587TIP3   OH241175   6.145   3.511   5.755  1.0127  0.3656 -0.2121
 6587TIP3    H141176   6.106   3.436   5.800  0.7762  0.7817  0.2844
 6587TIP3    H241177   6.235   3.514   5.785  0.7132  0.9664  0.6781
 6588TIP3   OH241178   4.441   2.360   4.748 -0.1483  0.2249  0.4473
 6588TIP3    H141179   4.525   2.390   4.713 -1.0651  0.9975 -1.2719
 6588TIP3    H241180   4.401   2.439   4.785 -1.4760  0.7007 -1.7712
 6589TIP3   OH241181   6.100   3.325  16.770  0.0771 -1.0734 -0.1154
 6589TIP3    H141182   6.183   3.283  16.795  0.2780 -0.8753 -0.4472
 6589TIP3    H241183   6.107   3.336  16.676  0.2430  0.1943  0.0375
 6590TIP3   OH241184   3.831   6.574  15.132 -0.5836 -0.5716  0.5333
 6590TIP3    H141185   3.786   6.577  15.216  0.6367 -1.0548  1.2170
 6590TIP3    H241186   3.869   6.661  15.122 -0.9087 -0.4438  0.3577
 6591TIP3   OH241187   6.433   1.017  14.568 -0.3078 -0.4038  0.0620
 6591TIP3    H141188   6.372   1.070  14.619  0.9684  1.6771 -0.4739
 6591TIP3    H241189   6.385   0.996  14.487 -0.6276  0.4586  0.0210
 6592TIP3   OH241190   6.591   6.755  15.706 -0.0558  0.4082  0.0762
 6592TIP3    H141191   6.599   6.759  15.611  1.9537 -0.5671  0.1578
 6592TIP3    H241192   6.510   6.706  15.721  0.1017 -0.2651 -1.1457
 6593TIP3   OH241193   0.797   4.941  12.705 -0.0365  0.0589 -0.1983
 6593TIP3    H141194   0.807   4.995  12.626  0.5858 -0.2307 -0.3232
 6593TIP3    H241195   0.758   4.860  12.673  0.6738 -0.2509 -0.2895
 6594TIP3   OH241196   5.383   1.503  16.712 -0.1174  0.4469 -0.3861
 6594TIP3    H141197   5.288   1.496  16.709 -0.1460 -1.0857  1.7177
 6594TIP3    H241198   5.412   1.487  16.622 -1.7286 -1.7192 -0.5709
 6595TIP3   OH241199   1.897   6.654   4.521 -0.6126 -0.0927  0.2867
 6595TIP3    H141200   1.926   6.565   4.499  1.3876  0.6425 -0.2136
 6595TIP3    H241201   1.867   6.648   4.611  0.3537 -1.0906  0.5615
 6596TIP3   OH241202   5.398   1.638  11.373 -0.2419  0.9110 -0.0150
 6596TIP3    H141203   5.453   1.712  11.401  1.0867  0.2318 -0.7063
 6596TIP3    H241204   5.371   1.661  11.285  2.1549 -0.4056 -1.1897
 6597TIP3   OH241205   1.065   4.329  17.292 -0.7492  0.2349 -0.2181
 6597TIP3    H141206   1.092   4.421  17.289  2.1026 -0.5443 -1.0834
 6597TIP3    H241207   1.000   4.326  17.363  0.3004  2.6147  0.9736
 6598TIP3   OH241208   6.083   3.947   1.394 -0.2930 -0.0094  0.7154
 6598TIP3    H141209   6.131   4.028   1.375  0.4578 -0.4933  0.4863
 6598TIP3    H241210   6.103   3.890   1.319 -0.1569 -0.6909  1.2554
 6599TIP3   OH241211   5.173   1.972  13.686  0.1513 -0.7072 -0.1758
 6599TIP3    H141212   5.201   1.998  13.598 -1.2916  0.7850 -0.2524
 6599TIP3    H241213   5.246   1.998  13.743  0.5971 -0.5666 -0.8002
 6600TIP3   OH241214   2.464   2.542   4.641  0.0543  0.3115 -0.9556
 6600TIP3    H141215   2.380   2.497   4.644  0.2107 -0.0727 -1.8138
 6600TIP3    H241216   2.526   2.475   4.611  0.8413  0.3535  0.4964
 6601TIP3   OH241217   6.248   6.412   3.655 -0.3787 -0.0525 -0.1748
 6601TIP3    H141218   6.308   6.464   3.602 -1.7142  1.3857 -0.3565
 6601TIP3    H241219   6.161   6.447   3.634 -1.3157 -2.1049  0.0099
 6602TIP3   OH241220   4.992   6.671   5.645  0.0544  0.1445 -0.9343
 6602TIP3    H141221   4.951   6.634   5.723  2.0020  0.7738  0.4835
 6602TIP3    H241222   5.079   6.631   5.642  0.7314  1.5809 -1.6680
 6603TIP3   OH241223   3.412   0.148   4.236  0.2114 -0.4329  0.4905
 6603TIP3    H141224   3.394   0.054   4.240 -0.9589 -0.3221 -1.1084
 6603TIP3    H241225   3.401   0.179   4.326 -0.1860 -1.6917  0.8925
 6604TIP3   OH241226   4.289   5.428  12.061  0.2879 -0.0858 -0.2031
 6604TIP3    H141227   4.244   5.490  12.118  1.9861  1.0915 -0.0854
 6604TIP3    H241228   4.335   5.369  12.120  0.0917 -0.3789 -0.3392
 6605TIP3   OH241229   6.775   3.534   0.782 -0.2998  0.6007 -0.5102
 6605TIP3    H141230   6.826   3.554   0.861  1.7467  0.9461 -1.8320
 6605TIP3    H241231   6.787   3.440   0.770  0.0047  0.6752 -0.7988
 6606TIP3   OH241232   6.500   1.155   0.067 -0.3556 -0.7527  0.4695
 6606TIP3    H141233   6.513   1.148  -0.028 -2.4233  0.5254  0.0367
 6606TIP3    H241234   6.485   1.064   0.095 -2.0018 -0.9378 -0.8379
 6607TIP3   OH241235   4.568   5.925  15.255 -0.3600  0.4481 -0.0933
 6607TIP3    H141236   4.656   5.898  15.228 -1.1702 -2.3265 -0.2729
 6607TIP3    H241237   4.517   5.924  15.174 -0.3701  3.2603 -0.2104
 6608TIP3   OH241238   1.905   5.091   3.875 -0.1609  0.1279 -0.1210
 6608TIP3    H141239   1.845   5.153   3.917 -2.9577 -2.6386  0.2437
 6608TIP3    H241240   1.891   5.104   3.781  0.8383  1.3953 -0.1307
 6609TIP3   OH241241   2.379   5.609  14.833  0.1168 -0.1450  0.2896
 6609TIP3    H141242   2.407   5.534  14.886  2.7528 -0.6245 -1.5380
 6609TIP3    H241243   2.443   5.678  14.853  0.9675 -0.2227 -1.8729
 6610TIP3   OH241244   1.246   4.402   4.770  1.0530 -0.2235  0.8508
 6610TIP3    H141245   1.270   4.495   4.769  1.4087 -0.2674 -1.8834
 6610TIP3    H241246   1.302   4.365   4.838  1.7829  1.3572  1.1753
 6611TIP3   OH241247   6.541   1.400   1.504  0.0423 -0.4695  0.3385
 6611TIP3    H141248   6.587   1.465   1.450  0.5816 -1.5086 -0.4794
 6611TIP3    H241249   6.469   1.371   1.449 -1.2136  0.6240  1.3446
 6612TIP3   OH241250   4.304   0.185  16.580 -0.1152 -0.1412  0.3845
 6612TIP3    H141251   4.231   0.201  16.521  1.7069 -0.3393 -2.0973
 6612TIP3    H241252   4.344   0.271  16.594  0.8619 -0.3915 -0.7000
 6613TIP3   OH241253   3.611   3.918   3.478  0.2175 -0.6342 -0.1647
 6613TIP3    H141254   3.564   3.972   3.414 -1.1956 -0.1593  1.2268
 6613TIP3    H241255   3.576   3.830   3.464  1.1630 -0.8819 -1.1601
 6614TIP3   OH241256   1.588   2.908   3.987  0.5485 -0.0198  0.2902
 6614TIP3    H141257   1.502   2.936   4.020  1.7445  3.1665  1.0717
 6614TIP3    H241258   1.570   2.828   3.939 -2.4570 -0.8949  2.5467
 6615TIP3   OH241259   1.643   1.275   0.708  0.5784 -0.1406 -0.0195
 6615TIP3    H141260   1.573   1.305   0.650  0.9179  2.1275  0.6365
 6615TIP3    H241261   1.720   1.269   0.652  0.4394 -0.0450 -0.2236
 6616TIP3   OH241262   2.110   6.241  11.706  0.8812 -0.4156  0.0045
 6616TIP3    H141263   2.028   6.200  11.734  1.0800  0.0785  1.4026
 6616TIP3    H241264   2.119   6.317  11.764  1.8366  0.0939 -0.7897
 6617TIP3   OH241265   5.782   2.811  15.728  0.1148 -1.0716  0.2035
 6617TIP3    H141266   5.809   2.838  15.640  2.5963 -2.2517  0.5004
 6617TIP3    H241267   5.863   2.811  15.779 -1.4420  0.8765  2.9153
 6618TIP3   OH241268   6.129   5.383  15.387  0.0614  0.0785 -0.5307
 6618TIP3    H141269   6.181   5.463  15.376 -0.5111  0.7771  1.4943
 6618TIP3    H241270   6.067   5.404  15.457 -0.8927 -1.7620 -0.7718
 6619TIP3   OH241271   1.694   3.460  11.801  0.0173  0.1002 -0.6564
 6619TIP3    H141272   1.686   3.421  11.888 -1.2268 -2.1383 -1.7020
 6619TIP3    H241273   1.762   3.408  11.758  0.1696  0.7757 -1.2460
 6620TIP3   OH241274   3.128   0.715   0.531  0.1174 -0.1300 -0.0146
 6620TIP3    H141275   3.089   0.789   0.577  0.2595 -0.7144  1.0978
 6620TIP3    H241276   3.060   0.648   0.530 -0.1878  0.1859 -1.4760
 6621TIP3   OH241277   1.473   1.603  12.792  0.1262  0.2432 -0.1113
 6621TIP3    H141278   1.390   1.645  12.769  0.5217  0.3816 -1.3744
 6621TIP3    H241279   1.527   1.612  12.713  1.3887  0.2678  0.7283
 6622TIP3   OH241280   4.350   1.690  16.467 -0.6122  0.5353  1.0055
 6622TIP3    H141281   4.353   1.617  16.405 -2.9922  1.9699 -0.9493
 6622TIP3    H241282   4.407   1.756  16.429 -1.2972  1.0350  0.8202
 6623TIP3   OH241283   3.186   3.407   2.166  0.0139  0.0019 -0.5767
 6623TIP3    H141284   3.102   3.391   2.123 -0.1378 -0.4251 -0.1467
 6623TIP3    H241285   3.251   3.393   2.098 -0.2868  0.8589 -1.0446
 6624TIP3   OH241286   5.573   3.977   0.982  0.1684 -0.2264  0.0179
 6624TIP3    H141287   5.543   3.972   1.073  0.3884 -0.3948  0.0820
 6624TIP3    H241288   5.652   4.032   0.987 -1.0762  1.7010 -0.3852
 6625TIP3   OH241289   0.767   1.422  11.234 -0.1467 -1.0059 -0.2849
 6625TIP3    H141290   0.817   1.344  11.208 -0.7659 -1.1028 -1.2230
 6625TIP3    H241291   0.831   1.476  11.281  0.0734 -2.4513  1.1700
 6626TIP3   OH241292   4.009   2.812   3.571 -0.2254  0.0177 -0.1977
 6626TIP3    H141293   4.069   2.883   3.594 -0.2598 -0.4568  1.4754
 6626TIP3    H241294   3.938   2.856   3.525  0.7991  0.7520 -1.1301
 6627TIP3   OH241295   0.062   0.863   3.912  0.4135  0.4319 -0.9571
 6627TIP3    H141296   0.064   0.922   3.837 -0.2620 -0.2200 -1.5051
 6627TIP3    H241297   0.006   0.909   3.976  0.4498  0.6928 -1.1104
 6628TIP3   OH241298   4.466   5.441  14.548  0.2537 -0.2482  0.2120
 6628TIP3    H141299   4.527   5.466  14.618  0.9915  1.7906 -1.0528
 6628TIP3    H241300   4.519   5.445  14.469 -0.9485 -0.9362 -0.6462
 6629TIP3   OH241301   6.411   2.627  13.741  0.8883  0.0036 -0.3485
 6629TIP3    H141302   6.507   2.626  13.734  0.9543 -0.8354  0.4655
 6629TIP3    H241303   6.386   2.535  13.736 -0.0074  0.3126 -1.9623
 6630TIP3   OH241304   0.149   4.626  11.262  0.2083 -0.1061 -0.6177
 6630TIP3    H141305   0.092   4.691  11.302 -1.2811 -2.4497  1.3666
 6630TIP3    H241306   0.103   4.599  11.182  0.3624  0.5604 -0.9360
 6631TIP3   OH241307   2.212   1.305  17.298  0.3458  0.0297 -0.2881
 6631TIP3    H141308   2.293   1.352  17.320 -0.3412  1.6426 -1.0000
 6631TIP3    H241309   2.174   1.356  17.226 -1.6515 -0.2668  0.4763
 6632TIP3   OH241310   4.497   5.634  12.517 -0.8129  0.2417 -0.0584
 6632TIP3    H141311   4.535   5.594  12.438 -0.8494  1.4567 -0.7243
 6632TIP3    H241312   4.547   5.715  12.528 -0.7572  0.0510  1.2297
 6633TIP3   OH241313   1.830   0.450  11.837  0.1001  0.0014  0.1266
 6633TIP3    H141314   1.912   0.430  11.792 -0.9665 -1.0160 -1.5009
 6633TIP3    H241315   1.796   0.365  11.864 -0.4509  0.4065  0.7356
 6634TIP3   OH241316   3.427   1.245  16.186  0.8259 -0.4693 -0.1271
 6634TIP3    H141317   3.422   1.315  16.250  0.9173 -1.0157  0.4854
 6634TIP3    H241318   3.494   1.273  16.124  0.1194  0.4652 -0.4906
 6635TIP3   OH241319   4.174   6.165  13.332 -0.2331  0.3415 -0.2239
 6635TIP3    H141320   4.184   6.171  13.427  0.7829  0.1115 -0.2989
 6635TIP3    H241321   4.149   6.074  13.316  0.0183  0.2678 -0.2028
 6636TIP3   OH241322   3.678   4.051  13.295  0.4794  0.6541  0.2642
 6636TIP3    H141323   3.609   4.003  13.340 -0.9500  1.1447 -1.2900
 6636TIP3    H241324   3.736   3.982  13.262  0.8531  0.2434  1.7155
 6637TIP3   OH241325   3.593   2.890   2.178  0.1882 -0.1767  0.7591
 6637TIP3    H141326   3.654   2.890   2.104  0.5026 -0.2011  1.0154
 6637TIP3    H241327   3.516   2.845   2.146  0.1756  0.1475  0.3218
 6638TIP3   OH241328   3.220   0.965  13.707 -0.1059  0.1779  0.8012
 6638TIP3    H141329   3.225   0.944  13.800 -0.4198  0.0533  0.7915
 6638TIP3    H241330   3.148   0.911  13.674  0.2725 -0.0839  0.4004
 6639TIP3   OH241331   2.775   1.037   2.379 -0.3834 -0.2811  0.0925
 6639TIP3    H141332   2.838   0.971   2.406  0.7910  0.9478  0.4426
 6639TIP3    H241333   2.772   1.030   2.283  0.1720 -0.4453  0.0873
 6640TIP3   OH241334   3.942   3.435   2.069 -0.6186  0.2717  0.3834
 6640TIP3    H141335   3.956   3.385   2.149 -1.3563  0.4273  0.6230
 6640TIP3    H241336   4.006   3.401   2.006 -1.6160 -1.5161  0.2787
 6641TIP3   OH241337   3.435   4.886   6.391 -0.1999  0.1130  0.1647
 6641TIP3    H141338   3.488   4.913   6.465 -1.1391  1.8764  0.2558
 6641TIP3    H241339   3.418   4.793   6.406  0.5634  0.1658  1.5413
 6642TIP3   OH241340   6.192   0.350   0.809  0.1139  0.0278  0.5079
 6642TIP3    H141341   6.113   0.331   0.859  0.1952 -0.8023  0.3355
 6642TIP3    H241342   6.171   0.429   0.760 -0.6139 -0.1833  0.4607
 6643TIP3   OH241343   1.061   3.179  13.165  0.0629 -0.0211  0.7616
 6643TIP3    H141344   1.030   3.169  13.255  1.2896 -0.1531  1.1964
 6643TIP3    H241345   1.021   3.106  13.117 -1.1674  0.4608  1.0243
 6644TIP3   OH241346   2.960   1.947   2.827  0.1369  0.6530  0.1324
 6644TIP3    H141347   2.986   2.010   2.760  0.9592 -0.5710 -0.7402
 6644TIP3    H241348   3.034   1.886   2.833 -0.9622 -0.7099  0.3699
 6645TIP3   OH241349   0.374   2.137   2.261  0.4769 -0.6497  0.3074
 6645TIP3    H141350   0.321   2.072   2.215 -0.7790  0.2137  0.4729
 6645TIP3    H241351   0.414   2.190   2.192  1.1441 -1.3016  0.1816
 6646TIP3   OH241352   2.073   0.061   2.853 -0.2504 -0.4189 -0.3443
 6646TIP3    H141353   2.105   0.097   2.935  0.0715 -2.2827  0.3923
 6646TIP3    H241354   2.080   0.133   2.790  1.2061  0.5071  0.8353
 6647TIP3   OH241355   1.653   6.010   4.030 -1.0117 -0.2470  0.2636
 6647TIP3    H141356   1.601   6.050   4.099 -1.4553 -2.8849  1.5862
 6647TIP3    H241357   1.590   5.961   3.977 -0.2791 -0.8815 -0.0428
 6648TIP3   OH241358   5.155   0.733  12.269 -0.3989  0.6958  0.2498
 6648TIP3    H141359   5.194   0.693  12.347 -2.2291  1.3288  1.5426
 6648TIP3    H241360   5.225   0.788  12.233  0.8226 -0.4511  0.8032
 6649TIP3   OH241361   6.309   4.863  15.592 -0.2357  0.1209 -0.2886
 6649TIP3    H141362   6.304   4.919  15.669 -0.7126  0.4734 -0.5692
 6649TIP3    H241363   6.318   4.923  15.519  0.8004 -0.2316 -0.4672
 6650TIP3   OH241364   1.032   4.228   1.555 -0.4431  0.2463 -0.3838
 6650TIP3    H141365   1.012   4.215   1.462 -0.1732  0.1612 -0.4315
 6650TIP3    H241366   0.975   4.300   1.582  0.6147  1.3667 -1.0139
 6651TIP3   OH241367   0.067   6.036   2.854  0.3933  0.1298  0.0748
 6651TIP3    H141368  -0.002   6.027   2.788  1.0679  0.7203 -0.7315
 6651TIP3    H241369   0.080   5.947   2.886  0.6059 -0.3078 -1.1737
 6652TIP3   OH241370   0.892   1.074  15.174  0.3775  0.0955  0.0819
 6652TIP3    H141371   0.917   1.087  15.083  0.2582 -0.9494 -0.1126
 6652TIP3    H241372   0.886   1.163  15.211 -1.2900  0.6497 -1.3773
 6653TIP3   OH241373   2.021   2.738  15.021 -0.1497 -0.0363 -0.3104
 6653TIP3    H141374   1.960   2.809  15.041 -0.0723  0.1791 -0.8131
 6653TIP3    H241375   1.980   2.690  14.950 -0.0549 -0.3087 -0.1825
 6654TIP3   OH241376   1.604   2.145   4.428 -0.2733 -0.6684  0.0235
 6654TIP3    H141377   1.539   2.077   4.444  0.3418 -1.6703 -1.5064
 6654TIP3    H241378   1.576   2.185   4.345  0.0068  0.1789  0.3277
 6655TIP3   OH241379   0.367   3.817  14.227  0.2305 -0.1207  0.6133
 6655TIP3    H141380   0.395   3.853  14.311 -0.0999  1.1394  0.2010
 6655TIP3    H241381   0.281   3.856  14.211  0.4595 -0.0270 -0.4923
 6656TIP3   OH241382   0.321   1.532  11.931  0.2675 -0.5679 -0.4684
 6656TIP3    H141383   0.293   1.533  11.840 -0.5546 -0.0282 -0.2177
 6656TIP3    H241384   0.249   1.572  11.979  0.6561 -0.9179  0.4328
 6657TIP3   OH241385   1.230   4.812   0.688  0.5213 -0.0077  0.0083
 6657TIP3    H141386   1.277   4.866   0.750  1.7679 -0.6799 -0.3236
 6657TIP3    H241387   1.292   4.744   0.663 -0.7162 -1.0951 -0.2309
 6658TIP3   OH241388   1.148   0.741  14.333 -0.3957 -0.5925  0.5474
 6658TIP3    H141389   1.200   0.661  14.319 -1.7811 -1.4205 -0.1276
 6658TIP3    H241390   1.139   0.778  14.245  0.3712  0.4327  0.8777
 6659TIP3   OH241391   5.386   6.668  15.095  0.3298 -0.2333  0.2620
 6659TIP3    H141392   5.436   6.590  15.117  1.0631  0.1190 -0.1200
 6659TIP3    H241393   5.452   6.736  15.081 -0.3443  0.9888  2.5099
 6660TIP3   OH241394   5.775   1.323  13.125  0.9836  0.2579 -0.0337
 6660TIP3    H141395   5.789   1.371  13.207 -2.8720  2.3364 -0.3327
 6660TIP3    H241396   5.782   1.390  13.057 -0.4412 -0.4220 -0.8857
 6661TIP3   OH241397   6.250   5.634  11.209 -0.2703  0.3017  0.3160
 6661TIP3    H141398   6.313   5.627  11.138  0.2946  0.6471  0.7818
 6661TIP3    H241399   6.251   5.548  11.250  0.6534  0.6113  0.9557
 6662TIP3   OH241400   1.313   5.105  15.477 -0.2850  0.8228 -0.1708
 6662TIP3    H141401   1.350   5.056  15.550 -1.3729 -0.4783 -0.4623
 6662TIP3    H241402   1.226   5.131  15.506 -0.6203  0.5358 -0.8818
 6663TIP3   OH241403   2.128   1.474  16.269 -0.6931 -0.1570  0.2951
 6663TIP3    H141404   2.053   1.415  16.256 -2.1218  1.8410 -1.0720
 6663TIP3    H241405   2.190   1.449  16.202 -1.6921  0.4224 -0.8911
 6664TIP3   OH241406   4.252   5.044  12.740  0.3373 -0.0504  0.1740
 6664TIP3    H141407   4.236   5.024  12.832 -0.9021 -0.5371 -0.1233
 6664TIP3    H241408   4.305   5.124  12.742  0.4197 -0.1103  1.3021
 6665TIP3   OH241409   4.491   5.105  15.434  0.1028  0.4415 -0.5183
 6665TIP3    H141410   4.572   5.077  15.391 -0.0230  1.7561 -1.7028
 6665TIP3    H241411   4.458   5.175  15.378 -2.2354 -0.5382 -0.4448
 6666TIP3   OH241412   3.788   4.580  14.348  0.5996 -0.3897 -0.6092
 6666TIP3    H141413   3.722   4.516  14.375  2.0975 -1.2650  1.1521
 6666TIP3    H241414   3.857   4.527  14.308  0.5300  0.4666 -1.9272
 6667TIP3   OH241415   4.419   3.544  14.694  0.2355  0.9990 -0.0293
 6667TIP3    H141416   4.434   3.617  14.753 -0.0604  1.7243 -0.8368
 6667TIP3    H241417   4.389   3.473  14.752 -0.5553  1.8425  0.6443
 6668TIP3   OH241418   1.819   3.441   0.361  0.6905 -0.4412  0.6800
 6668TIP3    H141419   1.750   3.475   0.304  1.7110 -2.1790 -1.7608
 6668TIP3    H241420   1.772   3.391   0.428 -0.4964 -1.9549 -1.1734
 6669TIP3   OH241421   0.844   1.561  15.424  0.4173 -0.5296  0.1908
 6669TIP3    H141422   0.928   1.550  15.469  0.5398  0.1759  0.1447
 6669TIP3    H241423   0.782   1.511  15.477  0.5461  0.3476  1.1912
 6670TIP3   OH241424   2.112   0.418  15.370 -0.1269 -0.4519 -0.0971
 6670TIP3    H141425   2.111   0.453  15.459 -1.8385 -2.0295  0.5716
 6670TIP3    H241426   2.172   0.343  15.374 -1.1743 -1.3153  0.1180
 6671TIP3   OH241427   5.782   0.738   2.473  0.2097  0.1633 -0.1757
 6671TIP3    H141428   5.742   0.814   2.430 -0.9532 -0.1189  0.3621
 6671TIP3    H241429   5.708   0.690   2.510  1.0894 -0.1229  1.2956
 6672TIP3   OH241430   4.245   4.589   2.893 -0.0314  0.0134  0.7175
 6672TIP3    H141431   4.201   4.515   2.935  0.3263 -0.0021  1.0687
 6672TIP3    H241432   4.337   4.563   2.890  0.3234  1.0328  2.1114
 6673TIP3   OH241433   4.738   0.813   3.969  0.2636 -0.0103  0.2870
 6673TIP3    H141434   4.817   0.793   4.021 -0.5532 -1.7244  0.9439
 6673TIP3    H241435   4.724   0.735   3.915 -2.4317 -0.9285  2.0957
 6674TIP3   OH241436   5.375   4.070  17.055  0.2191 -0.4268 -0.3045
 6674TIP3    H141437   5.299   4.121  17.083  0.2336 -0.8568  0.5316
 6674TIP3    H241438   5.364   3.985  17.097  0.2108 -1.1204 -1.6507
 6675TIP3   OH241439   2.206   5.062  13.651 -0.6339  0.1870 -0.0133
 6675TIP3    H141440   2.237   5.020  13.731 -3.5288 -1.6693  0.2755
 6675TIP3    H241441   2.117   5.089  13.671 -0.7183  1.5774 -1.9936
 6676TIP3   OH241442   0.141   0.666  16.635 -0.2720  0.3883 -0.3402
 6676TIP3    H141443   0.074   0.669  16.703 -2.1547  2.0498 -2.1051
 6676TIP3    H241444   0.098   0.624  16.561  1.9036 -1.9072 -0.4123
 6677TIP3   OH241445   3.814   2.396   0.060 -0.1104  0.3107 -0.3109
 6677TIP3    H141446   3.855   2.395  -0.027  1.4150  2.2330  0.2900
 6677TIP3    H241447   3.722   2.414   0.043  0.2583  1.2117 -1.5179
 6678TIP3   OH241448   2.217   2.303  11.811 -0.4781 -0.0587 -0.6721
 6678TIP3    H141449   2.191   2.386  11.852 -0.8087 -1.0430  1.2308
 6678TIP3    H241450   2.298   2.278  11.855 -0.8700 -1.1966 -0.5579
 6679TIP3   OH241451   4.187   3.517   2.280 -0.0859 -0.2752  0.2599
 6679TIP3    H141452   4.242   3.439   2.281  0.1774 -0.0905  0.4624
 6679TIP3    H241453   4.208   3.561   2.197 -0.2555 -0.4329  0.1325
 6680TIP3   OH241454   3.184   1.175  12.449  1.2999 -0.1026 -0.4964
 6680TIP3    H141455   3.252   1.242  12.458  0.8188  0.1255  2.9170
 6680TIP3    H241456   3.223   1.095  12.485 -0.6115  0.5020  3.5138
 6681TIP3   OH241457   5.757   1.604   2.876  0.5261  0.3473  0.0795
 6681TIP3    H141458   5.765   1.509   2.864  1.7306  0.5445 -0.8336
 6681TIP3    H241459   5.674   1.615   2.923 -0.7383 -1.0239 -1.6967
 6682TIP3   OH241460   5.618   2.668  14.882  0.2438  0.0479  0.0805
 6682TIP3    H141461   5.569   2.670  14.964  1.1800 -2.2406  0.7651
 6682TIP3    H241462   5.550   2.668  14.814 -0.5394  2.2793  0.7535
 6683TIP3   OH241463   2.243   5.855  15.172 -0.3483  0.4953 -0.1700
 6683TIP3    H141464   2.306   5.915  15.212 -0.6731  1.0189 -0.4368
 6683TIP3    H241465   2.251   5.775  15.223  0.6867  0.4792 -0.3210
 6684TIP3   OH241466   0.597   4.701  11.659 -0.0620  0.1375 -0.2449
 6684TIP3    H141467   0.520   4.644  11.662 -0.0576 -0.0043 -2.1330
 6684TIP3    H241468   0.568   4.779  11.611  1.2302 -0.3917 -1.9901
 6685TIP3   OH241469   4.293   5.973  10.947 -0.5644 -0.2780  0.2843
 6685TIP3    H141470   4.359   6.026  10.903 -1.6198 -1.2924 -2.8224
 6685TIP3    H241471   4.343   5.910  10.998  0.9001 -0.4523 -1.2742
 6686TIP3   OH241472   1.658   1.396  14.344  0.3395  0.0010  0.5715
 6686TIP3    H141473   1.634   1.437  14.261 -0.7511  3.3003  2.3540
 6686TIP3    H241474   1.590   1.329  14.357  0.0567 -0.0135 -0.7796
 6687TIP3   OH241475   0.498   1.836   2.527 -0.2802  0.3274  0.2561
 6687TIP3    H141476   0.406   1.857   2.514 -0.5692  0.4691  2.1308
 6687TIP3    H241477   0.531   1.908   2.582  0.2021 -1.0961  1.9446
 6688TIP3   OH241478   5.192   2.958  14.630  0.2612  0.3982 -0.4532
 6688TIP3    H141479   5.157   2.874  14.660 -0.5185 -0.7100 -3.9815
 6688TIP3    H241480   5.273   2.936  14.584  1.2098  1.9068  0.4114
 6689TIP3   OH241481   3.859   5.433   2.485 -0.0802 -0.1646  0.1647
 6689TIP3    H141482   3.787   5.434   2.422 -0.2105  1.1227  0.3019
 6689TIP3    H241483   3.837   5.503   2.547  1.5416  0.5980 -0.0920
 6690TIP3   OH241484   2.687   5.037  15.279  0.6696  0.3110 -0.0642
 6690TIP3    H141485   2.721   4.967  15.223  2.5923  1.9541 -1.0854
 6690TIP3    H241486   2.614   5.074  15.228 -0.6480 -1.1524  0.6763
 6691TIP3   OH241487   6.144   5.286   5.330  0.2027 -0.1411 -0.1399
 6691TIP3    H141488   6.187   5.339   5.398  0.5099 -1.0043  0.3476
 6691TIP3    H241489   6.053   5.315   5.332 -0.0336 -0.8705  1.3743
 6692TIP3   OH241490   1.048   1.601  16.580 -0.0784  0.7282  0.0430
 6692TIP3    H141491   0.955   1.585  16.567  0.4015 -1.5368 -1.1562
 6692TIP3    H241492   1.084   1.609  16.492  1.1473 -0.5142  0.3957
 6693TIP3   OH241493   6.505   3.513  15.706 -0.1957 -0.4711  0.3448
 6693TIP3    H141494   6.447   3.580  15.741  0.9618 -1.1809  4.0932
 6693TIP3    H241495   6.456   3.431  15.715  0.0303 -0.6389  0.0669
 6694TIP3   OH241496   0.756   0.129   5.720 -0.0499 -0.5098 -0.3615
 6694TIP3    H141497   0.852   0.121   5.727 -0.1317 -2.1650 -0.7021
 6694TIP3    H241498   0.725   0.123   5.811  0.1513 -0.4984 -0.2910
 6695TIP3   OH241499   0.656   6.056  12.525  0.2667 -0.1282 -0.4265
 6695TIP3    H141500   0.646   6.148  12.499  2.0256  0.0697 -0.5454
 6695TIP3    H241501   0.630   6.055  12.617  2.3120  0.9920  0.2334
 6696TIP3   OH241502   0.128   4.170   5.096 -0.5989  0.4589  0.0611
 6696TIP3    H141503   0.084   4.086   5.105  1.1788 -0.2855  3.6306
 6696TIP3    H241504   0.198   4.154   5.032 -1.5776 -0.1405 -0.8786
 6697TIP3   OH241505   6.462   0.172  12.927 -0.7302  0.0895  0.1593
 6697TIP3    H141506   6.478   0.202  13.017  0.5438  2.3008 -0.7223
 6697TIP3    H241507   6.511   0.090  12.920 -0.5273  0.0890  1.3585
 6698TIP3   OH241508   5.674   0.579  10.529 -0.1581 -0.1131  0.5100
 6698TIP3    H141509   5.696   0.670  10.511 -1.8095 -0.0363 -1.5059
 6698TIP3    H241510   5.739   0.528  10.482 -0.5236  0.0543 -0.1845
 6699TIP3   OH241511   2.372   0.949   2.211 -0.2340  0.3885  0.3477
 6699TIP3    H141512   2.384   1.008   2.137  0.8027  2.5197  2.1061
 6699TIP3    H241513   2.281   0.964   2.239 -0.5601 -0.2672 -0.3083
 6700TIP3   OH241514   5.094   4.849   5.720 -0.0583 -0.0530 -0.1560
 6700TIP3    H141515   5.149   4.775   5.746 -1.5405 -0.4407  2.1143
 6700TIP3    H241516   5.010   4.809   5.695 -0.1226  0.7048 -1.2202
 6701TIP3   OH241517   0.885   2.551  12.456  0.5432 -0.2827 -0.1711
 6701TIP3    H141518   0.957   2.575  12.397  0.9549  0.1409  0.4839
 6701TIP3    H241519   0.817   2.616  12.439  0.4673 -0.4526 -0.5188
 6702TIP3   OH241520   3.340   5.364  17.260  0.3274 -0.1567 -0.1232
 6702TIP3    H141521   3.415   5.313  17.230 -0.4059 -1.1260 -0.3772
 6702TIP3    H241522   3.323   5.425  17.188  0.5486 -0.2921 -0.2931
 6703TIP3   OH241523   2.316   3.596   0.719  0.2318 -0.0414 -0.3976
 6703TIP3    H141524   2.335   3.541   0.795  0.3469 -1.2737 -1.2905
 6703TIP3    H241525   2.373   3.561   0.649 -1.5020 -0.4318 -1.6863
 6704TIP3   OH241526   4.724   4.590  16.607 -0.0998  0.0843 -0.3144
 6704TIP3    H141527   4.772   4.517  16.569 -1.1182  0.1749 -1.8441
 6704TIP3    H241528   4.791   4.655  16.627  0.9278 -1.4580  1.7253
 6705TIP3   OH241529   2.492   0.237  16.848 -0.5273  0.3966 -0.0851
 6705TIP3    H141530   2.493   0.146  16.817  2.3796  0.6742 -1.0864
 6705TIP3    H241531   2.446   0.286  16.780  2.4799  0.3904 -2.3363
 6706TIP3   OH241532   5.641   1.675   1.276 -0.3971  0.1533 -0.1727
 6706TIP3    H141533   5.726   1.637   1.253 -1.1355 -2.6220  1.2980
 6706TIP3    H241534   5.619   1.730   1.201  2.0380 -0.1344 -1.2054
 6707TIP3   OH241535   0.972   2.692   4.908 -0.0732  0.6001  0.2308
 6707TIP3    H141536   0.881   2.672   4.885  0.7496 -1.5105 -1.6042
 6707TIP3    H241537   0.989   2.638   4.984 -0.2967  0.8664  0.4726
 6708TIP3   OH241538   4.680   2.209  16.574  0.0056  0.2958  0.2076
 6708TIP3    H141539   4.689   2.247  16.662 -0.8623  1.3773 -0.1399
 6708TIP3    H241540   4.611   2.144  16.584  0.5690 -0.2621  0.5245
 6709TIP3   OH241541   3.132   5.300   2.482  0.1247 -0.2543 -0.4374
 6709TIP3    H141542   3.046   5.303   2.441  1.2636  1.4521 -2.9115
 6709TIP3    H241543   3.123   5.352   2.562 -1.1812 -0.3411 -0.5075
 6710TIP3   OH241544   0.882   5.248   1.273 -0.4693 -0.2191 -0.0287
 6710TIP3    H141545   0.962   5.221   1.227 -0.0327 -0.3072  0.7595
 6710TIP3    H241546   0.870   5.339   1.246 -2.2396 -1.2081 -3.1048
 6711TIP3   OH241547   5.863   4.409  12.904 -0.1462 -0.0627  0.3082
 6711TIP3    H141548   5.849   4.362  12.986  0.6251 -0.1614  0.3947
 6711TIP3    H241549   5.943   4.459  12.919  0.6599 -0.9728 -0.7602
 6712TIP3   OH241550   2.768   5.759  12.863  0.1800 -0.2718 -0.0094
 6712TIP3    H141551   2.782   5.771  12.769  0.0628  0.0581  0.0136
 6712TIP3    H241552   2.709   5.684  12.869 -0.1452 -0.0368 -0.2213
 6713TIP3   OH241553   3.339   6.675   4.867 -0.7360  0.5513 -0.2115
 6713TIP3    H141554   3.375   6.712   4.786 -1.7830  0.7240 -0.6134
 6713TIP3    H241555   3.398   6.706   4.935 -0.1550  0.8720 -0.8448
 6714TIP3   OH241556   3.135   6.262   5.926  0.1550 -0.5750  0.3802
 6714TIP3    H141557   3.051   6.218   5.916  0.7654 -2.0599  1.4431
 6714TIP3    H241558   3.199   6.201   5.888  0.7078  0.9108 -1.2164
 6715TIP3   OH241559   0.502   1.695   1.081 -0.0975 -0.3310  0.0033
 6715TIP3    H141560   0.475   1.622   1.026  2.4317 -0.9718 -0.5050
 6715TIP3    H241561   0.549   1.754   1.023 -0.0402  0.5250  0.8844
 6716TIP3   OH241562   0.949   0.482  13.447  0.1099  0.1557 -0.1679
 6716TIP3    H141563   0.885   0.538  13.491  0.1593  0.7600 -0.8533
 6716TIP3    H241564   0.922   0.482  13.355  2.0239  1.7631 -0.7895
 6717TIP3   OH241565   2.762   2.564   1.300  0.2922  0.1254 -0.0093
 6717TIP3    H141566   2.839   2.508   1.296  1.0824  1.1166  0.9657
 6717TIP3    H241567   2.740   2.581   1.208  1.5578  0.2630 -0.2997
 6718TIP3   OH241568   5.783   2.308  12.841 -0.1981  0.0627 -0.3923
 6718TIP3    H141569   5.742   2.272  12.762 -0.6118  0.1895 -0.2388
 6718TIP3    H241570   5.868   2.264  12.846  0.1713  0.6393 -1.3417
 6719TIP3   OH241571   6.278   4.567   0.638 -0.0553 -0.0844  0.0843
 6719TIP3    H141572   6.189   4.557   0.605  0.1207 -0.4292 -0.3000
 6719TIP3    H241573   6.285   4.503   0.708  0.4436 -1.3458 -1.0680
 6720TIP3   OH241574   6.282   6.573   5.230 -0.6189  0.0583 -0.2512
 6720TIP3    H141575   6.258   6.523   5.308 -0.2664 -0.8255 -0.6943
 6720TIP3    H241576   6.297   6.662   5.263  0.4053 -0.4900  0.8507
 6721TIP3   OH241577   6.411   6.703  11.132 -0.1235  0.2563 -0.2638
 6721TIP3    H141578   6.387   6.629  11.076 -1.2118 -0.0100  0.5322
 6721TIP3    H241579   6.378   6.680  11.219  1.0329  0.9138  0.3860
 6722TIP3   OH241580   4.259   4.913   4.874  0.1357 -0.1263  0.2409
 6722TIP3    H141581   4.341   4.960   4.855  1.5493 -2.6156 -0.2609
 6722TIP3    H241582   4.241   4.863   4.794 -1.1264 -0.6881  0.8475
 6723TIP3   OH241583   0.951   2.598   4.354 -0.0758  0.0049 -0.8429
 6723TIP3    H141584   0.858   2.618   4.362 -0.0662 -0.3729  0.4823
 6723TIP3    H241585   0.978   2.573   4.442  1.1355 -0.5399 -1.3365
 6724TIP3   OH241586   3.472   0.180  14.908 -0.0295  0.4378 -0.1813
 6724TIP3    H141587   3.438   0.146  14.825 -1.9937  0.5977  0.4974
 6724TIP3    H241588   3.396   0.180  14.967  1.0734  1.2939  1.3206
 6725TIP3   OH241589   5.050   0.001  16.448 -0.4513  0.0764  0.1989
 6725TIP3    H141590   5.099   0.077  16.421 -0.3984 -0.7366 -2.2138
 6725TIP3    H241591   4.967   0.007  16.400 -0.8568 -0.8684  0.7380
 6726TIP3   OH241592   5.721   4.433  13.910 -0.4217  0.0444  0.3048
 6726TIP3    H141593   5.776   4.507  13.885 -0.7138  0.0731 -0.2862
 6726TIP3    H241594   5.770   4.388  13.978  2.0292 -1.9380 -2.5104
 6727TIP3   OH241595   4.822   2.384   0.968 -0.2532  0.1096  0.1612
 6727TIP3    H141596   4.796   2.369   1.059  0.8356  3.4470  1.1767
 6727TIP3    H241597   4.760   2.449   0.936  0.2880  0.0706 -1.0097
 6728TIP3   OH241598   2.035   4.119   6.707  0.5180  0.4743 -0.7679
 6728TIP3    H141599   2.104   4.139   6.643  0.5909 -0.2366 -0.9200
 6728TIP3    H241600   2.062   4.036   6.746 -0.3035  0.1314 -0.9103
 6729TIP3   OH241601   2.632   0.239   0.409 -0.6364 -0.2043  0.1445
 6729TIP3    H141602   2.579   0.247   0.489  1.4750  0.1821  1.5673
 6729TIP3    H241603   2.606   0.314   0.356  0.5417  1.6753  2.1109
 6730TIP3   OH241604   0.017   2.388  11.953 -0.2755  0.9041  0.8385
 6730TIP3    H141605   0.054   2.302  11.973 -0.1065  0.6834 -0.3282
 6730TIP3    H241606  -0.075   2.381  11.978 -0.1748  0.5203  1.1187
 6731TIP3   OH241607   3.494   3.617  13.916  0.0472  0.2995 -0.0497
 6731TIP3    H141608   3.421   3.678  13.929  1.4168  1.9897  0.1266
 6731TIP3    H241609   3.464   3.535  13.953 -1.6686  1.0199  0.2390
 6732TIP3   OH241610   1.285   5.184  12.419 -0.3453 -0.1062 -0.3024
 6732TIP3    H141611   1.266   5.152  12.331 -0.7830  0.6412 -0.4855
 6732TIP3    H241612   1.234   5.128  12.477  1.5656 -2.0106 -0.3208
 6733TIP3   OH241613   4.379   4.336   3.186 -0.5834  0.3512  0.7550
 6733TIP3    H141614   4.463   4.382   3.178 -0.9034  0.6320 -2.8473
 6733TIP3    H241615   4.380   4.272   3.115 -3.8177  1.1330 -0.1420
 6734TIP3   OH241616   2.771   6.126   3.189  0.0339 -0.5348  0.4099
 6734TIP3    H141617   2.864   6.112   3.175 -0.0121 -0.7117  0.2743
 6734TIP3    H241618   2.744   6.053   3.245 -0.0500 -0.5587  0.3385
 6735TIP3   OH241619   3.966   4.897  11.375 -0.2889 -0.0445  0.1222
 6735TIP3    H141620   3.927   4.810  11.365 -0.7088  0.2068 -0.4789
 6735TIP3    H241621   4.045   4.894  11.320  0.1473 -0.3063  0.7484
 6736TIP3   OH241622   0.943   5.531  15.671  0.1406 -0.6185 -0.1336
 6736TIP3    H141623   0.992   5.596  15.722  1.2308 -1.7750  0.3422
 6736TIP3    H241624   1.010   5.482  15.623 -0.7118 -0.9768 -1.0062
 6737TIP3   OH241625   1.542   0.608  12.025 -0.5257  0.1098 -0.1927
 6737TIP3    H141626   1.616   0.561  11.986  0.7692  1.1493  0.8934
 6737TIP3    H241627   1.522   0.678  11.962 -0.5675 -0.1482 -0.4680
 6738TIP3   OH241628   5.238   5.300  14.147 -0.6037  0.2175 -0.1022
 6738TIP3    H141629   5.210   5.214  14.114 -1.2062  0.1310  0.6257
 6738TIP3    H241630   5.259   5.350  14.068  0.7433 -0.9182 -0.5155
 6739TIP3   OH241631   1.141   5.076  14.083 -0.2044  0.0168 -0.1068
 6739TIP3    H141632   1.122   4.990  14.047  3.3779 -1.2826  0.6369
 6739TIP3    H241633   1.057   5.107  14.117 -1.6502 -3.1593 -0.3846
 6740TIP3   OH241634   3.702   4.462  14.831  0.6109 -0.7952  0.6973
 6740TIP3    H141635   3.632   4.401  14.854  1.3845 -1.8653  0.2914
 6740TIP3    H241636   3.744   4.483  14.914 -1.0705  1.0314  1.1640
 6741TIP3   OH241637   6.109   6.211   1.412  0.2866  0.0962  0.1695
 6741TIP3    H141638   6.038   6.149   1.395  0.4924 -0.2429  0.5413
 6741TIP3    H241639   6.076   6.266   1.483  0.7449 -0.6591  0.9971
 6742TIP3   OH241640   6.694   1.606   4.872 -0.0538 -0.3636 -0.0605
 6742TIP3    H141641   6.729   1.589   4.960 -0.6866  0.2082  0.3152
 6742TIP3    H241642   6.757   1.565   4.813  0.9474  0.1515  0.6161
 6743TIP3   OH241643   1.110   1.495   0.598 -0.9562 -0.1877 -0.0456
 6743TIP3    H141644   1.125   1.514   0.690 -1.4368  1.8467 -0.3344
 6743TIP3    H241645   1.093   1.401   0.595 -0.9266 -0.2897  1.9265
 6744TIP3   OH241646   3.555   5.502   0.702  0.0427  0.0359 -0.1159
 6744TIP3    H141647   3.467   5.491   0.738 -0.9851 -2.1279 -2.8530
 6744TIP3    H241648   3.556   5.592   0.670 -0.4290  0.7023  1.6259
 6745TIP3   OH241649   2.093   1.631  14.440  0.1574 -0.5773 -0.2019
 6745TIP3    H141650   2.096   1.670  14.527  0.2549 -1.0033 -0.0163
 6745TIP3    H241651   2.062   1.542  14.454  0.9527 -0.9163 -0.5038
 6746TIP3   OH241652   0.292   1.283   0.726 -0.2247 -0.3560  0.1548
 6746TIP3    H141653   0.202   1.309   0.710  0.2900  0.5040 -1.6644
 6746TIP3    H241654   0.290   1.237   0.810 -2.2248  0.2065  0.4558
 6747TIP3   OH241655   0.969   2.121  15.453  0.1158  0.2134 -0.4624
 6747TIP3    H141656   0.945   2.029  15.464 -0.3725  0.2779 -0.8975
 6747TIP3    H241657   1.017   2.144  15.532 -0.0593 -0.3215 -0.1982
 6748TIP3   OH241658   1.383   0.390  15.450 -0.1689 -0.0125  0.2879
 6748TIP3    H141659   1.453   0.391  15.385  0.2175 -2.4949  0.5796
 6748TIP3    H241660   1.423   0.429  15.528  0.7022 -0.7844  0.2468
 6749TIP3   OH241661   2.715   0.378   3.998 -0.0784 -0.5181  0.3528
 6749TIP3    H141662   2.719   0.329   4.080  0.7921  0.6971  1.0698
 6749TIP3    H241663   2.805   0.403   3.981 -0.5082  0.8857  0.0607
 6750TIP3   OH241664   1.464   6.764  13.529  0.0468 -0.0533  0.0579
 6750TIP3    H141665   1.438   6.714  13.452  2.7468 -0.8163 -0.4442
 6750TIP3    H241666   1.426   6.851  13.514 -0.1193 -0.3917 -1.7503
 6751TIP3   OH241667   1.803   5.367   4.017  0.2577  0.2116  0.0985
 6751TIP3    H141668   1.789   5.458   3.989 -2.3580 -0.1456 -0.0096
 6751TIP3    H241669   1.841   5.374   4.104 -1.4337  1.4965  0.7998
 6752TIP3   OH241670   0.870   3.058  15.385 -0.0956 -0.6220  0.5115
 6752TIP3    H141671   0.776   3.075  15.389  0.1382  1.8709 -1.4886
 6752TIP3    H241672   0.887   3.040  15.292  1.7837  2.6135  0.0793
 6753TIP3   OH241673   1.948   4.201  13.845 -0.1144 -0.4414 -0.1043
 6753TIP3    H141674   1.976   4.144  13.917  0.8947  0.6292  0.3940
 6753TIP3    H241675   1.955   4.147  13.767 -0.5300 -1.4095  0.5085
 6754TIP3   OH241676   1.310   3.354  16.262 -0.3031  0.4010 -0.2800
 6754TIP3    H141677   1.392   3.397  16.286  0.6510 -0.7823 -1.3042
 6754TIP3    H241678   1.268   3.334  16.346  0.2108  1.4224  0.2448
 6755TIP3   OH241679   0.657   2.210  11.724  0.3120  0.0143 -0.2349
 6755TIP3    H141680   0.699   2.284  11.768  0.4349  2.2228 -3.7184
 6755TIP3    H241681   0.567   2.210  11.757  0.9092  0.2343  1.4836
 6756TIP3   OH241682   4.127   2.439  15.005  0.4383 -0.1685 -0.3727
 6756TIP3    H141683   4.148   2.468  14.916  1.2731  2.8228  0.6727
 6756TIP3    H241684   4.207   2.395  15.035 -0.0006 -1.5822 -1.2064
 6757TIP3   OH241685   1.624   2.052  11.381 -0.3983  0.0230 -0.0601
 6757TIP3    H141686   1.588   2.108  11.313  2.0340 -0.7663 -2.1388
 6757TIP3    H241687   1.661   2.112  11.446  1.5713  0.9185 -1.9066
 6758TIP3   OH241688   5.429   1.723  12.913 -0.4730 -0.2743  0.4349
 6758TIP3    H141689   5.407   1.803  12.960  0.8972  0.4837 -0.1435
 6758TIP3    H241690   5.472   1.753  12.833 -0.4827 -1.5826 -0.0937
 6759TIP3   OH241691   2.560   3.676  11.211  0.6291  0.6328 -0.2741
 6759TIP3    H141692   2.531   3.735  11.141  0.3512  1.5690  0.6203
 6759TIP3    H241693   2.492   3.682  11.277  0.8933 -0.2556  0.0874
 6760TIP3   OH241694   3.302   4.549  14.239  0.3947 -0.2088 -0.3788
 6760TIP3    H141695   3.373   4.527  14.179  0.2956  0.3160 -0.6925
 6760TIP3    H241696   3.259   4.625  14.199 -0.5697 -0.7313 -0.3825
 6761TIP3   OH241697   5.171   6.129  13.597 -0.1787 -0.5548 -0.4994
 6761TIP3    H141698   5.085   6.161  13.622 -0.2831  0.4139 -1.9739
 6761TIP3    H241699   5.220   6.124  13.679 -1.5545 -0.9006  0.3219
 6762TIP3   OH241700   4.563   0.600   6.177 -0.4464 -0.5174  0.1676
 6762TIP3    H141701   4.519   0.555   6.105  0.6770 -0.0721 -0.8294
 6762TIP3    H241702   4.639   0.546   6.197  2.3145  1.8970 -2.6571
 6763TIP3   OH241703   1.483   5.574  14.344 -0.2126  0.0695 -0.0678
 6763TIP3    H141704   1.516   5.618  14.266  0.4057 -0.1999  0.0373
 6763TIP3    H241705   1.553   5.581  14.408 -0.5559 -0.0692  0.3306
 6764TIP3   OH241706   4.728   5.861   2.907  0.3824  0.2267  0.6954
 6764TIP3    H141707   4.721   5.766   2.917 -0.7631  0.3311  1.0218
 6764TIP3    H241708   4.743   5.894   2.996  0.5391  0.3732  0.6158
 6765TIP3   OH241709   1.246   5.621  12.147 -0.2011  0.1791 -0.6420
 6765TIP3    H141710   1.273   5.710  12.126  0.3965  0.3208  0.6627
 6765TIP3    H241711   1.174   5.632  12.209 -0.1776 -0.2481 -0.5363
 6766TIP3   OH241712   5.447   5.014   0.076  0.3706 -0.0796 -0.0150
 6766TIP3    H141713   5.474   5.080   0.140 -0.9203  1.0472 -0.5816
 6766TIP3    H241714   5.386   4.958   0.123 -1.4171  1.3826 -0.4550
 6767TIP3   OH241715   5.194   2.409  13.435  0.1890  0.3065  0.3872
 6767TIP3    H141716   5.206   2.433  13.527  0.6917  0.3964  0.2997
 6767TIP3    H241717   5.188   2.313  13.436  1.1069  0.2390  0.4201
 6768TIP3   OH241718   4.689   6.553  14.491  0.3643 -0.6786  0.0576
 6768TIP3    H141719   4.635   6.632  14.483  0.9085 -0.3048  0.0107
 6768TIP3    H241720   4.640   6.485  14.446  0.7663  0.0848 -1.5930
 6769TIP3   OH241721   0.326   6.457  16.898  0.0094  0.1546 -0.0804
 6769TIP3    H141722   0.271   6.508  16.958 -0.8466 -1.5200  0.6353
 6769TIP3    H241723   0.269   6.436  16.825  0.2961  0.0363 -0.2712
 6770TIP3   OH241724   3.254   1.771   5.289 -0.2951 -0.4752  0.4216
 6770TIP3    H141725   3.224   1.723   5.211  0.2348  0.3944 -0.3407
 6770TIP3    H241726   3.302   1.846   5.254 -1.0961  0.6275  1.5794
 6771TIP3   OH241727   6.749   4.732   4.503 -0.5281 -0.3040 -0.9407
 6771TIP3    H141728   6.836   4.728   4.462  0.8836 -2.5749  1.8384
 6771TIP3    H241729   6.751   4.811   4.556  1.0424 -1.6612  1.1930
 6772TIP3   OH241730   3.677   4.990  11.997  0.2050 -0.8162 -0.1814
 6772TIP3    H141731   3.728   5.072  12.000 -0.3432 -0.4298 -0.9461
 6772TIP3    H241732   3.727   4.929  12.050  0.2628  0.2198  1.0080
 6773TIP3   OH241733   4.211   3.792  11.592 -0.0506 -0.2382  0.1144
 6773TIP3    H141734   4.143   3.771  11.528 -0.0877 -0.8114  0.3356
 6773TIP3    H241735   4.263   3.861  11.551 -0.4916 -0.1200 -0.2448
 6774TIP3   OH241736   2.738   5.589  13.175 -0.6291  0.6530 -0.0509
 6774TIP3    H141737   2.665   5.610  13.117 -1.7399 -1.1656  0.6127
 6774TIP3    H241738   2.710   5.620  13.262  0.4262  2.0804 -0.1775
 6775TIP3   OH241739   2.244   5.197  11.754  0.1656 -0.3878 -0.1153
 6775TIP3    H141740   2.173   5.217  11.815  1.3251 -3.5555  2.5562
 6775TIP3    H241741   2.221   5.111  11.719 -0.0148  0.9532 -3.7224
 6776TIP3   OH241742   6.317   5.298   2.630  0.5846  0.1615  0.3256
 6776TIP3    H141743   6.223   5.316   2.624  0.1879 -1.7457  0.0708
 6776TIP3    H241744   6.359   5.377   2.599 -0.9737  0.4621 -1.1476
 6777TIP3   OH241745   2.242   0.514   3.643 -0.2822 -0.0543  0.0051
 6777TIP3    H141746   2.214   0.434   3.599 -1.7775  0.4009  0.0672
 6777TIP3    H241747   2.220   0.500   3.735 -0.5408  0.4134  0.0184
 6778TIP3   OH241748   6.229   2.240  15.140 -0.2683 -0.9341 -0.2604
 6778TIP3    H141749   6.142   2.269  15.113  0.8000  1.2658 -1.5830
 6778TIP3    H241750   6.236   2.267  15.232  0.1177  1.8398 -1.0237
 6779TIP3   OH241751   5.661   4.555  17.053 -0.1101  0.4669  0.3491
 6779TIP3    H141752   5.703   4.473  17.078  1.6674  1.6270  1.3952
 6779TIP3    H241753   5.624   4.537  16.967 -0.8592 -1.7703  1.0696
 6780TIP3   OH241754   3.212   3.675  11.785  0.2133  0.0993  0.3136
 6780TIP3    H141755   3.183   3.765  11.798  1.9436  0.9904 -1.4605
 6780TIP3    H241756   3.307   3.678  11.797  0.5586 -1.0286 -1.6387
 6781TIP3   OH241757   6.321   2.448   3.302  0.1537  0.1507  0.3735
 6781TIP3    H141758   6.381   2.378   3.325  0.4534  0.6817  1.2490
 6781TIP3    H241759   6.331   2.458   3.207 -0.6161 -1.6338  0.0579
 6782TIP3   OH241760   0.900   3.332  16.954  0.1966  0.6330 -0.0666
 6782TIP3    H141761   0.855   3.317  16.871 -2.2419 -0.2383  1.3044
 6782TIP3    H241762   0.874   3.420  16.980 -3.3375 -0.8370  2.0740
 6783TIP3   OH241763   2.670   1.486  13.002  0.4129 -0.2618  0.0784
 6783TIP3    H141764   2.654   1.497  13.096  1.9376  0.4820  0.2911
 6783TIP3    H241765   2.586   1.458  12.966 -0.8639  1.7530  1.2756
 6784TIP3   OH241766   0.755   6.365  10.819  0.2033  0.2214 -0.2582
 6784TIP3    H141767   0.694   6.423  10.773  1.9675  2.1675 -0.2964
 6784TIP3    H241768   0.826   6.350  10.756  1.6283  1.2255  1.0273
 6785TIP3   OH241769   1.085   6.669  13.233  0.6387 -0.6413  0.5326
 6785TIP3    H141770   1.047   6.757  13.236  0.2428 -0.8322  1.9382
 6785TIP3    H241771   1.179   6.684  13.237  0.5490 -0.2843  2.6877
 6786TIP3   OH241772   2.062   4.988  12.313  0.0182 -0.0258 -0.8044
 6786TIP3    H141773   2.095   4.952  12.231 -0.9066  0.4499 -1.4094
 6786TIP3    H241774   2.139   4.997  12.369  0.6599 -0.3614 -1.6227
 6787TIP3   OH241775   2.837   4.228  17.151  0.5462 -0.2403  0.1939
 6787TIP3    H141776   2.908   4.181  17.107 -0.0525 -0.7087 -0.2969
 6787TIP3    H241777   2.810   4.294  17.088  0.0530 -0.5485  0.0825
 6788TIP3   OH241778   4.751   0.605  15.334 -0.2851  0.5792  0.0486
 6788TIP3    H141779   4.839   0.632  15.361 -0.6733  2.4478 -0.3663
 6788TIP3    H241780   4.761   0.516  15.302  1.6833  1.1245 -1.0014
 6789TIP3   OH241781   0.655   3.407   5.986  0.8443  0.7956 -0.3110
 6789TIP3    H141782   0.583   3.454   6.028  1.4716  2.1436 -0.7030
 6789TIP3    H241783   0.683   3.343   6.052  0.1715  1.1610  0.3451
 6790TIP3   OH241784   0.241   3.963  14.448  0.2376  0.0710 -0.5370
 6790TIP3    H141785   0.178   3.896  14.472 -0.8777  0.7831 -1.3738
 6790TIP3    H241786   0.194   4.046  14.460  1.3804  0.6719 -0.1015
 6791TIP3   OH241787   3.992   0.884   3.072  0.6639 -0.2240 -0.1073
 6791TIP3    H141788   3.915   0.879   3.129 -0.0307 -1.4270 -1.0773
 6791TIP3    H241789   4.041   0.804   3.090  0.7762 -0.2998 -0.7295
 6792TIP3   OH241790   6.300   6.540   2.084 -0.0388  0.3986  0.3412
 6792TIP3    H141791   6.331   6.629   2.098  0.5897  0.1686  0.4607
 6792TIP3    H241792   6.286   6.534   1.990 -0.4121  0.7258  0.3744
 6793TIP3   OH241793   4.606   0.955   3.765  0.2315  0.0068  0.1891
 6793TIP3    H141794   4.523   0.909   3.782 -1.0225  1.3630 -1.8366
 6793TIP3    H241795   4.663   0.927   3.837 -1.1378 -2.9117  0.3223
 6794TIP3   OH241796   4.766   4.761  15.809 -0.0841  0.1205 -0.1660
 6794TIP3    H141797   4.746   4.787  15.899  1.8840 -1.0740  0.6956
 6794TIP3    H241798   4.741   4.668  15.804  2.6861 -0.7358  0.2262
 6795TIP3   OH241799   4.840   0.971  15.687  0.1288 -0.3609 -0.2060
 6795TIP3    H141800   4.759   1.018  15.708  1.7715  2.4861  0.3271
 6795TIP3    H241801   4.872   1.013  15.606  0.5894 -2.1328 -0.9934
 6796TIP3   OH241802   5.498   2.596  14.108 -0.0366  0.3578  0.2950
 6796TIP3    H141803   5.450   2.532  14.161  0.1332 -0.4134 -0.4545
 6796TIP3    H241804   5.430   2.650  14.068 -0.3359 -1.0218 -1.1257
 6797TIP3   OH241805   6.427   5.737  12.597  0.3718  0.4920  0.3175
 6797TIP3    H141806   6.430   5.671  12.528 -0.7898  0.6587  0.0814
 6797TIP3    H241807   6.340   5.728  12.636  1.7562 -1.1435  3.3507
 6798TIP3   OH241808   4.007   0.704   3.487 -0.2344 -0.0003  0.7747
 6798TIP3    H141809   4.092   0.743   3.467 -0.4456  0.0088 -0.1229
 6798TIP3    H241810   3.970   0.762   3.554  0.8670 -0.5527  1.9256
 6799TIP3   OH241811   5.490   3.346  16.515 -0.2526  0.4210 -0.0757
 6799TIP3    H141812   5.533   3.316  16.595  1.3823  1.6471 -0.4294
 6799TIP3    H241813   5.440   3.423  16.543 -0.8534  0.0004  0.0208
 6800TIP3   OH241814   2.316   5.615   1.718  0.8302  0.2781  0.1136
 6800TIP3    H141815   2.302   5.531   1.674  1.4588  1.0160 -1.5591
 6800TIP3    H241816   2.228   5.642   1.745  0.6996 -1.2578  1.4142
 6801TIP3   OH241817   4.974   1.095  17.325  0.4035 -0.5601  0.2055
 6801TIP3    H141818   5.031   1.142  17.264  1.1112  0.7674  1.8008
 6801TIP3    H241819   4.904   1.157  17.344  0.2345 -0.9229  0.7881
 6802TIP3   OH241820   5.225   0.568   4.449  0.5558 -0.0646 -0.0104
 6802TIP3    H141821   5.242   0.481   4.486  1.4830  0.8087  1.7632
 6802TIP3    H241822   5.199   0.621   4.524  0.3554  1.2739 -0.9980
 6803TIP3   OH241823   2.166   4.731   0.808 -0.4272 -0.2880  0.2566
 6803TIP3    H141824   2.212   4.714   0.726 -0.1539  3.1104 -0.4349
 6803TIP3    H241825   2.232   4.769   0.865 -1.6088  1.8150  0.3204
 6804TIP3   OH241826   3.929   1.537   3.742  0.6724 -0.3148 -0.6016
 6804TIP3    H141827   3.852   1.489   3.712  0.0769 -0.5792  1.2445
 6804TIP3    H241828   3.930   1.617   3.689 -0.9165 -0.2674 -0.6008
 6805TIP3   OH241829   1.855   6.712   2.965 -0.7588  0.0770 -0.5856
 6805TIP3    H141830   1.923   6.755   2.913  1.6816  0.5686  2.6888
 6805TIP3    H241831   1.802   6.785   2.998 -2.3202 -0.2346 -2.2394
 6806TIP3   OH241832   3.576   4.658  13.688 -0.0072 -0.3447  0.3655
 6806TIP3    H141833   3.647   4.718  13.668 -0.4412  0.2485  0.5585
 6806TIP3    H241834   3.519   4.662  13.611  0.5794 -1.4610 -0.1559
 6807TIP3   OH241835   2.580   3.119   2.352  0.0003 -0.0691  0.2261
 6807TIP3    H141836   2.609   3.132   2.262 -0.2836  0.7763  0.2494
 6807TIP3    H241837   2.484   3.114   2.346 -0.1200  1.3332  0.6184
 6808TIP3   OH241838   2.872   2.927  17.163 -0.3447  0.5144  0.1958
 6808TIP3    H141839   2.821   2.946  17.085 -1.0638 -0.5508  0.3857
 6808TIP3    H241840   2.952   2.979  17.153  0.1106 -0.5120 -1.8290
 6809TIP3   OH241841   3.314   2.005  17.259  0.5375 -1.0064 -0.2801
 6809TIP3    H141842   3.329   2.095  17.230  1.0580 -1.0225 -0.0587
 6809TIP3    H241843   3.255   2.013  17.334  0.9392 -0.8234  0.0145
 6810TIP3   OH241844   5.776   0.213   4.751 -0.2388  0.3209  0.8384
 6810TIP3    H141845   5.754   0.127   4.716  0.2183  0.2110  0.8263
 6810TIP3    H241846   5.743   0.275   4.685 -3.3457  0.3318  2.1929
 6811TIP3   OH241847   0.126   1.467   2.023  0.4130 -0.3646  0.3253
 6811TIP3    H141848   0.180   1.407   1.971 -0.3508 -1.3922  0.6969
 6811TIP3    H241849   0.073   1.410   2.078 -1.3975  0.5847 -0.3521
 6812TIP3   OH241850   5.475   0.847  12.768  0.4960 -0.0818 -0.0920
 6812TIP3    H141851   5.569   0.859  12.779  0.4585 -0.2851  0.4943
 6812TIP3    H241852   5.447   0.919  12.712  1.4138 -1.4326 -2.4386
 6813TIP3   OH241853   5.935   0.624   5.470  0.0035 -0.2609  0.1323
 6813TIP3    H141854   5.922   0.545   5.522  0.5425  0.2674  1.0848
 6813TIP3    H241855   6.018   0.609   5.424 -1.2987 -1.4876 -2.0437
 6814TIP3   OH241856   2.264   6.560  13.041  0.4513 -0.3862 -0.2912
 6814TIP3    H141857   2.180   6.544  13.084 -0.3517 -1.4818 -2.1387
 6814TIP3    H241858   2.323   6.495  13.078 -0.2516 -1.3685 -0.8344
 6815TIP3   OH241859   1.510   5.156  13.148  0.5263 -0.4122  0.4309
 6815TIP3    H141860   1.511   5.168  13.243 -0.4630 -0.3852  0.4520
 6815TIP3    H241861   1.535   5.064  13.136 -0.6525 -0.8034  0.8105
 6816TIP3   OH241862   2.011   0.408  16.789 -0.2135  0.4977 -0.5076
 6816TIP3    H141863   1.929   0.440  16.752  0.2680  1.2947 -0.9076
 6816TIP3    H241864   2.047   0.351  16.721  0.0065  0.8751 -0.7091
 6817TIP3   OH241865   3.490   0.904  16.970  0.2229 -0.2729  0.1224
 6817TIP3    H141866   3.495   0.910  17.066  1.6350 -0.3903  0.0828
 6817TIP3    H241867   3.581   0.893  16.943 -0.0155  0.9646 -1.3248
 6818TIP3   OH241868   4.883   0.490  15.063 -0.4698 -0.1769  0.1479
 6818TIP3    H141869   4.966   0.484  15.016 -0.7284  1.5269 -0.5968
 6818TIP3    H241870   4.836   0.410  15.040  0.8613 -1.0552  0.4065
 6819TIP3   OH241871   3.249   3.835  12.445  0.7457 -0.1182 -0.1360
 6819TIP3    H141872   3.227   3.761  12.390  1.5837 -0.2832 -0.2599
 6819TIP3    H241873   3.298   3.894  12.388 -1.1021  1.2278 -0.4508
 6820TIP3   OH241874   5.174   1.679  12.078  0.2100  0.1116  0.3172
 6820TIP3    H141875   5.204   1.600  12.032 -0.1730 -0.1291  0.4760
 6820TIP3    H241876   5.087   1.696  12.043  1.4207  2.2168 -1.9217
 6821TIP3   OH241877   2.229   4.700   4.825  0.0574  0.1734 -0.2252
 6821TIP3    H141878   2.317   4.738   4.827  0.3885 -0.5931  1.1334
 6821TIP3    H241879   2.205   4.700   4.732  1.1045  1.2409 -0.5190
 6822TIP3   OH241880   1.000   4.330   4.882 -0.0526 -0.2036  0.1774
 6822TIP3    H141881   0.926   4.390   4.873 -0.3025 -0.5024  0.1782
 6822TIP3    H241882   1.075   4.377   4.847 -0.8510 -1.1603 -3.1955
 6823TIP3   OH241883   6.214   5.331   4.930  0.3223  0.1913  0.2066
 6823TIP3    H141884   6.218   5.322   4.834  0.5963 -1.2961  0.3317
 6823TIP3    H241885   6.166   5.253   4.959 -0.2412  0.9040  1.2476
 6824TIP3   OH241886   1.966   3.285  11.524 -0.5274  0.3250 -0.2145
 6824TIP3    H141887   2.048   3.332  11.508 -1.6584  2.8524  0.8521
 6824TIP3    H241888   1.926   3.276  11.438  0.4690 -0.1780 -0.6389
 6825TIP3   OH241889   6.454   5.464   3.096 -0.3972  0.3192  0.4306
 6825TIP3    H141890   6.398   5.525   3.144  0.1604  0.2519  1.1829
 6825TIP3    H241891   6.397   5.425   3.030 -1.6047 -0.8101  2.0844
 6826TIP3   OH241892   3.104   0.394  12.786  0.6494  0.1287 -0.1645
 6826TIP3    H141893   3.158   0.434  12.854 -0.4109  1.6422 -0.1818
 6826TIP3    H241894   3.015   0.398  12.819  0.1963  0.2862 -1.3459
 6827TIP3   OH241895   5.148   0.144   0.732 -0.0625 -0.7406  0.5497
 6827TIP3    H141896   5.059   0.127   0.762  0.1315  0.6496  2.0776
 6827TIP3    H241897   5.202   0.141   0.811  0.8406  0.8567  0.0519
 6828TIP3   OH241898   0.024   0.429  12.450 -0.0582 -0.0435  0.0557
 6828TIP3    H141899   0.100   0.482  12.427 -0.1747 -0.1752 -0.6465
 6828TIP3    H241900   0.060   0.351  12.492  0.1811 -0.0192 -0.1075
 6829TIP3   OH241901   0.604   6.538  14.358 -0.2510  0.8382  0.5690
 6829TIP3    H141902   0.697   6.526  14.377 -0.1821  0.5263  0.0630
 6829TIP3    H241903   0.571   6.590  14.431 -0.1783 -0.9722  1.9574
 6830TIP3   OH241904   2.810   6.776  10.823 -0.1441 -0.4489 -0.1226
 6830TIP3    H141905   2.824   6.735  10.738 -1.6815 -0.8531 -0.2083
 6830TIP3    H241906   2.717   6.796  10.825  0.1087  0.7983  0.9339
 6831TIP3   OH241907   3.273   4.707  11.688  0.2635  0.9534 -0.0462
 6831TIP3    H141908   3.327   4.630  11.705 -1.0738 -0.0723 -0.3054
 6831TIP3    H241909   3.214   4.713  11.763 -0.3802  1.0751 -0.5538
 6832TIP3   OH241910   6.757   0.311  15.275  0.2377  0.1492  0.6751
 6832TIP3    H141911   6.668   0.345  15.265 -0.2030 -0.9458  0.6464
 6832TIP3    H241912   6.770   0.256  15.198  1.6573  1.7200 -0.2719
 6833TIP3   OH241913   2.433   4.335   0.403  0.4388 -0.0429 -0.2472
 6833TIP3    H141914   2.419   4.283   0.323 -1.3457  1.2003 -0.8221
 6833TIP3    H241915   2.413   4.275   0.474 -3.0014  0.0638 -0.9265
 6834TIP3   OH241916   0.948   1.342  14.918 -0.2468 -0.1315 -0.0955
 6834TIP3    H141917   1.005   1.335  14.841 -0.4761  3.4718 -0.7671
 6834TIP3    H241918   0.867   1.297  14.892  0.1775 -0.1789 -1.4297
 6835TIP3   OH241919   0.118   0.388  16.205  0.0038  0.2428 -0.1665
 6835TIP3    H141920   0.182   0.317  16.213  0.3823  0.5771 -0.1836
 6835TIP3    H241921   0.099   0.393  16.111  0.1912  0.3461 -0.2002
 6836TIP3   OH241922   1.767   0.583  13.102  0.2270 -0.1390 -0.4531
 6836TIP3    H141923   1.751   0.509  13.043  0.3612  0.3148 -1.0803
 6836TIP3    H241924   1.749   0.660  13.047  0.1225  0.2900  0.1775
 6837TIP3   OH241925   1.813   1.771  12.756 -0.4923  0.5953 -0.7848
 6837TIP3    H141926   1.814   1.807  12.845 -1.7405 -0.6787 -0.2136
 6837TIP3    H241927   1.899   1.729  12.746 -0.5743  0.1875  0.0843
 6838TIP3   OH241928   0.260   2.670   5.361 -0.1714  0.0613  0.0014
 6838TIP3    H141929   0.189   2.733   5.350 -0.0015 -0.0285 -1.9832
 6838TIP3    H241930   0.340   2.723   5.360 -0.0495 -0.0876 -1.3327
 6839TIP3   OH241931   1.996   2.727   1.007  0.2098 -0.4391  0.3002
 6839TIP3    H141932   2.005   2.662   1.076  0.1811 -0.3059  0.4305
 6839TIP3    H241933   1.901   2.738   0.996  0.2108 -0.8555 -0.1354
 6840TIP3   OH241934   2.586   0.544  14.688  0.3452 -0.1224 -0.1435
 6840TIP3    H141935   2.600   0.493  14.609 -0.3950  1.0260 -1.0435
 6840TIP3    H241936   2.553   0.628  14.657 -0.0923  0.3064  1.3904
 6841TIP3   OH241937   3.479   6.664  15.919 -0.4464 -0.3805 -0.5541
 6841TIP3    H141938   3.515   6.591  15.970  0.0165  0.7811  0.8653
 6841TIP3    H241939   3.422   6.622  15.855  0.1168 -2.0120 -0.0493
 6842TIP3   OH241940   4.547   5.014   3.514  0.2375 -0.1320  0.1424
 6842TIP3    H141941   4.582   5.040   3.429  1.0218 -1.0662  0.1658
 6842TIP3    H241942   4.503   4.931   3.498  0.6005 -0.4340  0.6922
 6843TIP3   OH241943   5.431   5.941   4.120  0.3527  0.5576 -0.8757
 6843TIP3    H141944   5.503   5.994   4.087  1.3275  1.0686  1.7820
 6843TIP3    H241945   5.466   5.852   4.122  0.6949  0.6971 -0.2586
 6844TIP3   OH241946   4.286   0.950   0.206 -0.5561  0.5228  0.5013
 6844TIP3    H141947   4.329   0.866   0.191  0.3068  0.6751  1.9507
 6844TIP3    H241948   4.249   0.974   0.121 -2.0538 -1.9740  0.3359
 6845TIP3   OH241949   2.307   4.847   3.619  0.0848  0.1832 -0.0065
 6845TIP3    H141950   2.255   4.912   3.666 -0.9371 -0.1095 -0.6896
 6845TIP3    H241951   2.390   4.890   3.602 -0.4151  1.1536 -0.0454
 6846TIP3   OH241952   3.624   1.150   4.622 -0.0484  0.2542 -0.7679
 6846TIP3    H141953   3.570   1.181   4.549 -0.0484  1.3962 -0.2957
 6846TIP3    H241954   3.711   1.186   4.605  0.4470 -1.0805 -1.2076
 6847TIP3   OH241955   2.878   0.305  14.346 -0.4155  0.1212  0.7449
 6847TIP3    H141956   2.849   0.245  14.277  0.4803 -1.1784  1.4548
 6847TIP3    H241957   2.968   0.326  14.322 -0.6401  0.9909  0.6450
 6848TIP3   OH241958   6.099   0.488  13.912 -0.2784  0.1081  0.2725
 6848TIP3    H141959   6.161   0.500  13.840  1.8785 -0.7183  1.9009
 6848TIP3    H241960   6.013   0.482  13.868  0.7103  1.4360 -2.0475
 6849TIP3   OH241961   4.480   5.157   5.947  0.3493  0.0429  0.3188
 6849TIP3    H141962   4.532   5.133   6.024 -0.0790  1.1279  0.9697
 6849TIP3    H241963   4.530   5.227   5.906 -0.1841  0.5330  0.4923
 6850TIP3   OH241964   6.061   0.659   3.155  0.4095 -0.1410 -0.0619
 6850TIP3    H141965   6.134   0.683   3.098  0.7910 -1.3594 -0.1219
 6850TIP3    H241966   5.985   0.703   3.117  0.5208 -1.4634 -1.9434
 6851TIP3   OH241967   5.484   0.456  12.548  0.2253 -0.1058  0.1395
 6851TIP3    H141968   5.455   0.439  12.638 -0.8896  0.3180 -0.1256
 6851TIP3    H241969   5.580   0.457  12.554  0.2117 -1.4286  1.0674
 6852TIP3   OH241970   3.556   6.611  10.894  0.1537 -0.4196  0.3297
 6852TIP3    H141971   3.496   6.597  10.967 -0.0188 -0.4457  0.1855
 6852TIP3    H241972   3.507   6.581  10.817 -0.0193  0.4784  0.0796
 6853TIP3   OH241973   5.618   0.399  13.644 -0.2483 -0.4188 -0.2704
 6853TIP3    H141974   5.659   0.358  13.568  0.7281 -1.1378  0.6191
 6853TIP3    H241975   5.572   0.327  13.688  1.1685 -0.5252  1.1040
 6854TIP3   OH241976   5.338   3.231   3.128 -0.2781  0.3273  0.2383
 6854TIP3    H141977   5.394   3.167   3.173  1.7690  0.6597 -1.6940
 6854TIP3    H241978   5.321   3.192   3.043  0.0123  1.8209 -0.5307
 6855TIP3   OH241979   0.956   0.795  14.783 -0.1847  0.1555  0.3178
 6855TIP3    H141980   0.945   0.727  14.851 -3.0724  0.4651  0.2422
 6855TIP3    H241981   0.978   0.746  14.704 -0.8121 -0.5827  0.5876
 6856TIP3   OH241982   1.127   0.253  15.339  0.3021 -0.5351 -0.4129
 6856TIP3    H141983   1.204   0.307  15.357 -1.6993  3.2792 -2.0455
 6856TIP3    H241984   1.155   0.194  15.270  2.5034 -1.4212  1.1277
 6857TIP3   OH241985   4.070   0.217   3.090 -0.4351 -0.0490 -0.6716
 6857TIP3    H141986   4.147   0.261   3.056  0.2681 -0.2772  0.5649
 6857TIP3    H241987   4.041   0.160   3.019  0.0984  0.5832 -1.3985
 6858TIP3   OH241988   0.706   1.143   6.353  0.4176  0.3205  0.1119
 6858TIP3    H141989   0.650   1.145   6.430 -0.5500  1.0274 -0.5890
 6858TIP3    H241990   0.731   1.234   6.338 -0.6713  0.4264 -1.2889
 6859TIP3   OH241991   4.774   3.489  15.542  0.0987  0.1771  0.0262
 6859TIP3    H141992   4.821   3.502  15.459 -0.2328 -1.4241 -0.4586
 6859TIP3    H241993   4.836   3.518  15.609  1.1712 -0.3655 -0.6912
 6860TIP3   OH241994   4.516   1.855  13.943  0.7081 -0.3924 -0.0151
 6860TIP3    H141995   4.530   1.926  13.881 -2.7076  1.4110  0.9859
 6860TIP3    H241996   4.573   1.876  14.017 -0.2127  1.4291  0.2456
 6861TIP3   OH241997   3.341   4.156  13.614  0.4929 -0.2254 -0.2033
 6861TIP3    H141998   3.305   4.189  13.532  0.1462 -2.1229 -0.8616
 6861TIP3    H241999   3.436   4.159  13.601  0.4715  0.5197 -0.2306
 6862TIP3   OH242000   3.847   5.630  14.063  0.0175 -0.4376 -0.2216
 6862TIP3    H142001   3.801   5.656  13.982  0.3014  0.5146 -0.0898
 6862TIP3    H242002   3.782   5.579  14.111 -0.0054 -1.4319 -1.2538
 6863TIP3   OH242003   0.135   5.424   5.909 -0.3060 -0.0774 -0.1827
 6863TIP3    H142004   0.205   5.479   5.944 -0.9149  2.0695 -2.1126
 6863TIP3    H242005   0.181   5.347   5.876  0.6663 -0.4443  1.8198
 6864TIP3   OH242006   5.441   5.421   2.985 -0.1228 -0.1811 -0.2165
 6864TIP3    H142007   5.360   5.405   2.937 -0.1531 -0.1539 -0.1742
 6864TIP3    H242008   5.443   5.351   3.051 -0.9406  0.7756  0.8538
 6865TIP3   OH242009   4.680   1.522   5.067  0.0870 -0.0514  0.2677
 6865TIP3    H142010   4.750   1.587   5.064  0.0082  0.0876  1.2496
 6865TIP3    H242011   4.722   1.444   5.103 -0.3193  0.1085  1.0961
 6866TIP3   OH242012   2.194   1.148  16.868 -0.5947  0.7145 -0.4259
 6866TIP3    H142013   2.254   1.078  16.842 -0.6862  0.5317 -0.1502
 6866TIP3    H242014   2.247   1.228  16.863  0.1237  0.3832  1.2689
 6867TIP3   OH242015   0.497   6.258   4.518 -0.4507 -0.2556 -0.1573
 6867TIP3    H142016   0.558   6.331   4.535 -0.8662  0.5074 -1.7944
 6867TIP3    H242017   0.480   6.262   4.424 -2.5080 -0.8747  0.1428
 6868TIP3   OH242018   2.564   1.324  16.044 -0.7375  0.0210  0.0546
 6868TIP3    H142019   2.538   1.303  16.134  0.2170 -0.3821  0.2459
 6868TIP3    H242020   2.607   1.244  16.013 -1.5038 -0.0191 -0.9391
 6869TIP3   OH242021   4.301   3.882   3.535  0.4401 -0.7592  0.0720
 6869TIP3    H142022   4.241   3.956   3.523  0.3786 -0.7612  0.3534
 6869TIP3    H242023   4.365   3.914   3.599  0.6098 -0.8336 -0.0618
 6870TIP3   OH242024   0.878   4.972   3.346  0.5612  0.1316  0.9386
 6870TIP3    H142025   0.948   4.926   3.300  0.9915  0.8831  0.8291
 6870TIP3    H242026   0.903   5.064   3.342 -1.2290  0.6180 -0.4957
 6871TIP3   OH242027   1.742   2.192  14.404 -0.5880  0.5184  0.2279
 6871TIP3    H142028   1.738   2.096  14.406 -0.2640  0.5012  0.1528
 6871TIP3    H242029   1.673   2.220  14.464  0.0035  0.2208  1.0793
 6872TIP3   OH242030   1.169   2.368   0.859 -0.2088 -0.0153  0.8674
 6872TIP3    H142031   1.194   2.356   0.950 -0.4617 -0.6581  0.8574
 6872TIP3    H242032   1.151   2.279   0.827  0.3067  0.1538  0.0687
 6873TIP3   OH242033   3.747   4.867  12.823  0.1951 -0.4156 -0.4192
 6873TIP3    H142034   3.792   4.952  12.829 -1.5071  0.6078 -1.3366
 6873TIP3    H242035   3.718   4.849  12.912  1.5344 -0.6135 -0.0028
 6874TIP3   OH242036   1.043   1.267  15.898 -0.3055  0.2050 -0.8938
 6874TIP3    H142037   1.130   1.229  15.884  0.3424  0.0773  2.4719
 6874TIP3    H242038   1.060   1.356  15.928 -1.0748 -0.4228  1.7252
 6875TIP3   OH242039   4.842   5.650  15.796 -0.6408  0.0919  0.3756
 6875TIP3    H142040   4.817   5.692  15.713 -1.7701 -0.6851  0.2981
 6875TIP3    H242041   4.837   5.556  15.778 -0.3383 -0.0836  1.1668
 6876TIP3   OH242042   1.961   4.608   4.627 -0.2672  0.1965  0.3383
 6876TIP3    H142043   1.920   4.592   4.543  1.6562  2.9745 -1.2959
 6876TIP3    H242044   2.042   4.656   4.606 -1.0537  3.5539  3.8095
 6877TIP3   OH242045   5.129   4.967  14.256  0.1511  0.2647 -0.2456
 6877TIP3    H142046   5.135   5.047  14.309  0.5240  0.3497 -0.4158
 6877TIP3    H242047   5.156   4.995  14.169 -3.3018  0.8705 -1.2722
 6878TIP3   OH242048   6.410   0.801   1.132 -0.0266  0.1200  0.6889
 6878TIP3    H142049   6.389   0.863   1.062  1.2866 -0.6285 -0.4095
 6878TIP3    H242050   6.346   0.730   1.121  1.2633 -0.8663 -0.9524
 6879TIP3   OH242051   2.861   0.125   3.599  0.0511  0.7483  0.2878
 6879TIP3    H142052   2.807   0.090   3.670  2.6170  0.4110  2.2353
 6879TIP3    H242053   2.899   0.206   3.636  0.4248  1.2780 -1.2019
 6880TIP3   OH242054   2.306   6.750   1.264  0.3293  0.2590  0.6181
 6880TIP3    H142055   2.360   6.698   1.205 -0.1504 -2.0140  2.0556
 6880TIP3    H242056   2.220   6.708   1.261 -0.5975  2.1013  0.4792
 6881TIP3   OH242057   2.876   0.257  13.734 -0.4030 -0.0583 -0.2629
 6881TIP3    H142058   2.878   0.161  13.730  2.6658 -0.0984  0.1880
 6881TIP3    H242059   2.916   0.279  13.817 -2.0006  1.6844  0.1227
 6882TIP3   OH242060   3.005   0.303  14.621  0.4181 -0.1584  0.0665
 6882TIP3    H142061   3.089   0.286  14.578 -0.0088 -1.4457 -0.3055
 6882TIP3    H242062   2.940   0.282  14.554 -0.2095  1.0502  0.2770
 6883TIP3   OH242063   3.590   6.524   5.344 -0.0934 -0.1953  0.2832
 6883TIP3    H142064   3.650   6.594   5.371 -0.8895  1.4509 -1.8818
 6883TIP3    H242065   3.568   6.479   5.425  2.2576  0.5986  1.4422
 6884TIP3   OH242066   2.254   6.119   4.330  0.1119 -1.0605  0.0362
 6884TIP3    H142067   2.283   6.132   4.240  0.3232 -0.9972  0.1111
 6884TIP3    H242068   2.236   6.025   4.337  0.0137 -1.0502 -0.0962
 6885TIP3   OH242069   3.570   0.554   2.722 -0.4303 -0.1452  0.3563
 6885TIP3    H142070   3.492   0.584   2.769 -0.4936  0.6540 -0.2266
 6885TIP3    H242071   3.640   0.611   2.754 -0.7419  1.3616 -1.4860
 6886TIP3   OH242072   2.903   3.243   0.270  0.0549 -0.2067 -0.3604
 6886TIP3    H142073   2.944   3.165   0.234 -0.6080 -0.8242  0.1699
 6886TIP3    H242074   2.896   3.225   0.364 -0.7398  0.1883 -0.3324
 6887TIP3   OH242075   6.572   1.155  14.323 -0.4955  0.5078 -0.3991
 6887TIP3    H142076   6.500   1.092  14.331 -0.9140  1.0908  0.7404
 6887TIP3    H242077   6.629   1.118  14.256 -1.0983 -0.7162 -0.2723
 6888TIP3   OH242078   0.685   6.483  14.683  0.0420  0.1693  0.8129
 6888TIP3    H142079   0.665   6.416  14.748 -1.3119  0.7484  1.0310
 6888TIP3    H242080   0.600   6.523  14.664  0.7853  1.6339  0.4805
 6889TIP3   OH242081   5.809   3.816   4.739 -0.4581 -0.3341  0.0324
 6889TIP3    H142082   5.795   3.745   4.676 -0.6650 -2.5160  2.3687
 6889TIP3    H242083   5.754   3.793   4.814  0.1692  1.8637  1.2532
 6890TIP3   OH242084   2.392   6.328  15.207  0.0833 -0.4509  0.1801
 6890TIP3    H142085   2.396   6.279  15.124 -0.7519 -0.6382  0.2448
 6890TIP3    H242086   2.315   6.293  15.252  0.4669 -0.2738  0.9940
 6891TIP3   OH242087   0.971   0.248   3.676  0.2690 -0.2840  0.3527
 6891TIP3    H142088   0.911   0.322   3.690  0.5907 -0.0264  0.3815
 6891TIP3    H242089   1.058   0.285   3.689  0.4581 -0.5673 -0.0672
 6892TIP3   OH242090   0.007   1.919  10.561  0.4645  0.1618  0.3068
 6892TIP3    H142091   0.058   1.971  10.499  1.4884 -0.3241  0.7232
 6892TIP3    H242092   0.067   1.851  10.592 -0.5405 -0.6616  0.5367
 6893TIP3   OH242093   0.800   3.712  13.387  0.2944  0.3982  1.0450
 6893TIP3    H142094   0.807   3.764  13.468 -0.1984  1.0679  0.6708
 6893TIP3    H242095   0.854   3.635  13.404  1.1870  1.1033  1.5567
 6894TIP3   OH242096   3.172   6.604   0.467  0.0653  0.3944 -0.1499
 6894TIP3    H142097   3.112   6.638   0.401 -1.3941 -0.6864  0.5640
 6894TIP3    H242098   3.118   6.547   0.522  1.7914 -0.7794  0.4212
 6895TIP3   OH242099   5.689   0.379  16.366  0.3387  0.5014 -0.3116
 6895TIP3    H142100   5.733   0.416  16.289  0.3215  1.5657  0.1603
 6895TIP3    H242101   5.726   0.428  16.439  0.3974 -0.5402  0.3648
 6896TIP3   OH242102   3.267   4.059  14.016  0.0489 -0.0005  0.1291
 6896TIP3    H142103   3.266   4.152  13.994  0.5102  0.5266  2.2164
 6896TIP3    H242104   3.180   4.042  14.053  0.5045 -0.0118  1.2135
 6897TIP3   OH242105   4.541   4.726   4.674 -0.2071  0.2332  0.0712
 6897TIP3    H142106   4.595   4.680   4.737  0.0881 -0.4418 -0.6575
 6897TIP3    H242107   4.532   4.664   4.601 -1.2636  0.6558 -0.1711
 6898TIP3   OH242108   6.172   6.627  10.902  0.4299  0.0667 -0.6923
 6898TIP3    H142109   6.235   6.556  10.907  1.0463  0.5826 -0.9848
 6898TIP3    H242110   6.143   6.628  10.810 -0.2446 -0.3599 -0.4957
 6899TIP3   OH242111   3.813   5.139  12.785  0.5205  0.2652 -0.2474
 6899TIP3    H142112   3.880   5.206  12.799 -0.2238  0.6788  1.6582
 6899TIP3    H242113   3.737   5.172  12.833 -1.1511 -0.1065 -2.4475
 6900TIP3   OH242114   5.658   1.802   2.386 -0.0296  0.9410  0.0187
 6900TIP3    H142115   5.730   1.755   2.343  0.1099  0.4321  0.7790
 6900TIP3    H242116   5.689   1.813   2.476 -1.7136 -1.0758  0.9217
 6901TIP3   OH242117   3.234   4.360  12.672  0.1544  0.1960 -0.6406
 6901TIP3    H142118   3.322   4.387  12.697  0.4006 -1.8148  0.9631
 6901TIP3    H242119   3.175   4.420  12.718  0.6923 -0.2892  0.7231
 6902TIP3   OH242120   4.481   5.827  16.688  0.1751 -0.8509 -0.2402
 6902TIP3    H142121   4.448   5.747  16.731 -0.8075  0.0781  0.7965
 6902TIP3    H242122   4.439   5.826  16.602  0.1373 -1.4311 -0.2243
 6903TIP3   OH242123   4.287   0.246   5.851 -0.4807  0.1116  0.5988
 6903TIP3    H142124   4.359   0.182   5.846 -2.1517 -1.8111  0.0792
 6903TIP3    H242125   4.227   0.221   5.781 -2.7648  0.2350  2.4056
 6904TIP3   OH242126   4.150   5.041   5.713  0.3318 -0.0786 -0.2968
 6904TIP3    H142127   4.119   5.006   5.796 -0.8185 -3.2845 -1.8894
 6904TIP3    H242128   4.245   5.035   5.719  0.2694 -0.1498  0.8395
 6905TIP3   OH242129   0.164   5.344  12.115 -0.0499  0.5277  0.1767
 6905TIP3    H142130   0.070   5.363  12.108  0.2110  1.3303 -1.8278
 6905TIP3    H242131   0.203   5.385  12.038  1.6147 -1.9332 -0.4267
 6906TIP3   OH242132   4.079   5.583   0.715  0.1219  0.9149  0.3167
 6906TIP3    H142133   4.150   5.597   0.653 -0.5756  2.0627 -0.2540
 6906TIP3    H242134   4.001   5.572   0.660 -0.4375  1.5231  0.9623
 6907TIP3   OH242135   3.611   4.798  13.978  0.2714 -0.1177 -0.2799
 6907TIP3    H142136   3.653   4.762  13.900 -0.5723 -1.2208 -0.2475
 6907TIP3    H242137   3.618   4.729  14.043 -0.4059  0.2012  0.1372
 6908TIP3   OH242138   0.221   1.737  10.575  0.2118  0.2133 -0.3337
 6908TIP3    H142139   0.226   1.652  10.619  0.0051  0.2238 -0.2897
 6908TIP3    H242140   0.272   1.795  10.630  1.0446 -0.0636 -0.7948
 6909TIP3   OH242141   6.008   4.276  10.248  0.2813  0.0953  0.1740
 6909TIP3    H142142   6.031   4.331  10.322 -0.6141  1.5799 -0.6036
 6909TIP3    H242143   6.044   4.190  10.269 -0.9104  0.1760  2.8360
 6910TIP3   OH242144   1.130   6.389  12.282 -0.4261 -0.0693  0.1259
 6910TIP3    H142145   1.216   6.365  12.317 -0.9742 -0.4960  1.2392
 6910TIP3    H242146   1.103   6.464  12.336  0.2558  1.6568 -1.8027
 6911TIP3   OH242147   5.926   6.122   4.562 -0.5208  0.1244  0.2901
 6911TIP3    H142148   5.947   6.208   4.528 -0.3683  0.0335  0.1526
 6911TIP3    H242149   5.909   6.136   4.655 -0.6699  0.3293  0.2328
 6912TIP3   OH242150   4.204   1.455  10.269 -0.5669  0.7114 -0.2378
 6912TIP3    H142151   4.178   1.400  10.343  3.6762  0.0544  1.0695
 6912TIP3    H242152   4.201   1.396  10.193 -1.2398  0.2606  0.1345
 6913TIP3   OH242153   5.744   1.083   0.087 -0.1965 -0.3057 -0.5793
 6913TIP3    H142154   5.780   1.138   0.157 -2.5864 -1.0477  1.3695
 6913TIP3    H242155   5.701   1.145   0.028 -3.1968  0.1128  1.7813
 6914TIP3   OH242156   1.606   5.021  14.763  0.5575 -0.0006 -0.1129
 6914TIP3    H142157   1.682   5.077  14.780 -0.6664  1.4739  0.8063
 6914TIP3    H242158   1.613   4.998  14.671  0.8944  2.0496 -0.6424
 6915TIP3   OH242159   3.986   5.076   5.932  0.4354  0.0279 -0.0470
 6915TIP3    H142160   3.964   5.081   6.025 -2.2853  2.2113 -0.6701
 6915TIP3    H242161   4.042   5.152   5.917  0.0050  0.2836 -0.3703
 6916TIP3   OH242162   2.218   5.369  14.288 -0.1398 -0.1100 -0.4741
 6916TIP3    H142163   2.183   5.310  14.355  3.2893 -0.6545  1.0590
 6916TIP3    H242164   2.261   5.439  14.337  2.5271 -0.5308 -2.0120
 6917TIP3   OH242165   2.940   4.843   1.532 -0.1573  0.7390 -0.1762
 6917TIP3    H142166   2.874   4.809   1.471  1.9211  1.1275 -2.8303
 6917TIP3    H242167   2.962   4.767   1.586 -1.8778  0.2865 -0.0514
 6918TIP3   OH242168   1.740   4.281  11.564 -0.3918 -0.1898 -0.4034
 6918TIP3    H142169   1.713   4.323  11.482 -2.4842  0.2405  0.4296
 6918TIP3    H242170   1.764   4.354  11.621 -0.8568 -0.3345 -0.0165
 6919TIP3   OH242171   5.894   4.034   1.753  0.1332 -0.0627 -0.5630
 6919TIP3    H142172   5.829   4.031   1.684  0.0925  0.6676 -0.5644
 6919TIP3    H242173   5.880   4.118   1.796  0.8808 -0.0182 -0.3819
 6920TIP3   OH242174   0.140   3.183   4.268 -0.8838 -0.2905  0.2124
 6920TIP3    H142175   0.093   3.191   4.185 -0.8833  1.2941  0.3317
 6920TIP3    H242176   0.230   3.207   4.247 -0.7976 -0.2852  0.5838
 6921TIP3   OH242177   6.591   0.624  14.675  0.1680  0.2702  0.6533
 6921TIP3    H142178   6.561   0.652  14.761 -1.0871 -0.0245  0.3372
 6921TIP3    H242179   6.510   0.609  14.625  0.8570  1.4459 -0.9133
 6922TIP3   OH242180   3.031   3.482  15.296 -0.2377  0.5183  0.2208
 6922TIP3    H142181   3.103   3.456  15.353 -1.7137 -1.5889  1.2882
 6922TIP3    H242182   2.977   3.540  15.351 -1.2615 -0.9068  0.7884
 6923TIP3   OH242183   0.793   0.568   3.083 -0.0043 -1.0158 -0.1515
 6923TIP3    H142184   0.810   0.619   3.004 -2.0312 -1.1966 -0.7704
 6923TIP3    H242185   0.767   0.633   3.148  2.7585 -0.7377  0.7918
 6924TIP3   OH242186   2.129   2.831   3.993  0.1911  0.1959  0.1675
 6924TIP3    H142187   2.105   2.824   3.900  3.1980 -1.7946 -0.6156
 6924TIP3    H242188   2.051   2.802   4.040 -0.3152 -2.2463 -1.9436
 6925TIP3   OH242189   2.686   0.039   3.327  0.1325  0.4812 -0.4025
 6925TIP3    H142190   2.734  -0.014   3.263 -1.4187 -0.6665 -0.6822
 6925TIP3    H242191   2.724   0.014   3.412 -0.9267 -1.5639 -0.4681
 6926TIP3   OH242192   4.778   3.536   1.242 -0.1840  0.5190 -0.2250
 6926TIP3    H142193   4.696   3.570   1.208 -0.9227 -0.5670  0.4039
 6926TIP3    H242194   4.782   3.445   1.211  1.6537  1.0562 -1.7404
 6927TIP3   OH242195   4.430   3.700   5.946 -0.2273 -0.0828  0.3290
 6927TIP3    H142196   4.438   3.606   5.927  0.4691  0.6200 -3.7415
 6927TIP3    H242197   4.508   3.720   5.998  0.7462 -1.4032 -0.5467
 6928TIP3   OH242198   3.387   5.253  11.388 -0.3752 -0.2367  0.0282
 6928TIP3    H142199   3.462   5.199  11.414  0.0682  0.5652  0.4350
 6928TIP3    H242200   3.425   5.325  11.339 -0.9982 -0.4409 -0.7794
 6929TIP3   OH242201   0.123   0.400  11.274  0.2426 -0.0924 -0.0282
 6929TIP3    H142202   0.084   0.414  11.360 -1.5751  0.0927 -0.8151
 6929TIP3    H242203   0.212   0.434  11.281  0.5893 -1.3049  2.1256
 6930TIP3   OH242204   6.695   3.961   2.149 -0.2438 -0.2786 -0.1071
 6930TIP3    H142205   6.790   3.952   2.164 -0.7045 -2.4819  2.2332
 6930TIP3    H242206   6.675   3.894   2.084 -0.3487 -0.6185  0.2712
 6931TIP3   OH242207   0.593   4.048   1.000 -0.2279 -0.3361  0.5081
 6931TIP3    H142208   0.641   4.043   0.917 -0.8849  1.7048 -0.0551
 6931TIP3    H242209   0.551   3.963   1.009 -0.3444 -0.5247 -1.3953
 6932TIP3   OH242210   6.026   4.233  13.767 -0.6268 -0.1520 -0.1561
 6932TIP3    H142211   5.942   4.196  13.741 -0.2591 -0.1601 -1.3652
 6932TIP3    H242212   6.079   4.156  13.791 -0.3819 -0.3071 -1.1482
 6933TIP3   OH242213   5.320   6.678  14.374 -0.0278 -0.1150 -0.4089
 6933TIP3    H142214   5.344   6.666  14.282 -0.3004 -1.3749 -0.3290
 6933TIP3    H242215   5.366   6.757  14.401 -0.4929  0.6735 -1.8231
 6934TIP3   OH242216   4.107   1.244  14.877  0.0802  0.6041 -0.4703
 6934TIP3    H142217   4.186   1.297  14.891  0.4290  0.0849 -0.4508
 6934TIP3    H242218   4.139   1.165  14.835 -0.3600  0.1558  0.0236
 6935TIP3   OH242219   5.129   1.458  15.509 -0.3800  0.2190 -0.0441
 6935TIP3    H142220   5.044   1.469  15.551 -0.8135  0.5532 -0.9892
 6935TIP3    H242221   5.159   1.548  15.493  0.8884  0.1522  1.7101
 6936TIP3   OH242222   3.240   4.024  16.234 -0.4153  0.0555  0.0128
 6936TIP3    H142223   3.291   4.081  16.293  0.9459  0.2364 -1.2870
 6936TIP3    H242224   3.172   3.988  16.290  0.7717  0.2885  1.6999
 6937TIP3   OH242225   1.776   2.048  12.501 -0.0756  0.3014  0.1063
 6937TIP3    H142226   1.865   2.071  12.528  0.4189 -0.2370 -0.9766
 6937TIP3    H242227   1.783   1.957  12.471 -0.8829  0.4163 -0.4525
 6938TIP3   OH242228   2.616   6.610   0.610 -0.0468  0.2303  0.4204
 6938TIP3    H142229   2.587   6.661   0.534 -0.3338 -0.5348  0.0121
 6938TIP3    H242230   2.650   6.676   0.670 -0.9243  0.9674  0.1384
 6939TIP3   OH242231   1.861   2.531  12.305  0.5253 -0.2127 -0.4118
 6939TIP3    H142232   1.928   2.466  12.284  2.1129  1.0092  0.6182
 6939TIP3    H242233   1.812   2.491  12.377 -0.4401 -1.4666 -1.7103
 6940TIP3   OH242234   0.734   3.280   2.424  0.6500 -0.4197  0.7472
 6940TIP3    H142235   0.665   3.345   2.421  1.9465  0.9810 -0.3718
 6940TIP3    H242236   0.698   3.203   2.381 -0.2986  0.1897  0.4400
 6941TIP3   OH242237   3.090   4.474   4.013  0.2797  0.1836 -0.0871
 6941TIP3    H142238   3.083   4.454   4.106  0.2240 -1.4310 -0.4067
 6941TIP3    H242239   3.131   4.397   3.975 -0.4418  0.4687 -1.5261
 6942TIP3   OH242240   0.680   2.567   3.432 -0.3478 -0.2357 -0.2338
 6942TIP3    H142241   0.752   2.556   3.369  0.2734  0.2066  0.3879
 6942TIP3    H242242   0.698   2.502   3.500 -0.4164  0.0281  0.0339
 6943TIP3   OH242243   4.897   3.868  12.515  0.0748  0.5604 -0.0301
 6943TIP3    H142244   4.914   3.962  12.509  0.1469  0.4563 -2.0160
 6943TIP3    H242245   4.971   3.827  12.471  0.3596 -0.4920  1.3623
 6944TIP3   OH242246   5.329   2.405  13.198 -1.2479  0.5062  0.0141
 6944TIP3    H142247   5.378   2.483  13.172  0.4873 -0.6531 -0.4349
 6944TIP3    H242248   5.311   2.417  13.291  0.1199  0.9144  0.2482
 6945TIP3   OH242249   3.202   2.051  11.143  0.3005  0.0941 -0.6929
 6945TIP3    H142250   3.204   2.068  11.049 -1.0711 -0.4600 -0.8432
 6945TIP3    H242251   3.288   2.012  11.162  0.1925 -0.8280 -1.9404
 6946TIP3   OH242252   6.712   2.095   2.364 -0.1894  0.0577  0.7854
 6946TIP3    H142253   6.668   2.027   2.415  1.0781 -0.4400  1.2593
 6946TIP3    H242254   6.716   2.059   2.275  0.2658 -0.3998  0.9844
 6947TIP3   OH242255   2.470   4.576   0.993  0.8211  0.1266 -0.3328
 6947TIP3    H142256   2.435   4.495   1.030 -1.3256 -0.3100 -3.0732
 6947TIP3    H242257   2.430   4.646   1.046 -1.2859 -0.5077 -0.9956
 6948TIP3   OH242258   4.626   6.545   5.708  0.5767  0.1841  0.5667
 6948TIP3    H142259   4.602   6.478   5.773  1.8343 -0.8157  0.0483
 6948TIP3    H242260   4.571   6.524   5.632  2.0789 -1.3342 -0.1781
 6949TIP3   OH242261   6.678   4.563   0.061  0.1254 -0.1122  0.1186
 6949TIP3    H142262   6.639   4.636   0.013 -0.4820 -0.1356  0.5630
 6949TIP3    H242263   6.652   4.486   0.010 -0.2001 -0.1056  0.2693
 6950TIP3   OH242264   2.773   5.005  11.718 -0.2942 -0.0234  0.5326
 6950TIP3    H142265   2.729   5.047  11.792 -0.4059  0.2152  0.3310
 6950TIP3    H242266   2.747   5.057  11.642 -1.0432 -0.9099  0.1710
 6951TIP3   OH242267   6.729   4.393  14.625 -0.7197  0.1152  0.0111
 6951TIP3    H142268   6.681   4.395  14.708 -2.1552 -0.1083 -0.7848
 6951TIP3    H242269   6.673   4.441  14.564 -0.4292 -1.0503 -1.2096
 6952TIP3   OH242270   6.560   6.344  12.430  0.0855 -0.1167 -0.3087
 6952TIP3    H142271   6.604   6.324  12.348  0.0837  0.6791 -0.5091
 6952TIP3    H242272   6.559   6.261  12.478 -0.9658 -0.8786 -1.5851
 6953TIP3   OH242273   0.389   0.970   3.328 -0.1310  0.2482 -0.0731
 6953TIP3    H142274   0.368   1.031   3.257 -0.3200 -0.2181 -0.4186
 6953TIP3    H242275   0.362   0.884   3.296  0.5050 -0.0846  0.2553
 6954TIP3   OH242276   1.984   6.712  16.714 -0.0300 -0.0936  0.2152
 6954TIP3    H142277   1.969   6.746  16.802  1.6040 -1.7793  1.2114
 6954TIP3    H242278   1.914   6.648  16.700  0.6789 -1.0960  1.0502
 6955TIP3   OH242279   5.181   6.640  14.604  1.0588 -0.7195  0.2475
 6955TIP3    H142280   5.246   6.642  14.533  1.4257 -2.1496  0.5065
 6955TIP3    H242281   5.144   6.552  14.600 -1.6540  0.3464 -0.5462
 6956TIP3   OH242282   0.430   1.556   4.635 -0.3345 -0.4165  0.1349
 6956TIP3    H142283   0.518   1.587   4.657 -0.1792 -1.1302  0.5492
 6956TIP3    H242284   0.379   1.569   4.715 -0.1508 -1.6082  0.4778
 6957TIP3   OH242285   6.640   2.208   2.750 -0.2507  0.8558  0.4465
 6957TIP3    H142286   6.625   2.277   2.815 -1.0898  0.0301  1.1603
 6957TIP3    H242287   6.569   2.220   2.686  0.2850  1.3595 -0.0684
 6958TIP3   OH242288   1.962   5.968   4.124  0.1626  0.8084 -0.2336
 6958TIP3    H142289   1.917   6.021   4.189  1.1730  0.8586  0.4309
 6958TIP3    H242290   1.894   5.948   4.059 -0.7186  1.2163  0.5390
 6959TIP3   OH242291   4.644   3.427  11.928 -0.4446 -0.0785  0.1226
 6959TIP3    H142292   4.564   3.448  11.881  0.6444  0.5624 -1.5285
 6959TIP3    H242293   4.679   3.350  11.883 -0.1525 -0.3870  0.8596
 6960TIP3   OH242294   4.851   3.517  14.206 -0.0805  0.7307 -0.4371
 6960TIP3    H142295   4.777   3.474  14.162  0.2018 -0.2032 -0.0071
 6960TIP3    H242296   4.810   3.590  14.254 -0.5001  1.2380 -1.5223
 6961TIP3   OH242297   2.490   1.174  10.714  0.4705 -0.0370  0.1186
 6961TIP3    H142298   2.433   1.228  10.658  0.9967  0.4120  0.0022
 6961TIP3    H242299   2.444   1.091  10.722  0.3483 -0.0878 -0.9358
 6962TIP3   OH242300   4.448   0.452  16.625  0.3313 -0.1171  0.1963
 6962TIP3    H142301   4.497   0.515  16.571 -0.2666  0.3876  0.2216
 6962TIP3    H242302   4.395   0.507  16.683  1.8727 -0.6314  2.2086
 6963TIP3   OH242303   4.278   5.241  11.581 -0.2189  0.2621  0.1009
 6963TIP3    H142304   4.245   5.275  11.498 -0.9762 -1.4887 -0.3673
 6963TIP3    H242305   4.199   5.217  11.630  0.2173  1.1797  1.3100
 6964TIP3   OH242306   4.199   0.489  17.209 -0.3608 -0.3105  0.5488
 6964TIP3    H142307   4.172   0.564  17.157  0.4710 -1.4138 -1.6156
 6964TIP3    H242308   4.156   0.500  17.293 -1.9554  1.4699 -0.4476
 6965TIP3   OH242309   2.691   4.052  15.799 -0.6042 -0.0897 -0.4669
 6965TIP3    H142310   2.786   4.046  15.812 -0.7889 -1.1064  0.4608
 6965TIP3    H242311   2.680   4.046  15.704  0.1251 -2.4547 -0.4622
 6966TIP3   OH242312   1.491   4.136   1.526  0.2010 -0.1769  0.1551
 6966TIP3    H142313   1.578   4.171   1.544  0.6915 -0.7008 -1.0661
 6966TIP3    H242314   1.432   4.186   1.583  1.1451  1.0380  0.0940
 6967TIP3   OH242315   5.482   4.897  14.890 -0.7124  0.2381  0.0690
 6967TIP3    H142316   5.435   4.868  14.812 -1.4867 -0.7367  0.8628
 6967TIP3    H242317   5.558   4.839  14.896 -1.9808 -1.3926  1.3660
 6968TIP3   OH242318   4.158   3.337   6.181 -0.3692  0.0276  0.2853
 6968TIP3    H142319   4.132   3.306   6.094 -0.7542  0.1933  0.3361
 6968TIP3    H242320   4.094   3.406   6.202  0.0824  0.4102  0.4412
 6969TIP3   OH242321   1.039   0.393  12.391  0.1265  0.2223 -0.0289
 6969TIP3    H142322   1.125   0.376  12.353  0.0207 -1.3398  0.3747
 6969TIP3    H242323   1.020   0.484  12.368  1.5153  0.3330 -0.8268
 6970TIP3   OH242324   3.316   3.268  11.906 -0.1743 -0.5951 -0.4606
 6970TIP3    H142325   3.331   3.177  11.932 -0.3684 -1.3134 -2.6868
 6970TIP3    H242326   3.243   3.297  11.961 -0.1342 -1.7910  0.2498
 6971TIP3   OH242327   2.383   2.095   5.054 -0.0046 -0.6521  0.2864
 6971TIP3    H142328   2.364   2.184   5.024  2.0215 -0.3347 -0.2172
 6971TIP3    H242329   2.478   2.094   5.066  0.2198 -3.1754 -1.1147
 6972TIP3   OH242330   4.013   2.907   4.546 -0.5772 -0.1163  0.0838
 6972TIP3    H142331   4.048   2.834   4.598 -1.4460  0.0380  0.9318
 6972TIP3    H242332   4.088   2.964   4.531 -0.6573  1.0839  3.3126
 6973TIP3   OH242333   5.356   3.494   5.342 -0.1802  0.3282 -0.9130
 6973TIP3    H142334   5.431   3.535   5.299 -1.4342  2.7515 -0.9358
 6973TIP3    H242335   5.386   3.481   5.433  0.0355  2.0822 -0.6911
 6974TIP3   OH242336   5.623   3.303  15.361  0.1656 -0.5497 -0.5287
 6974TIP3    H142337   5.611   3.347  15.277  4.8219 -1.8332 -2.1397
 6974TIP3    H242338   5.605   3.370  15.426  1.0630  1.9714 -2.6963
 6975TIP3   OH242339   2.039   6.100  12.773 -0.6526 -0.2332  0.0381
 6975TIP3    H142340   2.113   6.125  12.829  0.0791 -2.3078  0.0551
 6975TIP3    H242341   2.069   6.023  12.725 -1.5133  1.0394 -2.7504
 6976TIP3   OH242342   3.863   3.359  17.079 -0.1707  0.0884 -0.5269
 6976TIP3    H142343   3.825   3.350  16.991  0.2431  0.0985 -0.7063
 6976TIP3    H242344   3.789   3.388  17.133 -0.1406  1.4013 -1.1371
 6977TIP3   OH242345   5.185   2.971   2.118 -0.2933 -0.6701 -0.0015
 6977TIP3    H142346   5.247   2.973   2.045 -0.2672  3.3678 -0.0936
 6977TIP3    H242347   5.099   2.972   2.077 -0.4291 -2.6612  0.1318
 6978TIP3   OH242348   5.690   1.649   6.371  0.1555 -0.3218 -0.5174
 6978TIP3    H142349   5.603   1.614   6.351 -0.2252  0.7699 -0.8712
 6978TIP3    H242350   5.688   1.662   6.466 -0.2531  0.1376 -0.5818
 6979TIP3   OH242351   3.511   6.652  12.321 -0.0092  0.1100  0.5911
 6979TIP3    H142352   3.542   6.565  12.294 -1.2633  0.4312 -2.2667
 6979TIP3    H242353   3.427   6.635  12.364 -1.6842 -0.0767 -2.4407
 6980TIP3   OH242354   1.303   1.655  10.946 -0.2585 -0.6089 -0.6492
 6980TIP3    H142355   1.343   1.712  11.011 -2.6895 -0.7932  1.1287
 6980TIP3    H242356   1.303   1.707  10.865 -0.9427  1.3068  0.5300
 6981TIP3   OH242357   5.321   6.150  10.708  0.0679  0.6008  0.2853
 6981TIP3    H142358   5.400   6.105  10.677 -1.2441 -0.1689 -2.2033
 6981TIP3    H242359   5.316   6.128  10.801  2.2867 -0.0780  0.2992
 6982TIP3   OH242360   4.691   1.341   3.707 -0.2063  0.3469  0.0233
 6982TIP3    H142361   4.736   1.262   3.737 -0.0491  0.5362  0.2924
 6982TIP3    H242362   4.599   1.327   3.731  0.2577  1.5285  2.8920
 6983TIP3   OH242363   1.191   3.427   2.461  0.6163  0.0464  0.1923
 6983TIP3    H142364   1.162   3.439   2.371  1.0906 -0.1324  0.0151
 6983TIP3    H242365   1.168   3.509   2.505 -0.5798 -0.2637  0.1718
 6984TIP3   OH242366   5.771   1.513  13.631 -0.3447  0.7797  0.0245
 6984TIP3    H142367   5.787   1.577  13.701  1.9227  0.2069  0.1107
 6984TIP3    H242368   5.718   1.445  13.673 -0.6392  1.3681  0.6350
 6985TIP3   OH242369   0.430   6.437  12.290  0.0828  0.0605  0.0117
 6985TIP3    H142370   0.364   6.494  12.331 -1.6805 -2.5599  1.0848
 6985TIP3    H242371   0.480   6.402  12.364  0.2073 -0.8421 -0.4953
 6986TIP3   OH242372   5.500   3.318   1.141  0.1075  0.1303  1.0420
 6986TIP3    H142373   5.516   3.292   1.232  1.2640  1.6363  1.3222
 6986TIP3    H242374   5.548   3.400   1.131 -1.0207  0.6498 -0.5852
 6987TIP3   OH242375   4.843   2.072   4.639  0.0782 -0.3476  0.3210
 6987TIP3    H142376   4.836   1.981   4.609  0.0516 -0.3090  0.2091
 6987TIP3    H242377   4.924   2.073   4.691  0.9651 -0.0821 -0.9972
 6988TIP3   OH242378   6.516   6.071  16.034 -0.1756  0.0954 -0.1031
 6988TIP3    H142379   6.602   6.047  15.999 -0.5356 -1.4352 -0.0306
 6988TIP3    H242380   6.533   6.144  16.093  1.2300 -0.7866  0.6304
 6989TIP3   OH242381   0.152   1.001  13.376  0.1084 -0.0149 -0.0309
 6989TIP3    H142382   0.165   1.027  13.467 -0.7852 -1.3638  0.5017
 6989TIP3    H242383   0.093   1.069  13.341 -1.8468 -0.9600  1.2207
 6990TIP3   OH242384   5.268   6.047   5.656 -0.7676 -0.2354  0.1675
 6990TIP3    H142385   5.226   6.030   5.740  1.4837  2.9336  2.1576
 6990TIP3    H242386   5.254   6.141   5.640  0.0520 -0.4553 -2.3206
 6991TIP3   OH242387   2.215   2.268  11.209  0.3987  0.1527  0.0640
 6991TIP3    H142388   2.209   2.355  11.248 -1.1525 -0.6510  1.7520
 6991TIP3    H242389   2.251   2.283  11.122  3.0174  2.1558  1.3531
 6992TIP3   OH242390   3.435   4.107   3.390  0.3141 -0.0020  0.1058
 6992TIP3    H142391   3.387   4.186   3.365  0.9230  0.1416 -0.6330
 6992TIP3    H242392   3.422   4.100   3.484 -0.4133  0.5305  0.0526
 6993TIP3   OH242393   4.201   4.412  13.089 -0.1996 -0.0340 -0.2266
 6993TIP3    H142394   4.284   4.365  13.094  0.0331  0.1556 -1.7226
 6993TIP3    H242395   4.137   4.354  13.131  0.6631 -0.2230  0.8477
 6994TIP3   OH242396   5.026   6.101   1.766  0.1025  0.0865  0.4636
 6994TIP3    H142397   5.109   6.110   1.813 -0.5634  0.1656  1.6718
 6994TIP3    H242398   5.026   6.010   1.736  0.8884  0.2574 -0.0833
 6995TIP3   OH242399   2.357   0.978   4.038 -0.1985  0.1024  0.4745
 6995TIP3    H142400   2.343   0.884   4.038  1.1397 -0.1323 -1.2316
 6995TIP3    H242401   2.443   0.990   4.078  0.7884  0.3526 -1.6227
 6996TIP3   OH242402   4.774   0.858  16.165  0.4885  0.5381  0.3042
 6996TIP3    H142403   4.694   0.814  16.138 -0.8740  2.5608  0.8225
 6996TIP3    H242404   4.840   0.830  16.102 -0.9954 -0.0285 -1.0356
 6997TIP3   OH242405   3.937   3.803   3.770  0.2669 -0.3034 -0.8103
 6997TIP3    H142406   3.912   3.870   3.706 -1.2655 -0.0007  0.0779
 6997TIP3    H242407   3.979   3.734   3.717  3.5215  2.0257 -1.5607
 6998TIP3   OH242408   0.496   5.439  11.716 -0.1385  0.2985  0.4471
 6998TIP3    H142409   0.522   5.467  11.803 -1.7892 -0.0351  1.0964
 6998TIP3    H242410   0.558   5.370  11.693  0.7589  0.8894  1.0352
 6999TIP3   OH242411   2.011   2.204  13.602  0.1399 -0.1294  0.2256
 6999TIP3    H142412   2.094   2.182  13.644 -0.3513 -0.6473  0.9810
 6999TIP3    H242413   1.981   2.121  13.565  1.0623  0.5320 -2.1341
 7000TIP3   OH242414   5.583   5.890  14.847 -0.2500  0.0270 -0.1624
 7000TIP3    H142415   5.500   5.908  14.891 -0.9032  1.4438 -1.8635
 7000TIP3    H242416   5.626   5.825  14.903 -1.5513  0.8173  1.8689
 7001TIP3   OH242417   2.511   1.262  13.706  0.0654 -0.8993  0.2469
 7001TIP3    H142418   2.585   1.306  13.747  0.3965 -2.2624  1.1759
 7001TIP3    H242419   2.545   1.229  13.623  0.2248 -0.7308  0.2443
 7002TIP3   OH242420   5.030   3.591  17.186  0.9639  0.2254  0.1012
 7002TIP3    H142421   4.936   3.573  17.175  1.0874 -0.4284  0.0427
 7002TIP3    H242422   5.070   3.504  17.193  1.8335  0.4047 -2.0346
 7003TIP3   OH242423   4.126   2.692  14.563  0.8438  0.1302  0.1380
 7003TIP3    H142424   4.033   2.672  14.553  0.6150  1.1925 -0.0539
 7003TIP3    H242425   4.150   2.653  14.648  0.6725 -1.6135 -0.5736
 7004TIP3   OH242426   4.378   4.423  14.356 -0.2825 -0.3360  0.1097
 7004TIP3    H142427   4.469   4.452  14.362 -0.1091 -0.4486 -1.5415
 7004TIP3    H242428   4.359   4.425  14.262 -1.1394 -2.8550  0.1802
 7005TIP3   OH242429   6.087   1.689  14.594 -0.1295 -0.0458  0.2518
 7005TIP3    H142430   6.148   1.761  14.584  0.4853 -0.7616 -1.6112
 7005TIP3    H242431   6.142   1.613  14.613 -0.5803 -0.3949  0.1890
 7006TIP3   OH242432   4.358   4.297  12.012 -0.4464 -0.5316  0.2868
 7006TIP3    H142433   4.302   4.292  11.935 -1.3015  1.9659  0.6385
 7006TIP3    H242434   4.298   4.315  12.084  0.6480  1.3800  0.8025
 7007TIP3   OH242435   5.438   2.349   2.812 -0.1220  0.2995 -0.1450
 7007TIP3    H142436   5.379   2.276   2.832 -0.4506  0.4539 -0.5466
 7007TIP3    H242437   5.485   2.364   2.894  0.6016 -0.9508 -0.3107
 7008TIP3   OH242438   1.154   4.169  12.053 -0.2141  0.2390 -0.1094
 7008TIP3    H142439   1.210   4.092  12.059 -0.6602 -0.1260 -0.5706
 7008TIP3    H242440   1.212   4.243  12.070  0.9106  0.0772 -2.8084
 7009TIP3   OH242441   1.124   2.038  13.927  0.0279  0.2698 -0.6612
 7009TIP3    H142442   1.036   2.049  13.891 -0.2847 -0.4574 -0.1394
 7009TIP3    H242443   1.162   1.967  13.875 -1.0883 -2.1034  1.5380
 7010TIP3   OH242444   5.773   2.233  16.857  0.1188  0.4323  0.0637
 7010TIP3    H142445   5.819   2.180  16.922  1.7509 -1.4527 -2.4166
 7010TIP3    H242446   5.723   2.170  16.805  0.4348  1.5550 -1.6953
 7011TIP3   OH242447   4.108   2.604   1.791 -0.6518  0.4384  0.0008
 7011TIP3    H142448   4.176   2.549   1.750  0.8809  1.5706  0.9290
 7011TIP3    H242449   4.026   2.566   1.760  0.3495 -1.7723 -0.1903
 7012TIP3   OH242450   5.370   6.149   2.512  0.2359  0.7664  0.5504
 7012TIP3    H142451   5.365   6.124   2.420 -0.1340  0.6827  0.5910
 7012TIP3    H242452   5.300   6.099   2.555  1.4435 -0.4776  1.1739
 7013TIP3   OH242453   6.655   4.718  11.860 -0.0859 -0.0210  0.5527
 7013TIP3    H142454   6.685   4.658  11.792  2.1577  0.2838  1.1906
 7013TIP3    H242455   6.637   4.661  11.936  1.1610 -0.0098  0.8747
 7014TIP3   OH242456   6.150   1.800   1.144  0.2806  0.0848  0.1813
 7014TIP3    H142457   6.084   1.787   1.212 -1.5653  4.6350 -0.4206
 7014TIP3    H242458   6.107   1.770   1.063  0.1077  0.3080  0.1901
 7015TIP3   OH242459   3.525   1.081   6.159  0.0234 -0.9289  0.0332
 7015TIP3    H142460   3.606   1.032   6.143  0.4459 -0.6480  1.1526
 7015TIP3    H242461   3.472   1.023   6.214 -0.0897 -0.7106  0.1579
 7016TIP3   OH242462   1.412   2.046   5.718 -0.1642  0.3770 -0.1034
 7016TIP3    H142463   1.356   1.970   5.705  1.8915 -1.6449  1.9487
 7016TIP3    H242464   1.492   2.026   5.670  0.4329  1.2060  0.5112
 7017TIP3   OH242465   0.556   0.297  15.457 -0.0492 -0.0115 -0.3123
 7017TIP3    H142466   0.528   0.279  15.367  0.9254  0.2589 -0.6829
 7017TIP3    H242467   0.495   0.365  15.487 -2.1754 -2.0629  0.2500
 7018TIP3   OH242468   2.180   0.069   3.283 -0.0350 -0.3849 -0.1660
 7018TIP3    H142469   2.173  -0.023   3.305 -1.3197 -0.7959 -2.0963
 7018TIP3    H242470   2.090   0.098   3.268  0.4197  0.9145 -0.5741
 7019TIP3   OH242471   5.806   0.033  11.915 -0.0401  0.3637  0.1748
 7019TIP3    H142472   5.713   0.044  11.930  0.0467 -0.1178  1.1886
 7019TIP3    H242473   5.816   0.030  11.820 -0.9144  1.4983  0.0379
 7020TIP3   OH242474   0.192   5.066   4.896 -0.0635 -0.1628 -0.0395
 7020TIP3    H142475   0.110   5.069   4.946 -1.3946  1.5484 -2.1156
 7020TIP3    H242476   0.215   5.158   4.883  0.9150 -0.5727 -1.4422
 7021TIP3   OH242477   3.124   6.649  15.561 -0.7478 -0.1815  0.7223
 7021TIP3    H142478   3.160   6.575  15.610 -1.7708 -0.9086  0.4174
 7021TIP3    H242479   3.194   6.675  15.501 -0.2627 -0.6914  1.0614
 7022TIP3   OH242480   1.011   3.217   4.440 -0.1785 -0.3000  0.1393
 7022TIP3    H142481   1.048   3.134   4.411  0.4668  0.1362 -0.3121
 7022TIP3    H242482   1.043   3.281   4.377 -1.4197  0.1563 -0.0691
 7023TIP3   OH242483   5.824   5.434  17.249  0.1695 -0.6205  0.0343
 7023TIP3    H142484   5.743   5.384  17.237 -0.3089  0.1190  0.1037
 7023TIP3    H242485   5.810   5.514  17.199  0.9743 -0.5983 -0.1690
 7024TIP3   OH242486   2.912   6.749   4.239  0.1522 -0.0052 -0.6359
 7024TIP3    H142487   2.838   6.693   4.216  0.2068 -0.4546  0.2521
 7024TIP3    H242488   2.956   6.704   4.310 -0.1408  1.4219  0.5125
 7025TIP3   OH242489   0.475   2.501  16.428 -0.7712 -0.0574 -0.1677
 7025TIP3    H142490   0.521   2.554  16.363  0.2245  0.6418  1.0665
 7025TIP3    H242491   0.484   2.550  16.510 -2.5213 -0.6083  0.4010
 7026TIP3   OH242492   6.430   2.912   6.529 -0.1430 -0.1917 -0.3771
 7026TIP3    H142493   6.374   2.908   6.607 -0.4889 -3.3615 -0.6542
 7026TIP3    H242494   6.379   2.867   6.461  1.0608  0.5735 -1.8325
 7027TIP3   OH242495   3.027   0.169  17.180  0.1969 -0.4425 -0.0890
 7027TIP3    H142496   3.084   0.111  17.128 -1.3726 -1.9722 -0.1921
 7027TIP3    H242497   3.015   0.122  17.263 -2.1769 -0.9665 -0.6723
 7028TIP3   OH242498   1.939   2.222   2.629  0.0574  0.2422  0.0536
 7028TIP3    H142499   1.929   2.149   2.568 -0.8042  0.5052 -0.1259
 7028TIP3    H242500   1.960   2.297   2.573 -0.7947  0.4963  0.0730
 7029TIP3   OH242501   5.116   5.580   6.751  0.0925  0.6574  0.0042
 7029TIP3    H142502   5.053   5.650   6.769  1.4034  1.6742  0.8322
 7029TIP3    H242503   5.164   5.609   6.674 -0.0323  0.1806 -0.2581
 7030TIP3   OH242504   3.852   6.535   1.542  0.5171 -0.5062  0.3797
 7030TIP3    H142505   3.903   6.470   1.494 -0.4378  0.4804 -2.1154
 7030TIP3    H242506   3.796   6.484   1.600  0.6134 -1.8744 -0.6674
 7031TIP3   OH242507   4.246   3.062   4.634 -0.6002  0.2778  0.0164
 7031TIP3    H142508   4.248   3.157   4.642  0.6606  0.4215 -1.5332
 7031TIP3    H242509   4.271   3.029   4.720  1.9542  1.4143 -0.2262
 7032TIP3   OH242510   5.679   4.753  13.769  0.0424  0.2137 -0.1780
 7032TIP3    H142511   5.631   4.817  13.715  1.2369  2.9184  1.7198
 7032TIP3    H242512   5.616   4.727  13.836  0.0289  0.7170  0.0114
 7033TIP3   OH242513   6.185   1.502   2.770 -0.0479  0.4233 -0.2014
 7033TIP3    H142514   6.163   1.582   2.819 -2.3478  0.1065 -0.5811
 7033TIP3    H242515   6.202   1.437   2.838 -0.9906  0.5567  0.1878
 7034TIP3   OH242516   0.446   5.569   3.270 -0.0211  0.0292 -0.0695
 7034TIP3    H142517   0.413   5.543   3.356  0.2619 -0.8605 -0.2194
 7034TIP3    H242518   0.495   5.649   3.287 -0.1473 -0.0185  0.5627
 7035TIP3   OH242519   5.050   3.733   6.070 -0.2366  0.0264  0.8118
 7035TIP3    H142520   5.042   3.792   6.145  1.6187  0.5265  0.6649
 7035TIP3    H242521   5.058   3.791   5.994 -0.1139 -0.4531  0.4529
 7036TIP3   OH242522   2.306   3.046   2.632  0.3858  0.1122 -0.0119
 7036TIP3    H142523   2.311   3.107   2.706  0.7946  0.1343 -0.0608
 7036TIP3    H242524   2.234   2.987   2.655  1.0132 -0.3682  0.7736
 7037TIP3   OH242525   0.756   6.624   0.109 -0.1378  0.7812 -0.1266
 7037TIP3    H142526   0.721   6.535   0.117  2.0128 -0.5436 -3.5599
 7037TIP3    H242527   0.703   6.665   0.041  0.2280  1.3837 -0.0540
 7038TIP3   OH242528   4.307   0.616  11.993 -0.2387 -0.2395  0.5461
 7038TIP3    H142529   4.345   0.624  12.081 -1.0326 -0.3878  0.9132
 7038TIP3    H242530   4.213   0.609  12.008 -0.3025 -1.4074 -0.2485
 7039TIP3   OH242531   4.666   2.051  14.233 -0.8073  0.1875  0.5461
 7039TIP3    H142532   4.683   1.960  14.208  0.0363 -0.8744  4.3224
 7039TIP3    H242533   4.743   2.099  14.203 -0.6464 -0.5991 -0.3321
 7040TIP3   OH242534   1.318   3.439   3.384  0.0955 -0.4615  0.1679
 7040TIP3    H142535   1.355   3.491   3.456 -1.7356 -0.0979  0.9011
 7040TIP3    H242536   1.334   3.348   3.408 -0.8590 -0.3550  1.2624
 7041TIP3   OH242537   5.477   5.976   5.464 -0.2124 -0.4244  0.6891
 7041TIP3    H142538   5.549   6.036   5.484  0.7620 -1.6626  1.0836
 7041TIP3    H242539   5.410   5.995   5.529  0.7975 -0.8995  1.9054
 7042TIP3   OH242540   0.368   6.111  17.245  0.0815 -0.3562 -0.3766
 7042TIP3    H142541   0.324   6.193  17.221  2.1674  0.4776 -1.6807
 7042TIP3    H242542   0.358   6.105  17.340  0.7337  1.9976 -0.0842
 7043TIP3   OH242543   3.913   1.540  11.028 -0.2759 -0.2177  0.0392
 7043TIP3    H142544   3.868   1.601  11.087  0.1216 -1.5888  1.8483
 7043TIP3    H242545   3.849   1.520  10.961 -0.5889  1.7782 -0.3417
 7044TIP3   OH242546   1.130   4.550  14.589  0.1507  0.4144 -0.1674
 7044TIP3    H142547   1.178   4.625  14.553 -1.1935  1.9791  1.0785
 7044TIP3    H242548   1.065   4.528  14.522 -0.7316  1.7029  0.2150
 7045TIP3   OH242549   1.396   5.497   3.175 -0.7261 -0.5862 -0.2650
 7045TIP3    H142550   1.334   5.555   3.131  0.1604 -0.4618 -1.3974
 7045TIP3    H242551   1.400   5.419   3.119  1.0852 -0.0624 -0.9262
 7046TIP3   OH242552   5.041   5.649   5.649  0.2431 -0.0964 -0.0613
 7046TIP3    H142553   4.960   5.698   5.664 -0.0970 -0.6899  0.0922
 7046TIP3    H242554   5.048   5.642   5.554 -0.1358 -0.4385 -0.0683
 7047TIP3   OH242555   2.144   5.910  10.775 -0.0106 -0.2436  0.1484
 7047TIP3    H142556   2.187   5.913  10.861  0.2861  0.6578 -0.0194
 7047TIP3    H242557   2.217   5.908  10.713 -0.1790  1.4956 -0.1503
 7048TIP3   OH242558   1.422   4.137   0.443  0.1895 -0.2265  0.1318
 7048TIP3    H142559   1.471   4.058   0.466  0.6817  0.0605  0.0888
 7048TIP3    H242560   1.488   4.196   0.406 -0.5475 -0.6724 -2.0440
 7049TIP3   OH242561   1.264   2.096   6.587  0.1875  0.0926 -0.1318
 7049TIP3    H142562   1.173   2.121   6.576 -0.1991 -0.8853  0.6095
 7049TIP3    H242563   1.261   2.001   6.604  1.3474  0.0190 -0.2280
 7050TIP3   OH242564   3.009   3.573   3.620  0.0788 -0.0105 -0.1173
 7050TIP3    H142565   2.987   3.523   3.541 -2.1524  0.6019  0.0403
 7050TIP3    H242566   2.946   3.646   3.620  1.1533  0.9610  1.3448
 7051TIP3   OH242567   4.093   0.697  15.078 -0.4280  0.1761  0.7328
 7051TIP3    H142568   4.127   0.651  15.155 -1.3720 -2.1213 -0.1221
 7051TIP3    H242569   4.012   0.737  15.109 -0.4534 -0.1481  1.1043
 7052TIP3   OH242570   2.973   6.416  11.332 -0.0650  0.1706  0.2072
 7052TIP3    H142571   2.956   6.330  11.294 -2.0372  0.9012 -0.7253
 7052TIP3    H242572   3.068   6.425  11.329  0.2692 -2.3747  1.3295
 7053TIP3   OH242573   1.886   4.821  12.060  0.0775 -0.2331 -0.0845
 7053TIP3    H142574   1.910   4.903  12.104 -1.0590 -0.1829  0.4632
 7053TIP3    H242575   1.915   4.834  11.969  1.0127  0.2806  0.2695
 7054TIP3   OH242576   2.041   0.032  13.069  0.0022  0.5191 -0.1983
 7054TIP3    H142577   1.993  -0.032  13.121 -1.4938  1.6698 -0.0824
 7054TIP3    H242578   2.057  -0.012  12.986  0.5659 -0.6034  0.4830
 7055TIP3   OH242579   5.554   3.884  13.743  0.4133 -0.6668 -0.5607
 7055TIP3    H142580   5.552   3.977  13.720 -1.3231 -0.7040 -0.7229
 7055TIP3    H242581   5.574   3.883  13.836 -0.4176 -0.0619 -0.3633
 7056TIP3   OH242582   4.537   2.074   4.814  0.2758 -0.2074 -0.3837
 7056TIP3    H142583   4.592   2.146   4.784 -1.4937  1.0299 -0.8590
 7056TIP3    H242584   4.453   2.115   4.833  0.0876 -1.6558  2.3154
 7057TIP3   OH242585   5.961   1.253   3.821 -0.1821  0.7544 -0.4347
 7057TIP3    H142586   6.017   1.237   3.744 -2.2544 -1.0075 -1.6875
 7057TIP3    H242587   5.966   1.172   3.871  0.3169  1.5140  0.7950
 7058TIP3   OH242588   6.577   6.595   2.345  0.0883 -0.0582 -0.4516
 7058TIP3    H142589   6.568   6.566   2.254 -0.3845  0.3374 -0.5338
 7058TIP3    H242590   6.548   6.686   2.344 -1.2400 -0.4504  0.3381
 7059TIP3   OH242591   0.636   2.994   2.431  0.6238  0.2228 -0.2193
 7059TIP3    H142592   0.611   2.980   2.522  0.8769 -0.7911 -0.2921
 7059TIP3    H242593   0.554   2.990   2.382  0.7072 -1.5771 -0.2839
 7060TIP3   OH242594   4.095   4.296  11.103 -0.0797 -0.0010  0.5941
 7060TIP3    H142595   4.113   4.205  11.080 -1.5571 -0.5264  1.3760
 7060TIP3    H242596   4.181   4.336  11.114  0.5968 -0.9202 -1.1271
 7061TIP3   OH242597   0.526   3.981  14.427  0.2031 -0.0300  0.3657
 7061TIP3    H142598   0.434   3.965  14.446  0.0557 -0.7622 -0.8444
 7061TIP3    H242599   0.534   4.076  14.429 -0.9431  0.1363 -0.9449
 7062TIP3   OH242600   4.870   5.763  11.883 -0.1870  0.3610 -0.6327
 7062TIP3    H142601   4.820   5.692  11.923 -0.1688  0.1502 -0.9798
 7062TIP3    H242602   4.813   5.798  11.815  0.4786 -0.5010 -1.6792
 7063TIP3   OH242603   3.597   3.306   1.085 -0.1049 -0.4421  0.4237
 7063TIP3    H142604   3.544   3.235   1.050  0.4646  0.1289 -1.7272
 7063TIP3    H242605   3.682   3.267   1.102 -0.3380 -0.6832  1.0838
 7064TIP3   OH242606   0.121   0.534  15.686  0.1561 -0.1237 -0.0782
 7064TIP3    H142607   0.088   0.446  15.702  0.3940 -0.0650  0.8063
 7064TIP3    H242608   0.060   0.571  15.622  1.5549 -1.7990 -2.5452
 7065TIP3   OH242609   2.491   5.557   5.454  0.5797  0.0452  0.2577
 7065TIP3    H142610   2.441   5.478   5.474  0.0193  0.6118  1.1913
 7065TIP3    H242611   2.503   5.555   5.359  0.4179 -1.0588  0.2499
 7066TIP3   OH242612   2.747   3.280   4.730 -0.2755 -0.0554  0.0367
 7066TIP3    H142613   2.748   3.372   4.754  1.1911  0.4687 -1.8032
 7066TIP3    H242614   2.673   3.243   4.778 -1.0239  2.1103  0.6428
 7067TIP3   OH242615   1.566   4.358   0.727  0.1860 -0.6351 -0.5626
 7067TIP3    H142616   1.500   4.329   0.664 -0.7594  0.6020 -0.1720
 7067TIP3    H242617   1.524   4.349   0.813  1.0604 -1.2436 -0.1836
 7068TIP3   OH242618   0.859   4.342   0.121 -0.4542  0.1113  0.0918
 7068TIP3    H142619   0.849   4.299   0.206 -0.4886 -0.4242 -0.1766
 7068TIP3    H242620   0.780   4.320   0.073 -0.4758  0.4874 -0.0479
 7069TIP3   OH242621   6.562   5.165   2.936 -0.5473  0.5931  0.1900
 7069TIP3    H142622   6.475   5.130   2.955 -0.4997  1.1438  1.5836
 7069TIP3    H242623   6.591   5.201   3.020  1.5653 -0.7315  0.0954
 7070TIP3   OH242624   2.619   6.724   2.688  0.0779 -0.0875  0.4766
 7070TIP3    H142625   2.685   6.787   2.659  1.1643 -0.9798  0.9231
 7070TIP3    H242626   2.621   6.655   2.622 -0.5726 -0.0197  0.3831
 7071TIP3   OH242627   6.269   0.494  12.709  0.5513 -0.0197  0.5553
 7071TIP3    H142628   6.291   0.511  12.617 -0.5595  0.5032  0.3646
 7071TIP3    H242629   6.277   0.399  12.718  1.9879  0.0469  0.2949
 7072TIP3   OH242630   3.352   3.367   3.978 -0.2179  0.6893 -0.0327
 7072TIP3    H142631   3.442   3.399   3.973  0.3563 -0.4201  1.9765
 7072TIP3    H242632   3.314   3.385   3.891  0.9850  3.8373 -0.0044
 7073TIP3   OH242633   0.763   5.909   5.085  0.6260 -0.3558 -0.5016
 7073TIP3    H142634   0.682   5.928   5.133 -0.6532 -2.6862 -1.5745
 7073TIP3    H242635   0.816   5.858   5.146 -0.9100 -3.1301 -1.2744
 7074TIP3   OH242636   2.477   1.276  13.083  0.5438  0.1418 -0.4222
 7074TIP3    H142637   2.561   1.241  13.115  0.7129  0.7655 -0.1793
 7074TIP3    H242638   2.462   1.229  13.001  1.5216  0.5753 -0.8686
 7075TIP3   OH242639   2.799   4.420  14.697  0.1589 -0.0133 -0.1975
 7075TIP3    H142640   2.887   4.391  14.718 -0.2891 -1.1566  0.1907
 7075TIP3    H242641   2.755   4.427  14.782 -1.0707 -2.7072 -0.5019
 7076TIP3   OH242642   3.661   5.066  14.215 -0.0955  0.3910  0.8282
 7076TIP3    H142643   3.672   4.973  14.235  1.3900  0.2076 -0.5882
 7076TIP3    H242644   3.749   5.102  14.225  0.2969  0.7325 -2.7761
 7077TIP3   OH242645   1.762   5.716  13.959 -0.4837 -0.4975 -0.1497
 7077TIP3    H142646   1.676   5.738  13.921 -0.5543 -1.5898 -0.6826
 7077TIP3    H242647   1.769   5.771  14.037 -1.6621 -0.3745 -0.1121
 7078TIP3   OH242648   2.802   3.430   3.128  0.0074 -0.0162 -0.3778
 7078TIP3    H142649   2.891   3.425   3.094  0.0458 -1.3699 -0.1537
 7078TIP3    H242650   2.763   3.506   3.086  0.9646  0.0150 -1.2212
 7079TIP3   OH242651   3.108   2.128   2.669 -0.5401 -0.7452 -0.1650
 7079TIP3    H142652   3.154   2.211   2.682  1.9119 -2.2477  1.5275
 7079TIP3    H242653   3.135   2.099   2.582 -0.2270 -0.4561 -0.1654
 7080TIP3   OH242654   1.209   2.241   2.599 -0.0832 -0.2885  0.3200
 7080TIP3    H142655   1.171   2.296   2.667  2.5728  1.6336  0.4325
 7080TIP3    H242656   1.302   2.263   2.600  0.3389 -1.3768 -2.8464
 7081TIP3   OH242657   1.480   2.695  13.907  0.0095 -0.4203  0.2442
 7081TIP3    H142658   1.436   2.632  13.964  0.5356 -1.0537 -0.0188
 7081TIP3    H242659   1.484   2.651  13.822 -2.5565  1.2969 -0.8888
 7082TIP3   OH242660   6.021   2.279  16.531  0.5581 -0.0853 -0.1481
 7082TIP3    H142661   5.953   2.214  16.511 -0.0541  0.7431 -0.8926
 7082TIP3    H242662   6.089   2.230  16.577  0.9938 -1.6681 -2.3339
 7083TIP3   OH242663   6.181   2.185  11.976 -0.5337 -0.2244 -0.0835
 7083TIP3    H142664   6.231   2.219  11.903 -0.9997 -0.1757 -0.3880
 7083TIP3    H242665   6.182   2.256  12.041  2.9284 -1.5364  1.5363
 7084TIP3   OH242666   5.333   5.938   0.692  0.0074  0.6605 -0.4378
 7084TIP3    H142667   5.342   5.859   0.639  0.7857  1.7413 -2.0326
 7084TIP3    H242668   5.289   6.000   0.633  0.4256  1.7459  0.3659
 7085TIP3   OH242669   4.852   0.968   0.206  0.0683  0.2581  0.1050
 7085TIP3    H142670   4.815   1.041   0.256 -0.7642 -0.3210  0.3724
 7085TIP3    H242671   4.894   1.009   0.130 -0.7599  0.9863  0.0236
 7086TIP3   OH242672   4.432   3.942  12.924 -0.1638 -0.5400 -0.1870
 7086TIP3    H142673   4.514   3.925  12.877 -0.2999  0.3956 -0.8023
 7086TIP3    H242674   4.451   4.020  12.976  0.1428 -1.8406  1.7639
 7087TIP3   OH242675   3.213   3.286   0.284  0.3411  0.0098  0.2354
 7087TIP3    H142676   3.203   3.221   0.354 -0.1788  0.6320  0.7578
 7087TIP3    H242677   3.307   3.304   0.281  0.6173 -1.3872 -0.5142
 7088TIP3   OH242678   2.967   4.534  15.111  0.2266  0.5195  0.4170
 7088TIP3    H142679   3.035   4.548  15.045  0.6669 -1.1402  0.4634
 7088TIP3    H242680   2.885   4.549  15.065  0.3564 -3.2263 -1.4189
 7089TIP3   OH242681   2.845   5.316  12.173 -0.4450 -0.4446  0.0128
 7089TIP3    H142682   2.786   5.265  12.229 -0.8330 -0.9153 -0.8193
 7089TIP3    H242683   2.929   5.313  12.219 -0.4778 -1.7631  0.0249
 7090TIP3   OH242684   3.812   4.597  10.503  0.1480 -0.1211  0.4698
 7090TIP3    H142685   3.821   4.684  10.462 -0.6471  0.2624  1.0899
 7090TIP3    H242686   3.737   4.558  10.459 -0.0095 -0.1583  0.7722
 7091TIP3   OH242687   4.310   5.563  11.536 -0.3143  0.3352  0.5298
 7091TIP3    H142688   4.367   5.488  11.525  0.2544  0.5813  1.6261
 7091TIP3    H242689   4.222   5.529  11.523 -0.0657 -0.5432  1.0768
 7092TIP3   OH242690   4.529   4.470  13.573  0.0997 -0.5231 -0.4156
 7092TIP3    H142691   4.451   4.422  13.602  0.5393 -0.3134  1.1818
 7092TIP3    H242692   4.508   4.562  13.588  0.5851 -0.4558 -0.1297
 7093TIP3   OH242693   2.136   3.362   3.804 -0.6908 -0.3593 -0.4272
 7093TIP3    H142694   2.138   3.347   3.898  0.3662 -4.3660 -0.9342
 7093TIP3    H242695   2.226   3.386   3.781 -0.1489 -2.4873 -0.7202
 7094TIP3   OH242696   5.709   2.066   1.316  0.1810  0.3561 -0.1083
 7094TIP3    H142697   5.730   2.159   1.319  1.8438  0.0273 -0.5470
 7094TIP3    H242698   5.652   2.057   1.240  0.1312  0.9987 -0.1492
 7095TIP3   OH242699   1.136   3.085  15.221  0.3737  0.0775 -0.3780
 7095TIP3    H142700   1.067   3.020  15.239 -0.3178  1.2039  1.3420
 7095TIP3    H242701   1.152   3.078  15.127 -3.5049  1.0876 -1.2752
 7096TIP3   OH242702   5.695   4.343   2.127 -0.5995  0.2529  0.4813
 7096TIP3    H142703   5.775   4.383   2.161 -0.6232 -0.1910  1.0921
 7096TIP3    H242704   5.686   4.261   2.177  0.4271 -1.4724 -1.9475
 7097TIP3   OH242705   4.392   4.457   2.364 -0.6648 -0.1021 -0.1320
 7097TIP3    H142706   4.308   4.411   2.362 -0.2460 -0.8547 -1.8351
 7097TIP3    H242707   4.385   4.516   2.440 -0.0882 -4.9843  4.2774
 7098TIP3   OH242708   4.946   4.359  11.909  0.1331  0.1880  0.2310
 7098TIP3    H142709   4.978   4.385  11.995  0.2104 -0.0961  0.2882
 7098TIP3    H242710   4.997   4.412  11.847 -0.6387  1.1624  0.3898
 7099TIP3   OH242711   0.151   5.431   1.204 -0.2096  0.6951  0.1958
 7099TIP3    H142712   0.072   5.469   1.243  0.0439  2.2715 -0.7500
 7099TIP3    H242713   0.164   5.480   1.123 -0.7511 -2.5097 -2.0138
 7100TIP3   OH242714   4.538   0.059   3.769 -0.1533 -0.4920 -0.4852
 7100TIP3    H142715   4.596   0.123   3.728 -0.4003  0.1934  0.2022
 7100TIP3    H242716   4.590  -0.020   3.776  0.3793 -0.1710 -0.7463
 7101TIP3   OH242717   6.211   6.578  15.066  0.5908  1.0643  0.4418
 7101TIP3    H142718   6.259   6.574  15.148  0.8166  3.1235  0.4705
 7101TIP3    H242719   6.239   6.500  15.018  0.8812  0.1307  2.0542
 7102TIP3   OH242720   5.138   0.843  15.037 -0.5421  0.5921 -0.4891
 7102TIP3    H142721   5.174   0.892  15.110  0.5175  1.4299 -1.5330
 7102TIP3    H242722   5.206   0.846  14.970 -0.6273 -1.9158 -0.7916
 7103TIP3   OH242723   0.273   5.224  16.123  0.6602  0.1985  0.1050
 7103TIP3    H142724   0.316   5.209  16.207  1.1687  0.2328 -0.1471
 7103TIP3    H242725   0.209   5.293  16.141 -1.9714 -2.3638  1.3712
 7104TIP3   OH242726   6.147   0.395   1.790  0.5454  0.1529 -0.1041
 7104TIP3    H142727   6.206   0.323   1.808 -0.1849 -1.0098 -2.0170
 7104TIP3    H242728   6.060   0.355   1.789 -0.0357  1.3536  0.2417
 7105TIP3   OH242729   3.262   4.435   1.068  0.8351 -0.6820 -0.1105
 7105TIP3    H142730   3.292   4.355   1.024 -0.5165 -0.4233 -1.5877
 7105TIP3    H242731   3.167   4.425   1.074  0.6517  0.7489 -0.2320
 7106TIP3   OH242732   2.939   6.202   2.057 -0.1396  0.2506  0.6345
 7106TIP3    H142733   2.993   6.281   2.062  2.0034 -1.1386  1.0497
 7106TIP3    H242734   3.003   6.130   2.057 -1.9557 -1.4591 -0.6970
 7107TIP3   OH242735   2.933   3.167  10.544  0.1054 -0.0315 -0.3201
 7107TIP3    H142736   2.993   3.164  10.470  0.7312  0.9195  0.1232
 7107TIP3    H242737   2.991   3.166  10.621 -0.4107  1.2075  0.1087
 7108TIP3   OH242738   4.333   1.093  11.492 -0.4367 -0.0113  0.6064
 7108TIP3    H142739   4.373   1.040  11.423  1.1634 -0.1284  1.5830
 7108TIP3    H242740   4.305   1.173  11.447 -0.2571 -0.4695 -0.3496
 7109TIP3   OH242741   0.727   6.615  15.772 -0.0069 -0.4358 -0.2417
 7109TIP3    H142742   0.741   6.587  15.863 -1.2931 -1.4108 -0.3124
 7109TIP3    H242743   0.650   6.672  15.777  0.0436 -0.3282 -0.6903
 7110TIP3   OH242744   0.848   0.683  11.934  0.6156 -0.4611 -0.1741
 7110TIP3    H142745   0.835   0.614  11.869  0.7513 -0.0975 -0.5893
 7110TIP3    H242746   0.841   0.765  11.885 -0.8046 -0.1186  0.5163
 7111TIP3   OH242747   0.698   5.366  13.440 -0.6424  0.5832 -0.1859
 7111TIP3    H142748   0.649   5.445  13.417 -3.0365 -1.0789 -1.3186
 7111TIP3    H242749   0.775   5.367  13.383  0.5860  3.0972  1.3677
 7112TIP3   OH242750   0.136   3.363   4.476  0.1292  0.2009  0.0725
 7112TIP3    H142751   0.136   3.299   4.546 -3.0981  0.8889  0.8652
 7112TIP3    H242752   0.134   3.311   4.396  0.6375 -0.6242  0.5813
 7113TIP3   OH242753   5.644   3.897  12.408  0.0789 -0.4784  0.1136
 7113TIP3    H142754   5.639   3.914  12.313  0.3501 -0.6118  0.0763
 7113TIP3    H242755   5.621   3.804  12.416 -0.1160 -0.4238  0.1963
 7114TIP3   OH242756   3.413   4.638  13.426 -0.1238 -0.2292  0.3760
 7114TIP3    H142757   3.475   4.691  13.375 -1.3687  1.0800  0.1643
 7114TIP3    H242758   3.440   4.548  13.409  0.8198  0.2548 -0.8817
 7115TIP3   OH242759   4.392   0.181  14.347 -0.0273  0.1621 -0.3371
 7115TIP3    H142760   4.467   0.121  14.343  0.5108  0.8012 -0.1161
 7115TIP3    H242761   4.339   0.149  14.420  0.1350 -0.1772 -0.3663
 7116TIP3   OH242762   4.177   4.624   3.704 -0.7089 -0.4507 -0.2327
 7116TIP3    H142763   4.211   4.611   3.792 -0.7205  0.8070 -0.0300
 7116TIP3    H242764   4.234   4.570   3.649 -0.2560 -0.6858  0.4526
 7117TIP3   OH242765   3.211   5.736  15.247 -0.5783  0.6037  0.4934
 7117TIP3    H142766   3.126   5.780  15.241  0.4145  2.6053  0.1775
 7117TIP3    H242767   3.190   5.646  15.269 -2.7970  0.9781  0.1388
 7118TIP3   OH242768   4.667   2.985  15.459 -0.2803 -0.1630  0.4456
 7118TIP3    H142769   4.658   3.032  15.377  0.2210 -0.8104  0.0113
 7118TIP3    H242770   4.757   3.002  15.487 -0.2913 -0.3589  0.6012
 7119TIP3   OH242771   1.923   0.553   4.509  0.0986  0.4730  0.1499
 7119TIP3    H142772   1.867   0.562   4.587 -0.4063 -1.4843  0.0448
 7119TIP3    H242773   1.968   0.638   4.503  1.4746  0.1435  3.5780
 7120TIP3   OH242774   1.897   0.562   5.279  0.8807 -0.6700  0.0136
 7120TIP3    H142775   1.980   0.532   5.316  0.6833 -1.0657  0.1408
 7120TIP3    H242776   1.842   0.582   5.356  1.3604  1.0495 -0.0464
 7121TIP3   OH242777   2.932   4.731  12.339 -0.7529 -0.3036 -0.7363
 7121TIP3    H142778   2.839   4.710  12.345 -0.5919 -0.7094  0.7143
 7121TIP3    H242779   2.951   4.731  12.245 -2.1845 -0.3027 -1.0442
 7122TIP3   OH242780   3.966   5.265  15.923  0.3036 -0.7798  0.8003
 7122TIP3    H142781   4.012   5.223  15.996  1.2192 -0.7758  0.2446
 7122TIP3    H242782   3.967   5.199  15.853 -0.9751 -0.9589  0.9219
 7123TIP3   OH242783   2.557   5.997   1.184 -0.2921  0.3346  0.2053
 7123TIP3    H142784   2.484   5.994   1.246 -0.3150 -0.9810  0.1573
 7123TIP3    H242785   2.528   5.942   1.111  0.4035  0.4900 -0.1946
 7124TIP3   OH242786   4.695   3.750  16.380 -0.1789 -0.2541  0.9508
 7124TIP3    H142787   4.768   3.784  16.329 -0.8185  0.6186  0.5978
 7124TIP3    H242788   4.736   3.707  16.455  0.6543  1.9870  1.8444
 7125TIP3   OH242789   5.691   6.555  16.760  0.0453 -0.0099  0.1395
 7125TIP3    H142790   5.767   6.611  16.744  0.2220 -0.1068  0.6111
 7125TIP3    H242791   5.626   6.584  16.697  0.6326 -0.2255 -0.5864
 7126TIP3   OH242792   5.471   2.709   3.375  0.5147 -0.5929 -0.1655
 7126TIP3    H142793   5.521   2.789   3.365  0.7150 -0.5294  1.1210
 7126TIP3    H242794   5.392   2.735   3.423 -0.1432 -0.9173 -1.0372
 7127TIP3   OH242795   4.258   5.806   0.866  0.0631 -0.0522  0.1729
 7127TIP3    H142796   4.267   5.899   0.844 -1.5115  0.1197  0.1372
 7127TIP3    H242797   4.214   5.768   0.790  1.7637 -1.1185 -0.3524
 7128TIP3   OH242798   0.815   3.905  12.586  0.2278 -0.0247 -0.4474
 7128TIP3    H142799   0.746   3.899  12.520  0.1447  0.2582 -0.3912
 7128TIP3    H242800   0.776   3.869  12.666 -0.7596  2.3711  0.2732
 7129TIP3   OH242801   4.962   5.878   3.108  0.4627  0.3424 -0.5339
 7129TIP3    H142802   5.023   5.899   3.179 -0.3428 -0.8882  0.5702
 7129TIP3    H242803   5.017   5.835   3.042  0.6674 -2.0243  1.0295
 7130TIP3   OH242804   3.775   4.829  15.567 -0.1762 -0.5905 -0.0755
 7130TIP3    H142805   3.806   4.759  15.510  3.5683  1.0460 -0.3523
 7130TIP3    H242806   3.828   4.821  15.646  1.1150  2.3595 -0.4988
 7131TIP3   OH242807   6.454   4.484  14.180 -0.5755 -0.1151  0.8631
 7131TIP3    H142808   6.505   4.561  14.156 -0.5022 -0.4078  0.0404
 7131TIP3    H242809   6.513   4.410  14.166 -0.6407 -0.3294  1.6563
 7132TIP3   OH242810   1.824   1.207  17.144  0.3081 -0.5901 -0.1475
 7132TIP3    H142811   1.831   1.302  17.141  0.0339 -0.5906 -0.8544
 7132TIP3    H242812   1.730   1.190  17.133  0.2428 -0.9171  0.7922
 7133TIP3   OH242813   4.485   5.711  14.156  0.1056 -0.4174  0.1409
 7133TIP3    H142814   4.411   5.702  14.216 -1.1578 -0.2283 -1.3119
 7133TIP3    H242815   4.448   5.691  14.070  1.2780  1.5761 -0.8888
 7134TIP3   OH242816   1.442   0.623   4.163 -0.0303 -0.6099 -0.3085
 7134TIP3    H142817   1.386   0.696   4.136  1.1917  0.3900 -0.2210
 7134TIP3    H242818   1.382   0.548   4.168 -1.5319  0.5802  0.6045
 7135TIP3   OH242819   2.735   2.113   5.835 -0.3848 -0.3924  0.6727
 7135TIP3    H142820   2.823   2.109   5.799 -0.3428  3.4712 -0.1083
 7135TIP3    H242821   2.680   2.144   5.763 -1.6603  0.6822  2.0368
 7136TIP3   OH242822   0.298   2.055   6.491 -0.2416  0.3153 -0.4287
 7136TIP3    H142823   0.275   1.967   6.522 -1.3725  0.8062  0.2206
 7136TIP3    H242824   0.362   2.087   6.554  1.3507 -0.5913 -1.5286
 7137TIP3   OH242825   2.009   5.956  16.458 -0.0060 -0.0541 -0.7131
 7137TIP3    H142826   2.001   6.032  16.400  1.1648  0.6121 -0.0721
 7137TIP3    H242827   2.082   5.906  16.423 -1.2074 -1.2960 -1.5313
 7138TIP3   OH242828   5.196   2.164  16.693 -0.0703  0.3412 -0.0713
 7138TIP3    H142829   5.291   2.162  16.702 -0.0930  2.0791  0.9898
 7138TIP3    H242830   5.175   2.083  16.647  2.1946  1.2179 -2.9774
 7139TIP3   OH242831   3.547   2.480   4.600 -0.3888 -0.2751 -0.1999
 7139TIP3    H142832   3.552   2.563   4.552 -0.1893 -0.3887 -0.3767
 7139TIP3    H242833   3.580   2.415   4.539 -0.2606 -0.4419  0.0455
 7140TIP3   OH242834   4.090   4.817   5.358 -0.7298 -0.3204 -0.2576
 7140TIP3    H142835   4.115   4.817   5.450 -1.9430  2.9655  0.2028
 7140TIP3    H242836   4.010   4.765   5.355  1.5246 -4.1618 -0.3798
 7141TIP3   OH242837   3.525   1.332   0.601  0.0195  0.5325 -0.8283
 7141TIP3    H142838   3.437   1.295   0.594  0.3550 -0.4374 -0.1937
 7141TIP3    H242839   3.579   1.258   0.628  0.7487  1.4652  0.3490
 7142TIP3   OH242840   0.585   6.322  11.916 -0.3449 -0.4325 -0.7339
 7142TIP3    H142841   0.542   6.259  11.858  0.9388 -2.1940  0.1128
 7142TIP3    H242842   0.640   6.268  11.973  0.6777  1.4646  0.1807
 7143TIP3   OH242843   3.038   4.884   5.371  0.0586  0.3430  0.0196
 7143TIP3    H142844   3.079   4.948   5.313  4.4595  1.6606  3.9729
 7143TIP3    H242845   3.081   4.801   5.350  2.2196  0.9668  1.6300
 7144TIP3   OH242846   1.795   1.336  14.802 -0.6618  0.3599  0.1477
 7144TIP3    H142847   1.788   1.423  14.842 -1.0036  0.6548 -0.5363
 7144TIP3    H242848   1.779   1.351  14.709  1.3383 -0.1078 -0.3157
 7145TIP3   OH242849   4.734   1.497  13.890  0.1818  0.1137 -0.5735
 7145TIP3    H142850   4.776   1.565  13.837 -0.7840  0.4452 -0.9429
 7145TIP3    H242851   4.802   1.432  13.905  1.8437  2.2056  1.7456
 7146TIP3   OH242852   6.660   3.610   5.593  0.2976  0.8942  1.1382
 7146TIP3    H142853   6.704   3.615   5.508 -1.4343  0.5874  0.1750
 7146TIP3    H242854   6.694   3.684   5.642  1.6032  0.8623  0.3110
 7147TIP3   OH242855   2.362   3.089   2.069 -0.4185  1.0054  0.0814
 7147TIP3    H142856   2.296   3.045   2.123  1.4432 -2.1426  0.0645
 7147TIP3    H242857   2.442   3.038   2.083  2.2679  4.8758  0.5259
 7148TIP3   OH242858   3.111   1.135  13.490  0.0642 -0.0061  0.0727
 7148TIP3    H142859   3.136   1.211  13.542 -0.1362 -0.0451  0.2289
 7148TIP3    H242860   3.174   1.068  13.513  0.5221  0.2492 -0.4100
 7149TIP3   OH242861   4.520   0.584  13.054 -0.0430 -0.2267  0.6905
 7149TIP3    H142862   4.598   0.635  13.078  1.0165 -0.3052 -2.1919
 7149TIP3    H242863   4.533   0.499  13.096  1.5753 -0.3026  0.1076
 7150TIP3   OH242864   5.199   2.113  11.753  0.2130  0.3464  0.3876
 7150TIP3    H142865   5.184   2.142  11.843 -1.1301  0.2758  0.2118
 7150TIP3    H242866   5.234   2.024  11.762  1.4997  0.8849  0.8607
 7151TIP3   OH242867   3.493   3.685  11.864 -0.0124 -0.1978  0.0673
 7151TIP3    H142868   3.498   3.631  11.785 -1.4318 -1.2160  0.6228
 7151TIP3    H242869   3.554   3.645  11.925  0.6074  0.2003 -0.2875
 7152TIP3   OH242870   6.155   2.390   5.693 -0.1969 -0.1541  0.1861
 7152TIP3    H142871   6.180   2.297   5.694 -1.6102 -0.5693 -0.6162
 7152TIP3    H242872   6.190   2.425   5.775  2.6906 -0.7199 -0.7035
 7153TIP3   OH242873   3.461   4.043  14.558 -0.1035 -0.6195 -0.2740
 7153TIP3    H142874   3.457   3.947  14.559 -0.7878 -0.6545 -1.9495
 7153TIP3    H242875   3.429   4.067  14.471 -1.9058  1.2256  0.8108
 7154TIP3   OH242876   0.073   5.800   4.378  0.2926  0.3191  0.4824
 7154TIP3    H142877   0.050   5.749   4.300 -0.6496 -0.6305  1.3388
 7154TIP3    H242878   0.154   5.846   4.355  1.1186 -1.4785 -0.3875
 7155TIP3   OH242879   5.515   5.077  16.225 -0.5069 -0.0033 -0.2223
 7155TIP3    H142880   5.591   5.122  16.262  0.6174 -2.5883  0.8639
 7155TIP3    H242881   5.540   5.060  16.134  1.1160 -2.4040  0.5757
 7156TIP3   OH242882   2.162   0.746   0.040  0.1129 -0.2033  0.0850
 7156TIP3    H142883   2.174   0.838   0.065 -1.1904 -0.1053  0.3800
 7156TIP3    H242884   2.083   0.746  -0.014 -1.3639 -1.5038  2.1423
 7157TIP3   OH242885   5.829   5.918  12.495  0.0125  0.1090 -0.5055
 7157TIP3    H142886   5.815   6.011  12.482  1.2184  0.0825 -2.2743
 7157TIP3    H242887   5.750   5.877  12.460 -0.2720  0.4250 -0.2417
 7158TIP3   OH242888   0.487   4.252   4.416 -0.4700 -0.9927  0.7952
 7158TIP3    H142889   0.430   4.239   4.340 -0.7755 -1.4339  1.1002
 7158TIP3    H242890   0.547   4.177   4.413  0.2506 -0.4148  0.3434
 7159TIP3   OH242891   0.762   4.145  13.727 -0.0215 -0.5924  0.2549
 7159TIP3    H142892   0.821   4.128  13.800 -1.4605  1.7748  2.1180
 7159TIP3    H242893   0.676   4.115  13.757 -0.1387 -2.6744 -1.8616
 7160TIP3   OH242894   3.482   0.669   2.495  0.9413 -0.2575 -0.2920
 7160TIP3    H142895   3.533   0.664   2.576  0.5827  1.0170  0.0421
 7160TIP3    H242896   3.523   0.738   2.444 -0.6138  1.0793  0.1590
 7161TIP3   OH242897   5.164   2.410   4.040  0.0878  0.3224 -0.6031
 7161TIP3    H142898   5.113   2.449   3.969  1.5028  0.2141 -1.7098
 7161TIP3    H242899   5.208   2.484   4.082  2.1725  0.0674 -2.2237
 7162TIP3   OH242900   1.314   6.656  16.546  0.7509 -0.5441  0.2075
 7162TIP3    H142901   1.339   6.697  16.463 -0.0355  1.0912  0.7433
 7162TIP3    H242902   1.226   6.623  16.530  0.6209 -0.2767  0.3665
 7163TIP3   OH242903   0.721   2.259  16.611  0.3574  0.0971  0.2681
 7163TIP3    H142904   0.752   2.328  16.552 -1.3433  0.4438 -0.2691
 7163TIP3    H242905   0.749   2.288  16.698  0.4772  0.9974 -0.0584
 7164TIP3   OH242906   0.996   0.209   1.969 -0.4584 -0.6639  0.1648
 7164TIP3    H142907   0.947   0.207   1.887  0.1829 -1.0517 -0.2150
 7164TIP3    H242908   1.062   0.277   1.956 -0.5033 -0.5652  0.4477
 7165TIP3   OH242909   2.732   1.617  11.306 -0.1946 -0.4361 -0.5998
 7165TIP3    H142910   2.743   1.692  11.364 -0.3797 -1.7735  1.2502
 7165TIP3    H242911   2.754   1.650  11.219 -1.7458  2.1561 -0.1154
 7166TIP3   OH242912   0.227   1.887  16.440 -0.6804  0.2077  0.3641
 7166TIP3    H142913   0.221   1.858  16.349 -0.8506 -0.5592  0.6159
 7166TIP3    H242914   0.156   1.950  16.450 -0.4220  0.5908 -0.1345
 7167TIP3   OH242915   0.392   1.541  13.780 -0.4580  0.1670 -0.8654
 7167TIP3    H142916   0.447   1.571  13.852 -2.3925 -0.7617  1.1350
 7167TIP3    H242917   0.451   1.490  13.724  0.7387 -0.8475  1.2067
 7168TIP3   OH242918   6.664   5.443  12.109 -0.5387 -0.3274 -0.6332
 7168TIP3    H142919   6.652   5.527  12.065  2.4575  0.5101 -0.1030
 7168TIP3    H242920   6.638   5.460  12.200  1.3943  0.5314 -0.1903
 7169TIP3   OH242921   4.597   4.689  16.330 -0.1583  0.6322 -0.7345
 7169TIP3    H142922   4.672   4.672  16.386 -0.5017 -1.2423 -0.7755
 7169TIP3    H242923   4.625   4.759  16.272  0.8810  1.2648  0.4746
 7170TIP3   OH242924   1.099   3.672  11.436 -0.3160 -0.0839  0.1561
 7170TIP3    H142925   1.085   3.581  11.463  1.2107 -0.6966 -0.9651
 7170TIP3    H242926   1.035   3.687  11.367  1.1615 -1.2473 -1.5521
 7171TIP3   OH242927   2.854   0.958   4.998 -0.5320 -0.4900 -0.1393
 7171TIP3    H142928   2.793   0.930   5.066 -1.1723 -1.8504 -1.2230
 7171TIP3    H242929   2.909   0.882   4.981 -0.2434 -0.1102 -0.9907
 7172TIP3   OH242930   2.095   3.430  12.878  0.0079 -0.1372  0.0286
 7172TIP3    H142931   2.077   3.458  12.967 -2.0200  0.0610 -0.3865
 7172TIP3    H242932   2.149   3.500  12.841 -1.4731  1.1934  0.2810
 7173TIP3   OH242933   1.567   3.771  15.925  0.5487  0.0180 -0.3610
 7173TIP3    H142934   1.483   3.750  15.966  1.6113 -1.1155  1.3562
 7173TIP3    H242935   1.556   3.861  15.893 -1.5314 -0.3493 -0.8485
 7174TIP3   OH242936   2.435   1.982   0.730 -0.1730 -0.6784  0.4043
 7174TIP3    H142937   2.527   1.963   0.718 -0.3535 -0.9285 -0.6121
 7174TIP3    H242938   2.423   1.984   0.825  0.9282 -0.3561  0.5474
 7175TIP3   OH242939   3.403   0.396  11.140  0.0240  0.0649  0.2743
 7175TIP3    H142940   3.422   0.423  11.050 -0.1637  0.3466  0.3181
 7175TIP3    H242941   3.484   0.413  11.188  0.1319 -0.1080  0.1528
 7176TIP3   OH242942   5.867   5.679  13.638  0.8813 -0.5203 -0.0395
 7176TIP3    H142943   5.802   5.648  13.575 -2.5583  1.1201  2.3812
 7176TIP3    H242944   5.881   5.771  13.615  1.3464 -0.5067  0.2790
 7177TIP3   OH242945   5.656   2.917   6.585  0.8272  0.3677  0.3131
 7177TIP3    H142946   5.680   3.006   6.560 -1.4547  0.0364 -3.8746
 7177TIP3    H242947   5.568   2.925   6.621  1.5468 -0.0349  2.3239
 7178TIP3   OH242948   0.251   5.457  17.134 -0.0185 -0.0263 -0.1659
 7178TIP3    H142949   0.298   5.374  17.126 -0.8636 -0.5210 -0.0357
 7178TIP3    H242950   0.178   5.439  17.193  1.4529  1.5559  2.3094
 7179TIP3   OH242951   6.161   6.230  17.328  0.1021  0.3351  0.2026
 7179TIP3    H142952   6.136   6.224  17.420  0.2458 -0.7950  0.1867
 7179TIP3    H242953   6.180   6.139  17.303  1.8263  0.8471 -0.4424
 7180TIP3   OH242954   2.386   0.129  11.359 -0.3480  0.2058  0.2104
 7180TIP3    H142955   2.352   0.171  11.280 -1.4334 -0.7827  0.1108
 7180TIP3    H242956   2.429   0.049  11.327 -1.2413 -0.4666  0.6242
 7181TIP3   OH242957   2.128   4.110   1.829 -0.2178 -0.4271  0.2352
 7181TIP3    H142958   2.195   4.170   1.861 -0.9039  1.4339 -1.5892
 7181TIP3    H242959   2.069   4.097   1.904  1.8983 -1.8414  1.7647
 7182TIP3   OH242960   2.662   3.949   0.571  0.1523 -0.2155 -0.2723
 7182TIP3    H142961   2.568   3.962   0.577  0.2582  0.4064  0.0874
 7182TIP3    H242962   2.677   3.920   0.481 -0.5039 -1.4260 -0.0061
 7183TIP3   OH242963   3.303   4.071   2.245  0.2414  0.7136 -0.1552
 7183TIP3    H142964   3.386   4.032   2.272 -0.0748  0.8451  1.0647
 7183TIP3    H242965   3.261   4.003   2.191  0.9803  0.5141 -0.4875
 7184TIP3   OH242966   3.800   5.129   1.648 -0.4838  0.8022 -0.3470
 7184TIP3    H142967   3.853   5.133   1.568 -1.1281 -0.2627 -0.8426
 7184TIP3    H242968   3.725   5.185   1.631  0.6402  2.6610  0.5181
 7185TIP3   OH242969   6.184   5.386   6.605 -0.4008  0.2509  0.9335
 7185TIP3    H142970   6.260   5.380   6.662 -0.5153  1.1829  1.2126
 7185TIP3    H242971   6.215   5.435   6.529 -0.6895  0.5479  1.0030
 7186TIP3   OH242972   3.889   1.873  11.868  0.0325  0.1915  0.3364
 7186TIP3    H142973   3.833   1.930  11.817 -2.1088 -0.4309  1.8108
 7186TIP3    H242974   3.932   1.816  11.804 -1.4237  0.3817 -0.8492
 7187TIP3   OH242975   0.040   1.915  14.500 -0.4555 -0.6103 -0.5929
 7187TIP3    H142976  -0.017   1.990  14.519 -0.1578 -1.0429  2.4570
 7187TIP3    H242977   0.118   1.954  14.459  0.6647  1.2005  2.8711
 7188TIP3   OH242978   4.329   0.589   4.699  0.2674  0.1369  0.1805
 7188TIP3    H142979   4.278   0.636   4.634 -0.4911  0.8843  1.2869
 7188TIP3    H242980   4.407   0.559   4.651  0.3434  1.7336 -0.7739
 7189TIP3   OH242981   3.530   4.079  17.138  0.3385  0.4187  0.4347
 7189TIP3    H142982   3.594   4.069  17.068 -0.4237 -2.8739  0.0494
 7189TIP3    H242983   3.578   4.060  17.218  0.3396  0.2494  0.3945
 7190TIP3   OH242984   4.756   0.623   3.762  0.2051 -0.1939 -0.0504
 7190TIP3    H142985   4.786   0.545   3.715  2.7780  0.7508 -0.1803
 7190TIP3    H242986   4.665   0.633   3.737 -0.0978 -2.8984 -0.3460
 7191TIP3   OH242987   0.687   6.294   0.702  0.2374 -0.2305  0.4900
 7191TIP3    H142988   0.781   6.276   0.696  0.5643  1.2687  0.5358
 7191TIP3    H242989   0.677   6.336   0.788 -0.5562 -0.7703  0.6733
 7192TIP3   OH242990   2.392   2.049   2.588 -0.4645 -0.3272 -0.0892
 7192TIP3    H142991   2.373   1.963   2.549  0.2241 -1.1931  1.3871
 7192TIP3    H242992   2.476   2.036   2.633 -0.9789  0.7490  1.2385
 7193TIP3   OH242993   6.195   2.390   1.447  0.6489 -0.1074 -0.3917
 7193TIP3    H142994   6.147   2.435   1.516 -1.7984 -0.5328 -1.6933
 7193TIP3    H242995   6.236   2.460   1.396  0.0070  0.3911 -0.2307
 7194TIP3   OH242996   0.226   5.125  11.900 -0.5489  0.1067  0.1762
 7194TIP3    H142997   0.149   5.075  11.927  0.3429 -0.7963  1.2044
 7194TIP3    H242998   0.206   5.215  11.925  0.0562 -0.5912  3.8394
 7195TIP3   OH242999   0.837   4.119  11.192 -0.2674 -0.0849 -0.5882
 7195TIP3    H143000   0.919   4.087  11.230 -1.0485 -0.9566  0.4343
 7195TIP3    H243001   0.814   4.053  11.126 -0.1747  0.1394 -0.8473
 7196TIP3   OH243002   4.848   5.124  11.771 -0.4126 -0.3544 -0.3396
 7196TIP3    H143003   4.908   5.189  11.809 -1.5828  0.4267  0.2399
 7196TIP3    H243004   4.760   5.159  11.789 -1.0650  0.0147 -3.6689
 7197TIP3   OH243005   0.726   1.313   5.259  0.2297 -0.2786  0.5744
 7197TIP3    H143006   0.796   1.268   5.307  1.1697 -1.4531 -1.7090
 7197TIP3    H243007   0.653   1.251   5.259  0.9130 -1.1602 -1.0618
 7198TIP3   OH243008   3.124   2.565  13.624 -0.8155 -0.3635  0.5066
 7198TIP3    H143009   3.067   2.505  13.576 -0.6217 -0.4035  0.3247
 7198TIP3    H243010   3.132   2.641  13.566 -0.1533 -0.6318  0.2428
 7199TIP3   OH243011   0.236   6.671   3.991 -0.1742 -0.3258 -0.6862
 7199TIP3    H143012   0.198   6.591   3.955 -0.1978 -0.2910 -0.7403
 7199TIP3    H243013   0.163   6.713   4.039  0.3954 -1.4411  1.2574
 7200TIP3   OH243014   2.344   6.175  13.303 -0.1928 -0.6894  0.3059
 7200TIP3    H143015   2.325   6.178  13.397  1.8526 -1.3740  0.7940
 7200TIP3    H243016   2.342   6.081  13.281  0.9403 -0.6629  0.0503
 7201TIP3   OH243017   2.262   0.963   0.484  0.2996  0.3828 -0.3680
 7201TIP3    H143018   2.226   0.991   0.400 -0.3956 -0.9543 -0.5428
 7201TIP3    H243019   2.214   1.015   0.549 -1.6729 -1.0279 -0.6209
 7202TIP3   OH243020   6.058   0.488   1.404  0.5492  0.0094 -0.1157
 7202TIP3    H143021   6.038   0.547   1.476 -0.1989  1.0601 -1.1522
 7202TIP3    H243022   6.147   0.512   1.378  1.4498 -1.4342  1.4140
 7203TIP3   OH243023   5.451   1.293  12.258 -0.1991 -0.5474 -0.2971
 7203TIP3    H143024   5.371   1.301  12.310 -0.6941 -1.0335 -0.9779
 7203TIP3    H243025   5.464   1.199  12.248  0.6904 -0.4850  0.1471
 7204TIP3   OH243026   1.896   2.780   2.977 -0.6937  0.6001  0.0011
 7204TIP3    H143027   1.980   2.743   3.002 -0.3711  1.8096  0.8000
 7204TIP3    H243028   1.831   2.731   3.028 -0.3592  0.4558  0.2896
 7205TIP3   OH243029   5.382   1.782  14.638 -0.3226  0.1909 -0.6164
 7205TIP3    H143030   5.297   1.738  14.635  0.0771 -0.6847  0.2889
 7205TIP3    H243031   5.435   1.734  14.573 -0.3104  0.2594 -0.6566
 7206TIP3   OH243032   5.006   3.134  11.098 -0.3314 -0.5705 -0.5570
 7206TIP3    H143033   5.019   3.076  11.173  0.2163  0.3244  0.0591
 7206TIP3    H243034   5.079   3.196  11.102 -0.8617  0.1221 -1.2353
 7207TIP3   OH243035   4.167   5.593  15.092  0.0664  0.2478 -0.0267
 7207TIP3    H143036   4.209   5.514  15.127 -1.0513  0.6682  2.5531
 7207TIP3    H243037   4.086   5.601  15.142 -2.0020  0.7466 -3.1979
 7208TIP3   OH243038   0.490   5.917   5.917 -0.0398 -0.9755 -0.1407
 7208TIP3    H143039   0.436   5.891   5.992 -1.9016 -0.9336 -1.3905
 7208TIP3    H243040   0.479   6.011   5.910  1.9072 -0.6385  0.8072
 7209TIP3   OH243041   2.411   1.316  12.518  1.0259 -0.4506  0.1762
 7209TIP3    H143042   2.476   1.259  12.476  0.9204 -0.5450  0.1398
 7209TIP3    H243043   2.332   1.263  12.520  0.1998  0.5342 -2.1459
 7210TIP3   OH243044   3.935   0.064   0.260  0.0952 -0.1796  0.2786
 7210TIP3    H143045   3.979   0.022   0.186  1.4517 -1.6931  1.8676
 7210TIP3    H243046   4.003   0.073   0.326 -1.2281  0.5858  1.5879
 7211TIP3   OH243047   6.140   5.699  17.148  0.6045 -0.1340 -0.2023
 7211TIP3    H143048   6.148   5.737  17.061 -0.2224 -2.0894 -1.1925
 7211TIP3    H243049   6.046   5.696  17.164  0.7394 -0.0517  0.6449
 7212TIP3   OH243050   1.726   2.982  15.796  0.4186 -0.0832 -0.8822
 7212TIP3    H143051   1.693   3.068  15.769  1.8495  0.7817  0.0253
 7212TIP3    H243052   1.647   2.928  15.802 -1.0034  2.0266  1.6868
 7213TIP3   OH243053   4.009   6.769  15.493 -0.0239  0.3499  0.2768
 7213TIP3    H143054   3.991   6.753  15.400 -0.3129 -0.7786  0.5118
 7213TIP3    H243055   3.934   6.820  15.523  1.7424  4.0241 -0.8937
 7214TIP3   OH243056   1.237   4.268   3.479 -0.0358  0.6434  0.0360
 7214TIP3    H143057   1.309   4.233   3.533  0.2513 -0.6971 -1.1478
 7214TIP3    H243058   1.158   4.227   3.514  0.0760  0.2601 -0.1529
 7215TIP3   OH243059   4.204   1.611   5.662  0.1087 -0.2160 -0.8762
 7215TIP3    H143060   4.233   1.701   5.678  1.2793 -0.8603  0.9934
 7215TIP3    H243061   4.285   1.565   5.637 -0.3268 -0.9211 -1.0020
 7216TIP3   OH243062   3.943   1.875   4.573 -0.0049  0.0866  0.1339
 7216TIP3    H143063   3.868   1.814   4.576  1.6026 -1.9781  2.0720
 7216TIP3    H243064   3.951   1.898   4.481 -0.8459 -2.5478 -0.7031
 7217TIP3   OH243065   2.699   2.090  13.651  0.1255 -0.3512 -0.2878
 7217TIP3    H143066   2.615   2.129  13.677  0.0282 -1.2512  0.8124
 7217TIP3    H243067   2.694   2.083  13.556 -0.8085  0.1480 -0.2850
 7218TIP3   OH243068   0.200   5.791  13.307  0.1557 -0.2275  0.0223
 7218TIP3    H143069   0.219   5.872  13.355  0.9782  0.4759 -1.4277
 7218TIP3    H243070   0.110   5.803  13.276  0.1434 -0.0303  0.1279
 7219TIP3   OH243071   3.314   2.642  15.573 -0.0466  0.1478 -0.5071
 7219TIP3    H143072   3.381   2.692  15.526 -0.9756  1.2009 -0.7306
 7219TIP3    H243073   3.240   2.702  15.580 -1.3755 -1.3547 -1.2010
 7220TIP3   OH243074   6.688   2.917  12.188  0.2426  0.3398  0.6408
 7220TIP3    H143075   6.777   2.891  12.214  0.0300  0.8272  1.9215
 7220TIP3    H243076   6.663   2.983  12.252 -0.3522  1.5723 -0.7955
 7221TIP3   OH243077   2.883   4.461  16.671 -0.1491 -0.1241 -0.1154
 7221TIP3    H143078   2.862   4.402  16.598 -2.9557  2.2803 -1.5122
 7221TIP3    H243079   2.799   4.501  16.694  1.0998  1.1543  2.7454
 7222TIP3   OH243080   1.229   3.879  15.959  0.3150  0.1027  0.5677
 7222TIP3    H143081   1.281   3.960  15.968  0.3080  0.2600 -0.6425
 7222TIP3    H243082   1.169   3.898  15.887  0.9968 -1.3308 -0.4188
 7223TIP3   OH243083   5.285   3.316   5.961  0.3992  0.3188  0.3584
 7223TIP3    H143084   5.247   3.397   5.926 -0.0910  0.1284  0.4480
 7223TIP3    H243085   5.250   3.309   6.050 -0.7153 -0.7379 -0.1415
 7224TIP3   OH243086   5.320   1.684   5.670 -0.5804  0.1106 -1.0449
 7224TIP3    H143087   5.385   1.754   5.679 -0.9439  0.5233 -1.5517
 7224TIP3    H243088   5.369   1.603   5.688 -0.5827  0.6066  1.5419
 7225TIP3   OH243089   2.412   0.171  12.257 -0.4191  0.2233  0.7710
 7225TIP3    H143090   2.369   0.129  12.182 -0.7918  0.2718  0.9548
 7225TIP3    H243091   2.377   0.125  12.333  1.0808 -0.8457  0.8557
 7226TIP3   OH243092   6.736   0.471   4.298 -0.1432  0.3820  0.7742
 7226TIP3    H143093   6.760   0.563   4.308 -0.8882  0.6395  0.2464
 7226TIP3    H243094   6.741   0.456   4.203  1.3494 -0.5113  0.9554
 7227TIP3   OH243095   6.559   5.363   0.839 -0.3709  0.1440 -0.5537
 7227TIP3    H143096   6.534   5.369   0.932  0.0972  1.0899 -0.4843
 7227TIP3    H243097   6.593   5.274   0.830 -0.3071  0.0782  0.2155
 7228TIP3   OH243098   0.896   6.203  12.233 -0.5129 -0.2677 -0.2844
 7228TIP3    H143099   0.808   6.168  12.247 -0.4407 -0.2622  0.1850
 7228TIP3    H243100   0.886   6.298  12.242 -0.2799 -0.3354  0.7437
 7229TIP3   OH243101   3.230   6.670  13.673 -0.3974  0.4195 -0.8036
 7229TIP3    H143102   3.278   6.620  13.607 -0.8224 -1.5688  0.3202
 7229TIP3    H243103   3.217   6.609  13.745 -1.0007  2.1591  0.6492
 7230TIP3   OH243104   0.433   2.218  16.456 -0.0776 -0.0053 -0.4592
 7230TIP3    H143105   0.469   2.306  16.447 -2.2469  1.4182  2.9449
 7230TIP3    H243106   0.504   2.167  16.493  0.6354  0.7895 -0.7000
 7231TIP3   OH243107   5.166   1.100  13.241  0.3838  0.3295  0.0634
 7231TIP3    H143108   5.228   1.121  13.310 -0.0209 -0.2582  0.6228
 7231TIP3    H243109   5.168   1.175  13.182  2.6800 -0.2905 -0.7329
 7232TIP3   OH243110   6.716   1.308  14.060 -0.3358 -0.1956  0.0169
 7232TIP3    H143111   6.715   1.246  14.133 -3.0555  2.2349  2.2891
 7232TIP3    H243112   6.790   1.366  14.079 -1.2917  0.6908  1.1824
 7233TIP3   OH243113   0.534   3.667  13.371 -0.1890 -0.2359  0.0603
 7233TIP3    H143114   0.502   3.717  13.446 -1.8753 -1.0634 -0.0479
 7233TIP3    H243115   0.626   3.690  13.364 -0.3710  1.0719  1.4070
 7234TIP3   OH243116   6.316   1.160  12.116  0.0303 -0.1036  0.2725
 7234TIP3    H143117   6.391   1.214  12.091  0.5677 -0.8377  0.2794
 7234TIP3    H243118   6.337   1.127  12.203 -1.7098  2.1905  1.6812
 7235TIP3   OH243119   6.521   5.892   1.915  0.2301 -0.6263 -0.0111
 7235TIP3    H143120   6.569   5.966   1.878 -0.7815  0.0110 -0.0949
 7235TIP3    H243121   6.522   5.825   1.846 -0.3695 -0.0088 -0.6281
 7236TIP3   OH243122   6.363   2.866   5.053  0.0586  0.7830  1.0279
 7236TIP3    H143123   6.413   2.907   4.982 -1.6312  0.4632 -0.4243
 7236TIP3    H243124   6.405   2.898   5.133  1.8681  1.3786 -0.0884
 7237TIP3   OH243125   3.192   1.155  16.302  0.1954 -0.0323  0.5098
 7237TIP3    H143126   3.278   1.177  16.265  0.3683 -1.1443  0.2123
 7237TIP3    H243127   3.151   1.240  16.319  1.7855  0.5407  1.7172
 7238TIP3   OH243128   0.135   3.943  17.228 -0.3125 -0.1483 -0.4573
 7238TIP3    H143129   0.147   3.891  17.307 -0.6608 -0.8149 -0.8319
 7238TIP3    H243130   0.134   3.879  17.157  0.0413  0.4431 -1.0108
 7239TIP3   OH243131   5.088   0.939   3.308 -0.1468  0.2648  0.2524
 7239TIP3    H143132   5.093   1.006   3.240 -0.1884 -0.1236 -0.1392
 7239TIP3    H243133   5.175   0.936   3.346 -0.3918  1.2012  0.9196
 7240TIP3   OH243134   4.323   2.149  14.554  0.4057  0.0599  0.2481
 7240TIP3    H143135   4.321   2.054  14.558 -0.9801 -0.0687 -2.1126
 7240TIP3    H243136   4.401   2.169  14.502 -0.9275  0.0224 -1.8515
 7241TIP3   OH243137   2.640   0.571   6.517  0.0044  0.0760 -0.3217
 7241TIP3    H143138   2.641   0.642   6.581  0.1484  0.7492 -1.0548
 7241TIP3    H243139   2.547   0.547   6.510 -0.4183  1.9330 -1.9199
 7242TIP3   OH243140   0.081   0.364  10.803  0.3130  0.3364  0.4312
 7242TIP3    H143141   0.140   0.303  10.757 -0.2495  0.5867 -0.6401
 7242TIP3    H243142   0.012   0.383  10.741  0.2893  1.8225  0.8688
 7243TIP3   OH243143   1.714   4.826  11.130  0.0995 -0.5447  0.6196
 7243TIP3    H143144   1.630   4.852  11.090  1.8831  1.6254 -2.0772
 7243TIP3    H243145   1.748   4.906  11.169  1.9097 -0.7739 -0.3772
 7244TIP3   OH243146   3.725   5.824  15.271 -0.5776 -0.2640 -0.4737
 7244TIP3    H143147   3.655   5.884  15.299  0.3856  0.3261  0.7380
 7244TIP3    H243148   3.700   5.799  15.182 -2.5002 -0.3405  0.0414
 7245TIP3   OH243149   4.960   4.467   0.101 -0.2977 -0.0094 -0.3000
 7245TIP3    H143150   4.941   4.484   0.009  0.9523  0.6414 -0.4665
 7245TIP3    H243151   4.972   4.372   0.105 -3.0797 -0.4192 -0.2270
 7246TIP3   OH243152   5.518   0.895   4.259 -0.1821 -0.7400 -0.1849
 7246TIP3    H143153   5.596   0.875   4.309  0.0396 -0.2773 -0.3404
 7246TIP3    H243154   5.502   0.988   4.275  0.2798 -0.4170 -1.4889
 7247TIP3   OH243155   4.645   3.527  12.791 -0.1975  0.0170 -0.2093
 7247TIP3    H143156   4.632   3.468  12.865 -0.2189  1.0653  0.6502
 7247TIP3    H243157   4.575   3.592  12.799 -0.9023 -0.4920 -1.8255
 7248TIP3   OH243158   2.979   1.880  14.385 -0.0976  0.3203  0.5151
 7248TIP3    H143159   2.997   1.922  14.469  1.0107  2.0226 -0.5143
 7248TIP3    H243160   2.883   1.874  14.381 -0.3864  3.3217  0.5271
 7249TIP3   OH243161   6.413   5.818  12.932  0.1373 -0.5396 -0.0053
 7249TIP3    H143162   6.508   5.829  12.921  0.1862  0.5806  1.3103
 7249TIP3    H243163   6.374   5.880  12.870  0.3664  2.2837  2.4412
 7250TIP3   OH243164   6.576   6.640  15.018 -0.2918 -0.0851  0.2592
 7250TIP3    H143165   6.557   6.643  14.924  2.5619 -0.2399 -0.4024
 7250TIP3    H243166   6.625   6.559  15.031 -0.8837 -0.2174  1.9813
 7251TIP3   OH243167   2.730   4.923  10.924 -0.0508  1.1854 -0.1999
 7251TIP3    H143168   2.702   4.861  10.856  1.3045  0.6738 -0.3174
 7251TIP3    H243169   2.662   4.918  10.991 -0.9469  1.0295 -1.1053
 7252TIP3   OH243170   2.263   6.107   1.999  0.2399  0.2098  0.4643
 7252TIP3    H143171   2.176   6.099   2.038 -0.3092 -1.1925 -0.9273
 7252TIP3    H243172   2.246   6.112   1.905  1.6949 -0.9345  0.1104
 7253TIP3   OH243173   4.538   1.693  17.288  0.1433 -0.4260  0.2471
 7253TIP3    H143174   4.470   1.631  17.261 -0.3935 -0.2444  1.1385
 7253TIP3    H243175   4.500   1.779  17.269 -0.8556 -0.2123  2.7617
 7254TIP3   OH243176   4.060   0.629  16.176  0.4623  0.6247 -0.5738
 7254TIP3    H143177   4.002   0.674  16.237  1.0389 -1.1385  1.4093
 7254TIP3    H243178   4.016   0.546  16.158  0.3391  1.0949 -2.5636
 7255TIP3   OH243179   2.052   2.928   2.638 -0.0087  0.0601  0.0524
 7255TIP3    H143180   2.032   2.886   2.555  0.3662 -0.1692  0.0754
 7255TIP3    H243181   2.070   2.856   2.698 -0.5791  0.2141  0.4143
 7256TIP3   OH243182   6.268   1.916   5.735 -0.4176 -0.0705 -0.1291
 7256TIP3    H143183   6.275   2.011   5.728 -0.2031 -0.1941 -2.3740
 7256TIP3    H243184   6.321   1.893   5.811  2.0382  1.3893 -1.2666
 7257TIP3   OH243185   4.596   2.053   1.944 -0.3054 -0.0649 -0.0209
 7257TIP3    H143186   4.625   2.120   1.883  1.7216 -1.2927 -0.4999
 7257TIP3    H243187   4.580   2.101   2.026 -0.9854  1.2752 -0.8924
 7258TIP3   OH243188   4.790   2.978  14.858  0.0381 -0.4379  0.0375
 7258TIP3    H143189   4.820   3.055  14.907  0.5294 -0.6976  0.1507
 7258TIP3    H243190   4.766   3.013  14.772  0.0992 -0.1300  0.1421
 7259TIP3   OH243191   0.934   6.226   3.241 -0.0202 -0.1664 -0.7667
 7259TIP3    H143192   0.976   6.178   3.313  1.8282 -0.0141 -1.6964
 7259TIP3    H243193   0.894   6.302   3.284  0.6009 -0.3508  0.1735
 7260TIP3   OH243194   5.772   6.144  13.916 -0.7773 -0.0039  0.2391
 7260TIP3    H143195   5.756   6.165  14.007  0.0064 -0.0699  0.3982
 7260TIP3    H243196   5.795   6.227  13.875 -0.2743 -0.1145  0.2940
 7261TIP3   OH243197   5.851   6.768   1.189 -0.5404  0.0756 -0.0269
 7261TIP3    H143198   5.885   6.679   1.176  2.0311  0.8447  0.7077
 7261TIP3    H243199   5.898   6.821   1.126  0.8445  1.4538  2.0279
 7262TIP3   OH243200   1.861   5.022   2.250  0.3484  0.1652 -0.2270
 7262TIP3    H143201   1.930   4.975   2.298  1.5454  0.9762 -1.0965
 7262TIP3    H243202   1.785   4.964   2.255  0.5385 -0.0033  2.2319
 7263TIP3   OH243203   0.548   2.892   1.834  0.2894 -0.0047 -0.0977
 7263TIP3    H143204   0.642   2.894   1.852  0.0281 -0.5866  1.4964
 7263TIP3    H243205   0.537   2.818   1.773  0.6208 -1.4684  1.5399
 7264TIP3   OH243206   1.475   0.624  13.853  0.1304 -0.7499  0.2018
 7264TIP3    H143207   1.385   0.655  13.844  0.5960  1.1982  1.4481
 7264TIP3    H243208   1.477   0.580  13.938  0.7700  1.0804  1.1878
 7265TIP3   OH243209   4.030   1.686   2.317  0.3516  0.3645  0.5377
 7265TIP3    H143210   4.018   1.764   2.263 -0.3129 -0.2827 -0.2770
 7265TIP3    H243211   3.974   1.701   2.393 -0.7748  0.1593 -0.2183
 7266TIP3   OH243212   0.987   1.202   0.656 -0.1521  1.2397 -0.2379
 7266TIP3    H143213   0.945   1.242   0.732 -0.2087 -1.3387  1.2056
 7266TIP3    H243214   0.915   1.184   0.595 -0.2587  2.3555 -0.4465
 7267TIP3   OH243215   2.772   1.854  10.819 -0.6111  0.5114 -0.1562
 7267TIP3    H143216   2.830   1.914  10.774  0.4975 -0.3611  0.0799
 7267TIP3    H243217   2.684   1.887  10.800 -0.1817  0.3781 -2.6389
 7268TIP3   OH243218   3.909   6.386  11.777 -0.0959 -0.4263  0.2188
 7268TIP3    H143219   3.908   6.345  11.864  1.0227 -0.2831  0.3106
 7268TIP3    H243220   3.922   6.312  11.717 -3.4745 -0.9111 -0.1102
 7269TIP3   OH243221   3.514   5.743  13.740  0.5615 -0.3076  0.3816
 7269TIP3    H143222   3.451   5.701  13.682  0.8755 -0.7422  0.3484
 7269TIP3    H243223   3.477   5.733  13.828  0.0077  0.4915  0.2534
 7270TIP3   OH243224   1.302   4.140  16.026  0.4345 -0.1433  0.2951
 7270TIP3    H143225   1.252   4.203  15.974  2.1332  2.1202  1.2233
 7270TIP3    H243226   1.257   4.137  16.111 -1.1176 -2.2227 -0.5376
 7271TIP3   OH243227   0.752   0.457   2.115 -0.2970 -0.2619  0.3047
 7271TIP3    H143228   0.682   0.514   2.145  0.0532  0.5096 -0.3050
 7271TIP3    H243229   0.833   0.504   2.139  0.0526 -1.4384  1.6058
 7272TIP3   OH243230   1.340   4.235  15.397 -0.4628 -0.0725 -0.4726
 7272TIP3    H143231   1.338   4.201  15.486 -2.9146  0.0500 -0.4218
 7272TIP3    H243232   1.399   4.310  15.401  1.2117 -1.3691  0.4984
 7273TIP3   OH243233   4.743   2.180  12.517  0.2685 -0.1756 -0.5828
 7273TIP3    H143234   4.705   2.106  12.565 -0.4298  1.4977  1.6016
 7273TIP3    H243235   4.830   2.191  12.556  0.6978 -0.3324 -1.4744
 7274TIP3   OH243236   3.896   3.683   1.224 -0.1247 -0.0200 -0.6048
 7274TIP3    H143237   3.867   3.745   1.291  1.3050 -1.0915  1.0877
 7274TIP3    H243238   3.823   3.622   1.216 -0.2388  0.0136  0.1117
 7275TIP3   OH243239   0.735   5.611   6.110  0.1119 -0.6191  0.0099
 7275TIP3    H143240   0.664   5.621   6.047  1.1412 -2.2614 -1.5052
 7275TIP3    H243241   0.718   5.527   6.152 -0.3903  0.3174  1.7578
 7276TIP3   OH243242   4.108   3.177   3.878  0.1446 -0.3206  0.2172
 7276TIP3    H143243   4.080   3.251   3.824  0.0123 -0.9629 -0.6213
 7276TIP3    H243244   4.031   3.121   3.884  0.0032 -0.0146  1.5237
 7277TIP3   OH243245   6.726   1.810  14.827  0.2100 -0.4781  0.3123
 7277TIP3    H143246   6.670   1.887  14.819  0.7686 -0.2169 -1.5044
 7277TIP3    H243247   6.674   1.739  14.789 -0.2264 -1.0032  1.8021
 7278TIP3   OH243248   2.287   4.804   0.065 -0.2923 -0.1354 -0.5654
 7278TIP3    H143249   2.378   4.807   0.038 -0.4675  0.6181 -1.1249
 7278TIP3    H243250   2.289   4.826   0.158 -0.0139  1.5446 -0.9271
 7279TIP3   OH243251   3.156   1.047  11.879 -0.1478  0.1276 -0.8233
 7279TIP3    H143252   3.128   1.124  11.828 -1.2335 -0.3753 -1.0184
 7279TIP3    H243253   3.210   1.083  11.949  0.7521  0.9089 -1.8710
 7280TIP3   OH243254   1.250   4.109   1.256  0.4080  0.4955  0.2205
 7280TIP3    H143255   1.213   4.043   1.198  0.3677  0.9790 -0.3177
 7280TIP3    H243256   1.185   4.179   1.257  0.7738  0.8412  0.1984
 7281TIP3   OH243257   5.011   5.478   3.742  0.3710  0.7858 -0.0200
 7281TIP3    H143258   5.001   5.421   3.666  0.9222 -0.1527  0.5796
 7281TIP3    H243259   4.933   5.461   3.794  0.5942  0.4603  0.2186
 7282TIP3   OH243260   2.384   0.657   5.005  0.2555  0.2452  0.2577
 7282TIP3    H143261   2.384   0.569   4.968 -0.1902  1.0143 -1.6708
 7282TIP3    H243262   2.476   0.683   5.003  0.1676  0.4978 -0.8956
 7283TIP3   OH243263   1.359   3.724   2.800 -0.3205  0.5166 -0.2274
 7283TIP3    H143264   1.393   3.647   2.845  0.2928  0.9690  0.0879
 7283TIP3    H243265   1.308   3.689   2.727 -0.1889 -0.1882  0.0165
 7284TIP3   OH243266   0.223   5.349  16.500 -0.1352 -0.2183  0.6786
 7284TIP3    H143267   0.190   5.314  16.583 -0.1108  1.3512  1.3833
 7284TIP3    H243268   0.272   5.276  16.462 -1.2415 -1.3852  1.4012
 7285TIP3   OH243269   5.854   3.762   5.208  0.2788  0.1883 -0.5172
 7285TIP3    H143270   5.942   3.743   5.242 -0.0257 -0.1638  0.0921
 7285TIP3    H243271   5.795   3.736   5.279 -0.3427 -0.0178 -1.1005
 7286TIP3   OH243272   1.597   1.158   0.320 -0.2074  0.5586  0.3391
 7286TIP3    H143273   1.565   1.117   0.401  1.1949  0.9209  1.1175
 7286TIP3    H243274   1.663   1.220   0.350  0.1411  0.9047 -1.0844
 7287TIP3   OH243275   4.531   2.845  14.440  0.9413 -0.4624  0.4711
 7287TIP3    H143276   4.509   2.925  14.391  0.5379 -0.4534  0.6666
 7287TIP3    H243277   4.457   2.787  14.425  1.1341 -0.7183  0.5126
 7288TIP3   OH243278   6.731   3.639   3.862  0.1005 -0.0504  0.3498
 7288TIP3    H143279   6.786   3.572   3.822  0.8939  0.1674  1.0361
 7288TIP3    H243280   6.644   3.624   3.825  0.6327 -0.3303 -0.8616
 7289TIP3   OH243281   1.691   2.007   3.737 -0.4672 -0.4556  0.6822
 7289TIP3    H143282   1.782   2.036   3.732 -0.4916 -0.4678 -0.0175
 7289TIP3    H243283   1.688   1.930   3.680 -1.0680 -0.0281  0.1185
 7290TIP3   OH243284   4.257   4.790   1.121  0.1525  0.2042  0.7400
 7290TIP3    H143285   4.344   4.820   1.095 -0.5240  2.5589  0.9131
 7290TIP3    H243286   4.206   4.794   1.040  0.4619 -2.5308  0.3172
 7291TIP3   OH243287   3.958   4.972  15.299  0.5268  0.2397 -0.1819
 7291TIP3    H143288   4.015   5.049  15.296  1.8371 -0.5497  2.1988
 7291TIP3    H243289   3.972   4.935  15.386 -1.8005 -1.4179 -0.4262
 7292TIP3   OH243290   1.838   1.586  14.935 -0.0362 -0.9513 -0.0944
 7292TIP3    H143291   1.921   1.627  14.911 -0.0010 -0.5746  0.6376
 7292TIP3    H243292   1.853   1.550  15.022 -1.3092  1.1296  1.0553
 7293TIP3   OH243293   1.286   5.639   5.325 -0.5468  0.7014  0.5759
 7293TIP3    H143294   1.343   5.705   5.363  1.3881 -0.0275 -0.8548
 7293TIP3    H243295   1.314   5.557   5.365 -0.1473  0.2571 -0.5678
 7294TIP3   OH243296   1.063   3.799  11.993 -0.1478 -0.1878  0.5551
 7294TIP3    H143297   0.969   3.801  12.008  0.0985  0.9511  2.2429
 7294TIP3    H243298   1.073   3.773  11.901 -2.1155  0.6472  0.0637
 7295TIP3   OH243299   5.751   1.045  12.513  0.1858  0.5089 -0.8300
 7295TIP3    H143300   5.763   0.969  12.571  0.5359 -0.0593 -1.6366
 7295TIP3    H243301   5.840   1.071  12.490  0.1573  2.1626  0.6810
 7296TIP3   OH243302   4.135   3.424  17.032 -0.4474  0.2699  0.4261
 7296TIP3    H143303   4.040   3.419  17.025 -0.2684 -1.5957 -3.4027
 7296TIP3    H243304   4.158   3.359  17.098 -1.7595 -0.1034  0.5350
 7297TIP3   OH243305   5.207   5.194   3.757 -0.4784  0.2830  0.1865
 7297TIP3    H143306   5.156   5.121   3.723  0.2702  0.2027 -0.8291
 7297TIP3    H243307   5.291   5.155   3.782 -0.3185  0.6712  0.2692
 7298TIP3   OH243308   4.849   5.994  14.952  0.6247  0.4438 -0.0943
 7298TIP3    H143309   4.795   6.064  14.990 -0.9948 -0.0913 -1.3056
 7298TIP3    H243310   4.869   5.937  15.026 -1.0165  0.3366  0.3222
 7299TIP3   OH243311   6.516   2.099   1.442  0.0416 -0.3053  0.4195
 7299TIP3    H143312   6.427   2.062   1.447 -0.3123  0.6613  2.2715
 7299TIP3    H243313   6.509   2.183   1.487  1.7607  0.1053 -0.0184
 7300TIP3   OH243314   6.475   3.895   1.482 -0.0138  0.0886  0.1860
 7300TIP3    H143315   6.559   3.852   1.465 -0.5550 -0.7882 -0.3764
 7300TIP3    H243316   6.436   3.843   1.552 -0.7780 -0.5317 -0.6611
 7301TIP3   OH243317   4.299   5.553   5.348 -0.1446  0.2847  0.2278
 7301TIP3    H143318   4.234   5.620   5.371 -2.3928 -1.9102  0.7965
 7301TIP3    H243319   4.277   5.479   5.404  1.8499 -1.1648 -0.7756
 7302TIP3   OH243320   6.772   1.873   4.326 -0.1275  0.5695 -0.2978
 7302TIP3    H143321   6.714   1.810   4.368 -1.6469  0.4307 -2.3860
 7302TIP3    H243322   6.836   1.819   4.279  1.1843  0.7136  1.2345
 7303TIP3   OH243323   5.772   3.267   5.726  0.5286 -0.2960 -0.3733
 7303TIP3    H143324   5.708   3.227   5.784 -0.8701 -1.3433 -2.4901
 7303TIP3    H243325   5.829   3.194   5.699 -0.0189 -0.2560 -1.7338
 7304TIP3   OH243326   4.578   6.394  13.360  0.0060  0.0104 -0.4725
 7304TIP3    H143327   4.510   6.382  13.294  0.9728 -1.9582 -1.1885
 7304TIP3    H243328   4.643   6.326  13.340  2.0255  1.5864  0.3915
 7305TIP3   OH243329   5.437   4.069   1.769 -0.0499  0.0462 -0.2163
 7305TIP3    H143330   5.378   4.025   1.707  1.1574 -0.4056 -1.0747
 7305TIP3    H243331   5.501   4.113   1.714 -0.4336  1.7965  0.6685
 7306TIP3   OH243332   1.319   1.161   3.344 -0.4713 -0.1703  0.8506
 7306TIP3    H143333   1.400   1.120   3.313  0.3377  0.7544  1.6743
 7306TIP3    H243334   1.250   1.099   3.320  0.4289 -0.7720 -0.2452
 7307TIP3   OH243335   6.675   1.591   0.689  0.0366  0.0852  0.4313
 7307TIP3    H143336   6.740   1.655   0.718 -0.1278  0.9436 -1.0377
 7307TIP3    H243337   6.592   1.638   0.688  0.1053  0.2502 -1.8338
 7308TIP3   OH243338   3.793   2.128   1.132  0.3232  0.2233 -0.2286
 7308TIP3    H143339   3.829   2.160   1.215 -0.1735 -2.7886  1.2502
 7308TIP3    H243340   3.699   2.141   1.140  0.1931 -0.8363  0.0623
 7309TIP3   OH243341   0.767   3.647  17.010 -0.5563 -0.0005 -0.1732
 7309TIP3    H143342   0.819   3.726  17.022 -1.2624  0.3789  0.5316
 7309TIP3    H243343   0.735   3.652  16.920  1.8302 -1.0153 -1.1533
 7310TIP3   OH243344   4.893   0.129   0.835 -0.0043  0.0835 -0.4399
 7310TIP3    H143345   4.862   0.156   0.921  1.3710  0.7716 -0.1286
 7310TIP3    H243346   4.893   0.209   0.783  1.4027  0.1703 -0.3559
 7311TIP3   OH243347   0.269   5.485   0.562  0.4474 -0.4396 -0.1579
 7311TIP3    H143348   0.349   5.479   0.510  0.2824  1.6151 -0.7266
 7311TIP3    H243349   0.204   5.521   0.501 -0.9377 -2.0268  0.3001
 7312TIP3   OH243350   1.926   0.138   6.106  0.3495 -0.0801  0.4157
 7312TIP3    H143351   1.901   0.096   6.188 -0.5465  0.4227  0.4105
 7312TIP3    H243352   1.844   0.149   6.057  0.9120 -0.7280 -0.7285
 7313TIP3   OH243353   5.688   3.498   2.597 -0.3147  0.5470 -0.1198
 7313TIP3    H143354   5.699   3.490   2.502  0.2207 -1.0724  0.0461
 7313TIP3    H243355   5.616   3.438   2.618 -0.3784  0.8363  0.4969
 7314TIP3   OH243356   4.112   5.166  14.139  0.0667 -0.7558 -0.4361
 7314TIP3    H143357   4.187   5.121  14.177  1.1708  0.5863 -0.9665
 7314TIP3    H243358   4.147   5.214  14.065 -0.6386  2.3835  1.0870
 7315TIP3   OH243359   4.362   6.026  15.416  0.5506 -0.3845 -0.7958
 7315TIP3    H143360   4.397   6.104  15.459  0.1988 -0.3370 -0.5893
 7315TIP3    H243361   4.439   5.974  15.394  0.7233 -0.6291  0.3134
 7316TIP3   OH243362   0.986   3.184  12.381 -0.3975  0.0262 -0.4062
 7316TIP3    H143363   1.018   3.223  12.299  0.5464  0.1536  0.0151
 7316TIP3    H243364   0.961   3.259  12.435 -2.1446 -0.0877 -0.9997
 7317TIP3   OH243365   4.855   6.557  16.747  0.3273  0.3276  0.0277
 7317TIP3    H143366   4.833   6.650  16.745 -0.2698  0.1980 -1.7783
 7317TIP3    H243367   4.926   6.548  16.682  0.7786 -0.3888  0.6070
 7318TIP3   OH243368   1.035   2.308  15.232  0.4789  0.1053 -0.2708
 7318TIP3    H143369   1.028   2.401  15.256 -1.8259  0.0182 -0.3701
 7318TIP3    H243370   1.015   2.261  15.313  2.1957 -0.3461 -0.0792
 7319TIP3   OH243371   4.491   2.952  13.382  0.5148  0.3778 -0.2396
 7319TIP3    H143372   4.516   2.998  13.462  1.2455 -0.9261  0.2981
 7319TIP3    H243373   4.426   3.010  13.341  1.4640  1.9234  0.3597
 7320TIP3   OH243374   5.411   1.927  13.100  0.5102  0.3412  0.0662
 7320TIP3    H143375   5.453   1.909  13.184  0.3881  0.4632  0.1545
 7320TIP3    H243376   5.326   1.964  13.123  0.0503 -0.5853 -0.1004
 7321TIP3   OH243377   3.168   2.092  10.863  0.3067 -0.0384  0.3690
 7321TIP3    H143378   3.221   2.031  10.813 -1.4141 -1.6071  0.3423
 7321TIP3    H243379   3.180   2.176  10.819  1.4434 -0.6949 -0.6252
 7322TIP3   OH243380   3.166   2.373  12.358  0.3349  0.4290 -0.0184
 7322TIP3    H143381   3.178   2.296  12.302  0.8290  0.6821 -0.2642
 7322TIP3    H243382   3.098   2.424  12.314  0.2662  0.3134 -0.0489
 7323TIP3   OH243383   6.555   5.395   1.123 -0.1453  0.4750 -0.1680
 7323TIP3    H143384   6.532   5.469   1.179 -0.6725  0.4341 -0.3257
 7323TIP3    H243385   6.496   5.325   1.151  1.3215 -0.3614  0.9859
 7324TIP3   OH243386   5.552   5.999   3.499  0.0320 -0.4400 -0.3913
 7324TIP3    H143387   5.461   6.027   3.506  0.8599  2.4801 -0.0388
 7324TIP3    H243388   5.580   6.029   3.413  1.3097  0.9474  0.4684
 7325TIP3   OH243389   0.846   3.615   1.079  0.2845  0.4977  0.0811
 7325TIP3    H143390   0.892   3.655   1.005  0.6770 -0.5632 -0.2657
 7325TIP3    H243391   0.877   3.524   1.080 -2.3854 -0.5100 -0.6674
 7326TIP3   OH243392   2.032   5.063  14.928  0.4041  0.5775 -0.2951
 7326TIP3    H143393   2.082   5.113  14.993 -0.0814 -0.1211  0.6460
 7326TIP3    H243394   2.092   4.994  14.901  0.1098 -0.0196  0.5344
 7327TIP3   OH243395   0.259   2.779   1.821 -0.2479 -0.3796  0.0615
 7327TIP3    H143396   0.290   2.819   1.903  0.9980 -1.4413  0.1334
 7327TIP3    H243397   0.293   2.690   1.823 -1.0871 -0.7583 -1.1478
 7328TIP3   OH243398   2.174   4.324  14.229 -0.2136 -0.1753 -0.1980
 7328TIP3    H143399   2.121   4.395  14.266  0.9982  0.8638 -0.3510
 7328TIP3    H243400   2.238   4.304  14.298  1.1476  0.7752 -1.1311
 7329TIP3   OH243401   6.166   3.399  13.645  0.0932 -0.4196 -0.0825
 7329TIP3    H143402   6.156   3.409  13.740  0.3841 -0.9214  0.0044
 7329TIP3    H243403   6.121   3.475  13.608 -1.7353 -1.2191  0.3817
 7330TIP3   OH243404   2.521   2.973  16.908 -0.4216 -0.2853  0.1681
 7330TIP3    H143405   2.555   3.061  16.925  0.1983 -0.7041  1.1692
 7330TIP3    H243406   2.521   2.931  16.994  0.3247 -1.6266 -0.4637
 7331TIP3   OH243407   5.603   2.380   0.895 -0.0572  0.1110 -0.0972
 7331TIP3    H143408   5.616   2.408   0.985 -1.9105  0.5391  0.0835
 7331TIP3    H243409   5.679   2.415   0.848  1.9608 -1.7476  1.5642
 7332TIP3   OH243410   1.825   0.824   1.830 -0.3743  0.4433 -0.3705
 7332TIP3    H143411   1.909   0.795   1.794 -0.5570 -0.1567 -0.3294
 7332TIP3    H243412   1.847   0.856   1.918 -0.2063  0.1832 -0.3165
 7333TIP3   OH243413   0.902   6.296   1.090 -0.5777  0.4586  0.2671
 7333TIP3    H143414   0.973   6.233   1.099 -0.2236  0.7071 -0.7052
 7333TIP3    H243415   0.830   6.257   1.139 -0.4747 -0.8926 -0.5865
 7334TIP3   OH243416   6.276   0.391  16.691  0.4560 -0.7306 -0.4847
 7334TIP3    H143417   6.208   0.346  16.740 -2.0591  1.7119 -1.4443
 7334TIP3    H243418   6.280   0.345  16.608  0.5221 -1.3398 -0.1494
 7335TIP3   OH243419   4.503   0.534   5.404 -0.0134 -0.0242 -0.1491
 7335TIP3    H143420   4.572   0.503   5.464 -1.6613  0.0338  1.8765
 7335TIP3    H243421   4.530   0.624   5.383  1.8065 -0.8041 -1.4722
 7336TIP3   OH243422   5.016   0.841  16.025 -0.2158  0.1586  0.4154
 7336TIP3    H143423   5.065   0.801  15.954 -1.3675  1.5925 -1.2694
 7336TIP3    H243424   5.083   0.876  16.084  0.7542 -1.5564  0.3673
 7337TIP3   OH243425   6.701   0.821  13.932  0.3937 -0.0987 -0.0908
 7337TIP3    H143426   6.611   0.799  13.958  0.5111 -0.1155  0.3056
 7337TIP3    H243427   6.697   0.828  13.837  0.6591 -3.3336 -0.4616
 7338TIP3   OH243428   3.891   3.295  16.790  0.7245  0.3038  0.3210
 7338TIP3    H143429   3.909   3.230  16.722  1.9945  2.4091 -1.5168
 7338TIP3    H243430   3.828   3.355  16.750  0.9648  1.1992  1.2418
 7339TIP3   OH243431   6.045   4.674  16.107  0.4604  0.6276 -0.1633
 7339TIP3    H143432   5.961   4.719  16.095 -0.6175 -1.3796 -0.8010
 7339TIP3    H243433   6.080   4.666  16.018  0.6576  0.2735 -0.0543
 7340TIP3   OH243434   4.639   2.159  10.496  0.2660  0.3766  0.3820
 7340TIP3    H143435   4.641   2.210  10.415 -1.3553 -0.5775 -0.3096
 7340TIP3    H243436   4.692   2.082  10.478 -1.3813 -0.6309 -0.3969
 7341TIP3   OH243437   2.458   0.998  12.112 -0.5137 -0.1158 -0.4095
 7341TIP3    H143438   2.454   0.924  12.052  2.2491 -0.7947  0.0998
 7341TIP3    H243439   2.401   0.973  12.185 -0.7421 -1.0697 -0.8994
 7342TIP3   OH243440   5.424   5.301   4.485 -0.8287  0.3362 -0.1039
 7342TIP3    H143441   5.447   5.372   4.425  0.3797 -1.1669 -1.5294
 7342TIP3    H243442   5.385   5.234   4.428 -0.9246 -0.5840  1.0192
 7343TIP3   OH243443   3.297   6.213  15.066  0.4091 -0.3390  0.4655
 7343TIP3    H143444   3.381   6.174  15.089  0.7703  0.0855 -0.0954
 7343TIP3    H243445   3.318   6.304  15.046 -0.6958  0.7447  3.6964
 7344TIP3   OH243446   5.618   3.631  10.884 -0.3347 -0.6506  0.0999
 7344TIP3    H143447   5.693   3.602  10.831 -0.5536 -2.0681  0.5157
 7344TIP3    H243448   5.570   3.551  10.903 -2.7405  0.3470 -1.2639
 7345TIP3   OH243449   3.100   5.130   4.311 -0.2287  0.2373 -0.2835
 7345TIP3    H143450   3.129   5.062   4.371  0.8144 -0.0287 -1.0428
 7345TIP3    H243451   3.040   5.085   4.251 -0.3304  0.2187 -0.1669
 7346TIP3   OH243452   6.765   0.402  11.505  0.2572 -0.0088  0.0340
 7346TIP3    H143453   6.826   0.404  11.580  0.7601 -1.5633 -0.3003
 7346TIP3    H243454   6.721   0.318  11.512 -2.0931  1.1878  0.3956
 7347TIP3   OH243455   3.409   6.399   1.986 -0.5966  0.3347  0.2887
 7347TIP3    H143456   3.398   6.430   1.896  1.2156  0.8605  0.2220
 7347TIP3    H243457   3.490   6.439   2.016 -2.0978  1.7021  2.8306
 7348TIP3   OH243458   5.670   3.148  14.688 -0.5702  0.5077 -0.1471
 7348TIP3    H143459   5.592   3.192  14.653 -1.6102 -1.4464 -0.4434
 7348TIP3    H243460   5.649   3.133  14.780 -0.4857  0.1356 -0.1861
 7349TIP3   OH243461   4.393   1.988  15.004  0.4808  0.5148  0.3082
 7349TIP3    H143462   4.330   1.950  15.067  0.0148  0.1400 -0.3695
 7349TIP3    H243463   4.339   2.042  14.947  0.6185 -0.5350 -0.8482
 7350TIP3   OH243464   2.157   0.676   5.188 -0.3113  0.4489  0.1654
 7350TIP3    H143465   2.142   0.596   5.239 -0.1123 -0.0464 -0.5415
 7350TIP3    H243466   2.242   0.662   5.146 -0.9781  0.3495 -1.2106
 7351TIP3   OH243467   3.381   5.816  11.367  0.3832  0.1926  0.4498
 7351TIP3    H143468   3.465   5.813  11.414  0.5233  0.6240  0.2323
 7351TIP3    H243469   3.361   5.725  11.348  0.0071 -0.0566  1.9159
 7352TIP3   OH243470   6.203   4.964  11.192  0.0284 -0.0283 -0.0826
 7352TIP3    H143471   6.228   4.976  11.284 -2.3758 -0.0946  0.6452
 7352TIP3    H243472   6.165   5.048  11.167 -2.3995 -0.9598  0.1159
 7353TIP3   OH243473   1.119   5.484   1.600 -0.3199 -0.0884 -0.3460
 7353TIP3    H143474   1.214   5.472   1.608 -0.4814 -1.7899 -0.7306
 7353TIP3    H243475   1.103   5.570   1.641  1.3551  0.1880 -0.1829
 7354TIP3   OH243476   1.808   1.194  16.717 -0.0629 -0.9478  0.2564
 7354TIP3    H143477   1.816   1.144  16.799 -0.3229 -0.3062  0.6879
 7354TIP3    H243478   1.751   1.267  16.741  2.1046  0.8232  0.2486
 7355TIP3   OH243479   2.444   1.636   3.899 -0.0953  0.7559  0.1902
 7355TIP3    H143480   2.468   1.617   3.809  1.0284  0.4700  0.5330
 7355TIP3    H243481   2.514   1.692   3.932  0.6507 -0.8490  1.4915
 7356TIP3   OH243482   0.252   0.315   2.820  0.1396  0.7745 -0.4549
 7356TIP3    H143483   0.222   0.399   2.786  0.4820  0.8188 -0.6448
 7356TIP3    H243484   0.279   0.265   2.743 -3.6965 -1.0268 -0.8656
 7357TIP3   OH243485   4.751   4.745  14.542  0.0853  0.1879 -0.3380
 7357TIP3    H143486   4.700   4.820  14.513 -1.7833 -0.6978  0.4841
 7357TIP3    H243487   4.792   4.774  14.624 -1.1386  0.1452  0.3142
 7358TIP3   OH243488   0.394   3.748   5.702 -0.6323 -0.3058 -0.6628
 7358TIP3    H143489   0.309   3.744   5.745 -0.5537 -0.2078 -0.4949
 7358TIP3    H243490   0.411   3.658   5.674 -0.0332 -0.6844  0.8052
 7359TIP3   OH243491   2.195   3.950   4.395  0.7140  0.0008  0.0451
 7359TIP3    H143492   2.138   3.877   4.422 -0.0714  0.3719 -0.5781
 7359TIP3    H243493   2.283   3.912   4.392  0.2768 -0.9925 -0.5278
 7360TIP3   OH243494   4.697   1.253   5.922  0.1374 -0.6336 -0.1783
 7360TIP3    H143495   4.690   1.337   5.969  0.4863 -0.2324 -0.8191
 7360TIP3    H243496   4.633   1.196   5.964 -0.4310  0.1007 -0.0272
 7361TIP3   OH243497   1.539   3.098   0.214 -0.2922  0.6669 -0.3720
 7361TIP3    H143498   1.502   3.186   0.209  1.4761  1.4456 -0.5562
 7361TIP3    H243499   1.532   3.064   0.125 -0.8078  0.6877 -0.3430
 7362TIP3   OH243500   3.377   1.477   5.086  0.5087 -0.2086  0.5557
 7362TIP3    H143501   3.372   1.422   5.164 -1.1737 -0.2243  0.4744
 7362TIP3    H243502   3.294   1.524   5.084  1.2265  1.0894 -0.2987
 7363TIP3   OH243503   1.055   3.311  12.123  0.2659 -0.1025 -0.4581
 7363TIP3    H143504   1.100   3.348  12.199  0.5173 -0.0624 -0.6279
 7363TIP3    H243505   1.099   3.350  12.047 -0.0403 -0.0780 -0.6236
 7364TIP3   OH243506   0.908   4.770   1.399 -0.4255 -0.6990  0.6445
 7364TIP3    H143507   0.992   4.814   1.416 -0.1851 -0.4392 -0.9931
 7364TIP3    H243508   0.853   4.793   1.474  0.7077 -0.2036  1.3585
 7365TIP3   OH243509   1.708   3.598   1.709 -0.3164  0.8417  0.7771
 7365TIP3    H143510   1.762   3.619   1.633  0.8923 -0.6019  1.1926
 7365TIP3    H243511   1.644   3.535   1.676 -0.5399  1.1087  0.7001
 7366TIP3   OH243512   5.114   3.417  13.844  0.3212  1.1477 -0.5171
 7366TIP3    H143513   5.176   3.409  13.917  0.6858  1.1137 -0.8262
 7366TIP3    H243514   5.167   3.398  13.766 -0.4753 -0.7014 -0.6471
 7367TIP3   OH243515   1.569   1.868   4.261  0.3559 -0.6260 -0.8594
 7367TIP3    H143516   1.494   1.888   4.316 -0.0810  0.6051 -1.8548
 7367TIP3    H243517   1.623   1.810   4.314  0.1866  0.8583  1.0185
 7368TIP3   OH243518   3.962   1.224  14.378  0.2529  0.2962 -0.1441
 7368TIP3    H143519   3.947   1.141  14.422  0.8079 -0.0195 -0.5378
 7368TIP3    H243520   3.907   1.287  14.425  0.1205 -0.2168  0.3942
 7369TIP3   OH243521   3.720   0.918   1.359 -0.1213 -0.2705 -0.5295
 7369TIP3    H143522   3.694   0.874   1.440 -0.0878  0.4321 -0.1354
 7369TIP3    H243523   3.684   0.862   1.290 -0.6284 -0.5828 -0.0274
 7370TIP3   OH243524   1.511   4.185   1.156  0.0319 -0.5430 -0.0812
 7370TIP3    H143525   1.437   4.196   1.216  0.6760  2.1882  0.3367
 7370TIP3    H243526   1.482   4.117   1.096 -2.3238 -0.4497  0.8207
 7371TIP3   OH243527   1.012   6.582   6.002  0.0148 -0.4564  0.3042
 7371TIP3    H143528   1.002   6.634   6.081  0.8976 -1.6890  1.2585
 7371TIP3    H243529   1.106   6.568   5.994 -0.1603 -1.3432 -0.2954
 7372TIP3   OH243530   0.356   0.088   3.117  0.4519  0.1680  0.1510
 7372TIP3    H143531   0.420   0.137   3.168 -0.0606 -0.4363  1.4218
 7372TIP3    H243532   0.287   0.151   3.098  0.1002  0.1193  1.2145
 7373TIP3   OH243533   1.666   6.586  16.933  0.0260  0.3489  0.0440
 7373TIP3    H143534   1.720   6.572  17.011  0.6460  2.0101 -0.0561
 7373TIP3    H243535   1.602   6.652  16.959  0.1809  0.8550 -0.8116
 7374TIP3   OH243536   4.971   3.399   3.827 -0.0549  0.4642 -0.3144
 7374TIP3    H143537   4.951   3.414   3.919  1.2391  0.4944 -0.0302
 7374TIP3    H243538   4.885   3.390   3.785 -0.8339  4.0313  0.2286
 7375TIP3   OH243539   5.150   1.512   6.437 -0.6374  0.1021 -0.2615
 7375TIP3    H143540   5.232   1.489   6.392 -0.8244 -1.1777  0.0193
 7375TIP3    H243541   5.098   1.432   6.433 -1.8266  0.8658 -0.3015
 7376TIP3   OH243542   6.273   3.241  12.146  0.6612 -0.2884 -0.3823
 7376TIP3    H143543   6.203   3.177  12.164  0.8670 -0.5414 -0.4797
 7376TIP3    H243544   6.226   3.322  12.125  0.3981 -0.0820  0.8971
 7377TIP3   OH243545   3.128   6.487  16.862 -0.3516 -0.4213  0.0597
 7377TIP3    H143546   3.158   6.511  16.950  0.8944 -1.9390  0.0986
 7377TIP3    H243547   3.086   6.566  16.829 -2.4573 -0.3003  2.6474
 7378TIP3   OH243548   5.572   1.598   5.040 -0.0518 -0.1264 -0.4987
 7378TIP3    H143549   5.624   1.547   5.103 -2.0125 -2.8703 -0.9377
 7378TIP3    H243550   5.615   1.582   4.956  0.4990  0.6695 -0.3865
 7379TIP3   OH243551   1.532   6.737  11.774 -0.0196 -0.8623 -0.0182
 7379TIP3    H143552   1.461   6.681  11.744 -2.1359  0.3165  2.4513
 7379TIP3    H243553   1.555   6.703  11.861  0.9123  0.1000  0.1408
 7380TIP3   OH243554   1.482   1.972   0.572 -0.0964  1.0142  1.1733
 7380TIP3    H143555   1.396   1.944   0.602  0.4171  0.6822  2.3839
 7380TIP3    H243556   1.510   2.037   0.637  1.8116 -1.0521  2.5426
 7381TIP3   OH243557   3.989   5.918   5.198  0.3828  0.1114 -0.4338
 7381TIP3    H143558   3.957   5.829   5.185  0.7564  0.0582 -1.0324
 7381TIP3    H243559   3.910   5.972   5.203 -0.0502 -0.6336  3.3941
 7382TIP3   OH243560   2.630   1.988  11.699  0.0650  0.0648  0.6895
 7382TIP3    H143561   2.712   2.036  11.686  0.4419 -0.3356  1.5260
 7382TIP3    H243562   2.632   1.961  11.790 -1.1144  0.2332  0.7830
 7383TIP3   OH243563   2.484   6.410  15.445  0.3280  0.2255  0.2422
 7383TIP3    H143564   2.483   6.328  15.494  0.2198  0.5835  0.8419
 7383TIP3    H243565   2.459   6.385  15.356 -0.4327 -0.2856  0.5873
 7384TIP3   OH243566   2.435   6.580  10.868  0.9950  0.2044  0.0582
 7384TIP3    H143567   2.454   6.567  10.961  1.0058 -1.0677 -0.0938
 7384TIP3    H243568   2.340   6.577  10.862  0.9508  1.2766  0.1477
 7385TIP3   OH243569   1.357   4.400   2.435  0.1777 -0.2766  0.3854
 7385TIP3    H143570   1.354   4.481   2.383  0.9576  0.1704  1.0157
 7385TIP3    H243571   1.433   4.353   2.400  0.9130  0.1792  1.3044
 7386TIP3   OH243572   1.469   5.616  10.939 -0.2375 -0.2555  0.0382
 7386TIP3    H143573   1.438   5.697  10.897 -2.1222 -0.1850  1.4527
 7386TIP3    H243574   1.538   5.646  10.998  0.6193 -0.0135 -1.0459
 7387TIP3   OH243575   6.321   5.818  16.508  0.9098  0.3205  0.1807
 7387TIP3    H143576   6.385   5.863  16.452 -1.3900  1.8511 -1.4186
 7387TIP3    H243577   6.281   5.752  16.450 -0.9692  1.4046  0.1528
 7388TIP3   OH243578   6.702   0.171  13.682  0.1292 -0.2998  0.4735
 7388TIP3    H143579   6.628   0.140  13.734 -0.3544 -0.1296 -0.1101
 7388TIP3    H243580   6.674   0.255  13.648  0.0618 -0.8381 -0.8451
 7389TIP3   OH243581   3.002   4.799   0.985  0.1852  0.0525  0.1394
 7389TIP3    H143582   2.987   4.807   0.890 -0.6093  0.8619  0.3124
 7389TIP3    H243583   2.968   4.882   1.021  0.5907 -0.1978  1.1160
 7390TIP3   OH243584   2.286   2.623  16.440 -0.3294 -0.2784 -0.0341
 7390TIP3    H143585   2.247   2.570  16.370 -0.7199  0.4182 -0.3526
 7390TIP3    H243586   2.325   2.698  16.395  1.4147 -0.9456  0.2783
 7391TIP3   OH243587   0.932   0.754   2.141 -0.0197  1.1344 -0.0278
 7391TIP3    H143588   0.893   0.839   2.162 -1.4583  0.6975 -0.7724
 7391TIP3    H243589   0.979   0.769   2.059  0.6312  1.4482  0.3934
 7392TIP3   OH243590   6.494   2.986   0.501 -0.2331 -0.0306 -0.6532
 7392TIP3    H143591   6.492   3.002   0.596  1.8713  0.8098 -0.6941
 7392TIP3    H243592   6.481   3.072   0.462  1.4042  0.0524 -1.0636
 7393TIP3   OH243593   0.062   0.414  13.909  0.3206  0.5692  0.0599
 7393TIP3    H143594   0.042   0.494  13.860 -0.0391 -0.1558 -1.0092
 7393TIP3    H243595  -0.022   0.387  13.947 -0.1588 -0.6705 -1.7131
 7394TIP3   OH243596   5.105   1.771   6.468  0.0859  0.7079 -0.1570
 7394TIP3    H143597   5.088   1.677   6.472  3.1942  0.0886  0.5045
 7394TIP3    H243598   5.171   1.781   6.400  0.3417  2.3135  0.2820
 7395TIP3   OH243599   3.969   1.407   4.110 -0.7210 -0.3800 -0.6887
 7395TIP3    H143600   3.882   1.445   4.123 -0.6541 -0.6079  0.5867
 7395TIP3    H243601   4.022   1.480   4.078 -0.8198  0.4088  0.8226
 7396TIP3   OH243602   3.416   6.634   1.023  0.3665 -0.7135 -0.7404
 7396TIP3    H143603   3.462   6.680   0.953  0.9210  1.9100  1.1701
 7396TIP3    H243604   3.458   6.664   1.103 -1.3286 -2.2601  0.8288
 7397TIP3   OH243605   4.596   1.209   4.645 -0.3459  0.2112  0.7546
 7397TIP3    H143606   4.621   1.117   4.634 -1.0370 -0.2060  2.3172
 7397TIP3    H243607   4.500   1.208   4.639 -0.2923  1.0737 -0.6278
 7398TIP3   OH243608   5.099   4.537   0.367  0.3405  0.0451  0.1236
 7398TIP3    H143609   5.156   4.478   0.416 -2.0057 -0.8238  1.9898
 7398TIP3    H243610   5.062   4.483   0.297  1.0182  0.3538 -0.4895
 7399TIP3   OH243611   6.497   1.060  14.919  0.1408 -0.6541 -0.2951
 7399TIP3    H143612   6.526   1.145  14.885  2.9753 -0.6885  1.7476
 7399TIP3    H243613   6.417   1.081  14.968  0.6841  0.8326  0.0200
 7400TIP3   OH243614   5.734   0.999   2.570  0.4461  0.6601 -0.3202
 7400TIP3    H143615   5.744   0.941   2.645  1.3454 -0.4865 -1.2722
 7400TIP3    H243616   5.819   1.042   2.562 -0.1594  2.0105  0.2679
 7401TIP3   OH243617   0.682   2.602   5.191  0.2222 -0.0457 -0.5933
 7401TIP3    H143618   0.682   2.683   5.242  0.0663 -0.4394  0.0361
 7401TIP3    H243619   0.774   2.591   5.164  0.2431  0.3398 -0.6923
 7402TIP3   OH243620   6.489   5.203  14.401 -0.2506  0.0657  0.3721
 7402TIP3    H143621   6.564   5.154  14.367 -0.4428  0.4602 -0.6631
 7402TIP3    H243622   6.413   5.161  14.361 -0.5295  0.1780  0.7758
 7403TIP3   OH243623   0.191   3.569   4.314  0.0874 -0.0630 -0.0319
 7403TIP3    H143624   0.106   3.578   4.271 -0.4078  0.9159  1.1071
 7403TIP3    H243625   0.173   3.515   4.391  0.9062 -1.5453 -0.8262
 7404TIP3   OH243626   5.249   3.237  11.703  0.3145 -0.3022 -0.5809
 7404TIP3    H143627   5.180   3.304  11.703  2.0046  1.5636 -1.7009
 7404TIP3    H243628   5.268   3.222  11.795 -0.8558 -0.0690 -0.2806
 7405TIP3   OH243629   2.536   4.593   0.357 -0.7555  0.2075  0.1912
 7405TIP3    H143630   2.550   4.524   0.422  0.6941  1.5328  1.3666
 7405TIP3    H243631   2.623   4.608   0.319 -1.6138 -0.7769 -2.3981
 7406TIP3   OH243632   4.706   0.101  11.892 -0.1649 -0.7659  0.1841
 7406TIP3    H143633   4.746   0.043  11.828  0.9851  0.4925 -0.2854
 7406TIP3    H243634   4.624   0.058  11.915 -0.6432 -1.2493 -2.1481
 7407TIP3   OH243635   3.773   2.283  15.697 -0.5120  0.3929 -0.6911
 7407TIP3    H143636   3.829   2.224  15.646  0.4775 -1.8619  2.6563
 7407TIP3    H243637   3.834   2.343  15.739 -0.7126 -0.6597  1.2373
 7408TIP3   OH243638   2.331   5.892   5.620  0.0284  0.5887 -0.0823
 7408TIP3    H143639   2.302   5.824   5.559 -0.4681 -0.6284  1.4476
 7408TIP3    H243640   2.420   5.914   5.591  0.1033 -0.5357 -0.7675
 7409TIP3   OH243641   3.569   4.257   1.162 -0.1211  0.1498  0.1633
 7409TIP3    H143642   3.553   4.312   1.239 -1.4916  0.1600 -0.1058
 7409TIP3    H243643   3.483   4.248   1.121  0.6466  0.5079 -1.6152
 7410TIP3   OH243644   1.275   2.026  14.915  0.4402 -0.5625 -0.3857
 7410TIP3    H143645   1.245   2.093  14.976 -0.7249 -1.1437 -0.2767
 7410TIP3    H243646   1.211   1.955  14.925  0.7290 -1.0306 -1.6381
 7411TIP3   OH243647   2.309   4.899  12.704 -0.5710  0.5727 -0.3375
 7411TIP3    H143648   2.258   4.923  12.782  0.5582  2.3354 -0.0935
 7411TIP3    H243649   2.266   4.820  12.672 -1.8260  0.4899  1.3623
 7412TIP3   OH243650   0.799   4.732   5.658  0.1313  0.3147 -0.4114
 7412TIP3    H143651   0.758   4.677   5.591  1.0066 -1.3604  0.3743
 7412TIP3    H243652   0.790   4.821   5.624  0.0081 -0.4273 -2.4600
 7413TIP3   OH243653   2.870   1.046   6.121 -0.1138 -0.0261 -0.2911
 7413TIP3    H143654   2.942   1.004   6.168  1.6756  0.4713 -2.4016
 7413TIP3    H243655   2.880   1.139   6.140 -1.6407 -0.1350  1.2081
 7414TIP3   OH243656   1.641   1.235  12.974  0.4434 -0.0789  0.1930
 7414TIP3    H143657   1.557   1.268  12.941  0.6844  2.3120  1.7566
 7414TIP3    H243658   1.693   1.314  12.989  3.0819 -1.5037 -0.9090
 7415TIP3   OH243659   4.592   0.983   2.316 -0.0644 -0.2424 -0.3719
 7415TIP3    H143660   4.506   0.943   2.322 -0.6436  0.8590 -0.9743
 7415TIP3    H243661   4.575   1.076   2.300  1.2326 -0.0067 -0.5603
 7416TIP3   OH243662   5.930   2.644   3.251  1.0558  0.3840 -0.1961
 7416TIP3    H143663   5.889   2.667   3.334  0.4441  0.4357 -0.5036
 7416TIP3    H243664   5.899   2.555   3.232  1.5346  0.2037 -0.1648
 7417TIP3   OH243665   4.970   6.349   4.761 -0.0391  0.3981 -0.5126
 7417TIP3    H143666   5.035   6.311   4.820 -0.9994 -0.0999  0.2616
 7417TIP3    H243667   5.021   6.383   4.687  1.0520 -0.3313 -0.1198
 7418TIP3   OH243668   2.707   2.045  12.998 -0.2700  0.3927 -0.5451
 7418TIP3    H143669   2.675   1.996  12.922 -0.4755  1.3383 -1.0819
 7418TIP3    H243670   2.801   2.030  12.999 -0.3315 -0.0280 -0.6832
 7419TIP3   OH243671   4.724   1.154   5.647  0.0407 -0.1174 -0.2085
 7419TIP3    H143672   4.719   1.187   5.737  0.2255  1.2584 -0.6824
 7419TIP3    H243673   4.638   1.171   5.610  0.0622 -0.3984 -0.3931
 7420TIP3   OH243674   2.287   3.673   3.111 -0.0338  0.3544  0.2497
 7420TIP3    H143675   2.284   3.765   3.084 -1.4124  0.9295  2.1431
 7420TIP3    H243676   2.365   3.668   3.167  0.3905  0.2065 -0.3468
 7421TIP3   OH243677   4.154   2.717   5.757  0.0513  0.0736 -0.0049
 7421TIP3    H143678   4.101   2.678   5.827  1.9976 -1.3465  0.7838
 7421TIP3    H243679   4.191   2.796   5.796 -0.5853  0.4601 -0.1776
 7422TIP3   OH243680   3.919   3.133   0.348  0.1072 -0.1358 -0.2505
 7422TIP3    H143681   3.916   3.050   0.300  0.5185  0.7977 -2.0163
 7422TIP3    H243682   3.992   3.180   0.308 -0.2131  1.1423  0.6108
 7423TIP3   OH243683   3.866   2.824   1.643  0.4515  0.1986  0.7140
 7423TIP3    H143684   3.912   2.814   1.726  1.4356 -0.1387  0.1352
 7423TIP3    H243685   3.934   2.817   1.576 -0.3630  0.2184 -0.1383
 7424TIP3   OH243686   6.291   2.570  16.257  0.4658  0.2074  0.0656
 7424TIP3    H143687   6.295   2.635  16.327  2.8185 -1.2436  1.3603
 7424TIP3    H243688   6.213   2.518  16.278 -0.2266  1.2571  0.1989
 7425TIP3   OH243689   1.496   4.328   2.088  0.0925 -0.2161 -0.3581
 7425TIP3    H143690   1.450   4.406   2.120 -0.0744  0.1046 -1.3525
 7425TIP3    H243691   1.567   4.315   2.151 -0.3448  0.2752  0.2529
 7426TIP3   OH243692   2.681   5.949   2.178 -0.0294 -0.1277 -0.3692
 7426TIP3    H143693   2.623   5.935   2.103  0.4145  1.0093 -0.9408
 7426TIP3    H243694   2.655   5.881   2.241 -1.6456  0.0473 -0.7980
 7427TIP3   OH243695   6.379   4.701   3.626  0.2335  0.7426  0.6339
 7427TIP3    H143696   6.298   4.752   3.636  0.1453  0.5417  0.9849
 7427TIP3    H243697   6.409   4.686   3.715 -1.0787 -1.9039  0.7244
 7428TIP3   OH243698   2.471   5.454  13.113  0.2862  0.3010  0.0222
 7428TIP3    H143699   2.412   5.379  13.103 -1.2413  1.2782  1.2242
 7428TIP3    H243700   2.537   5.423  13.175  2.3495 -1.4688 -2.7962
 7429TIP3   OH243701   5.341   4.266  13.281 -0.4604  0.0261  0.2035
 7429TIP3    H143702   5.304   4.334  13.224 -2.4264 -0.3118  0.9942
 7429TIP3    H243703   5.401   4.217  13.225 -1.4457  0.4412 -1.2617
 7430TIP3   OH243704   3.055   4.256  10.983  0.0422 -0.5632 -0.3036
 7430TIP3    H143705   2.990   4.254  10.913  1.2160 -0.6247 -1.4492
 7430TIP3    H243706   3.073   4.349  10.997 -1.1195 -0.4992  0.8361
 7431TIP3   OH243707   2.849   4.779   4.035  0.8181  0.1351  0.7497
 7431TIP3    H143708   2.837   4.701   4.090 -0.3789  0.5802  1.1391
 7431TIP3    H243709   2.762   4.816   4.026  1.3607  1.3989  0.5050
 7432TIP3   OH243710   3.225   3.290   1.398  0.4639 -0.1523  0.6051
 7432TIP3    H143711   3.190   3.379   1.388 -0.5213 -0.0617  3.7809
 7432TIP3    H243712   3.191   3.260   1.483  3.2217 -2.4244  1.0620
 7433TIP3   OH243713   3.760   0.212  12.731 -0.6663  0.5121  0.5585
 7433TIP3    H143714   3.763   0.303  12.701 -1.0058 -0.0216 -1.2154
 7433TIP3    H243715   3.667   0.198  12.752 -0.9605  0.1006 -0.8785
 7434TIP3   OH243716   2.617   6.520   2.483 -0.3417 -0.1817 -0.1131
 7434TIP3    H143717   2.647   6.464   2.555  0.1571 -0.3884 -0.4750
 7434TIP3    H243718   2.527   6.492   2.466  0.3036 -1.7939 -1.1431
 7435TIP3   OH243719   4.499   2.835   1.214  0.4497 -0.4152  0.1575
 7435TIP3    H143720   4.451   2.786   1.148 -0.0653 -0.3422  0.4648
 7435TIP3    H243721   4.524   2.770   1.279 -0.9292 -0.1794  0.9695
 7436TIP3   OH243722   4.671   2.583  16.055  0.1936  0.0181  0.1079
 7436TIP3    H143723   4.640   2.650  16.116 -1.0923 -0.1667 -0.3114
 7436TIP3    H243724   4.708   2.633  15.982 -0.8290  0.2932 -0.2413
 7437TIP3   OH243725   6.162   4.123   1.178  0.0419 -0.3015  0.1623
 7437TIP3    H143726   6.129   4.042   1.140  1.2076 -1.5345  1.6515
 7437TIP3    H243727   6.084   4.174   1.197 -0.8559 -1.9367  1.0375
 7438TIP3   OH243728   5.222   2.951   5.717 -0.7968  0.6277  0.2663
 7438TIP3    H143729   5.283   3.009   5.670 -1.1175  1.7074  1.1344
 7438TIP3    H243730   5.276   2.910   5.784 -0.7649  0.6332  0.2442
 7439TIP3   OH243731   1.097   5.657  16.093 -0.1124  0.0549  0.9023
 7439TIP3    H143732   1.018   5.694  16.054 -0.4885 -1.3285  0.2615
 7439TIP3    H243733   1.088   5.674  16.187 -0.2819  1.4759  0.6529
 7440TIP3   OH243734   2.068   4.615   0.427 -0.4639 -0.1914  0.2546
 7440TIP3    H143735   2.095   4.537   0.475 -0.1186 -1.1621 -1.4506
 7440TIP3    H243736   1.973   4.619   0.441 -0.5917 -1.3027 -0.1412
 7441TIP3   OH243737   1.236   1.933  12.395 -0.5882 -0.4243  0.3088
 7441TIP3    H143738   1.282   1.938  12.311 -1.8617  1.2642 -0.3578
 7441TIP3    H243739   1.144   1.950  12.373 -1.1729 -1.3271  1.8866
 7442TIP3   OH243740   4.937   2.995  15.553  0.4037  0.3542 -0.2177
 7442TIP3    H143741   4.954   3.044  15.634  2.1488  1.2423 -1.0632
 7442TIP3    H243742   5.020   2.954  15.532 -0.0286  0.1055 -1.5455
 7443TIP3   OH243743   2.086   5.828   6.071  0.1755  0.1845  0.0071
 7443TIP3    H143744   2.060   5.746   6.113  1.0497  0.1585  0.5103
 7443TIP3    H243745   2.083   5.810   5.977 -0.3097 -0.2106  0.0937
 7444TIP3   OH243746   1.364   5.604   4.760  0.3399 -0.0469  0.4827
 7444TIP3    H143747   1.389   5.532   4.817 -2.6791 -2.7200 -1.2744
 7444TIP3    H243748   1.447   5.639   4.727  1.9513 -1.6062  2.6210
 7445TIP3   OH243749   1.519   0.821   2.087  0.1906 -0.5671  0.0344
 7445TIP3    H143750   1.459   0.823   2.162  0.1487 -1.6141  0.0498
 7445TIP3    H243751   1.462   0.833   2.011  0.3161  1.1876  0.1850
 7446TIP3   OH243752   1.405   1.276  14.318 -0.6050  0.6970  0.2772
 7446TIP3    H143753   1.403   1.329  14.238 -3.2636  2.2245  1.2246
 7446TIP3    H243754   1.348   1.202  14.300  2.9265 -1.9941 -0.9606
 7447TIP3   OH243755   5.704   2.314   1.944 -0.3131 -0.4352  0.6995
 7447TIP3    H143756   5.706   2.407   1.921  1.0941 -0.1172  1.9498
 7447TIP3    H243757   5.633   2.307   2.009 -1.3402 -0.5269 -0.3915
 7448TIP3   OH243758   2.082   1.975   3.466  0.1223 -0.0927  0.4445
 7448TIP3    H143759   2.086   1.880   3.476  1.2599 -0.2482 -1.0749
 7448TIP3    H243760   2.160   2.007   3.510 -0.6173  0.2324  1.5638
 7449TIP3   OH243761   2.842   2.188   0.779  0.7113 -0.3242  1.1478
 7449TIP3    H143762   2.888   2.272   0.777 -0.6665  0.4351  0.1025
 7449TIP3    H243763   2.816   2.179   0.871  0.6433  0.5222  1.2253
 7450TIP3   OH243764   4.689   0.278  12.835  0.5883 -0.3284 -0.1046
 7450TIP3    H143765   4.625   0.310  12.771  0.3182  1.8314  1.1718
 7450TIP3    H243766   4.645   0.203  12.876 -1.7066  1.7274  1.4935
 7451TIP3   OH243767   3.280   5.165  15.029 -0.1032  0.4028  0.2208
 7451TIP3    H143768   3.193   5.183  14.994  0.8607  4.4988 -0.4991
 7451TIP3    H243769   3.333   5.142  14.953 -0.3693 -1.8644  0.6306
 7452TIP3   OH243770   3.122   2.838   2.170 -0.3590 -0.0825 -0.3113
 7452TIP3    H143771   3.201   2.789   2.191 -0.1994  0.4397  0.3571
 7452TIP3    H243772   3.106   2.891   2.248 -1.2463 -0.0220 -0.5231
 7453TIP3   OH243773   2.713   3.342  14.869  0.3026 -0.5576  0.0535
 7453TIP3    H143774   2.704   3.411  14.935 -0.9666 -0.3045 -0.3442
 7453TIP3    H243775   2.626   3.302  14.865  0.3441 -0.5513 -1.4620
 7454TIP3   OH243776   1.669   6.648  14.787  0.1010  0.2329 -0.0232
 7454TIP3    H143777   1.603   6.655  14.856 -0.1101  0.0298 -0.2065
 7454TIP3    H243778   1.708   6.561  14.799 -0.0341  0.1403 -0.2476
 7455TIP3   OH243779   0.581   6.131   2.691  0.5002 -0.1363 -0.8772
 7455TIP3    H143780   0.640   6.094   2.757 -0.0066  1.3756  0.5133
 7455TIP3    H243781   0.633   6.198   2.647 -0.1286  1.2740  0.4238
 7456TIP3   OH243782   5.227   0.391   3.794 -0.5556 -0.8040 -0.2607
 7456TIP3    H143783   5.294   0.323   3.781  1.3397  0.7948  0.5595
 7456TIP3    H243784   5.276   0.467   3.825 -2.8719  0.2565  1.0643
 7457TIP3   OH243785   3.383   1.083   1.250 -0.2475 -0.1929  0.4064
 7457TIP3    H143786   3.395   1.053   1.160 -0.7613  2.1994 -0.5398
 7457TIP3    H243787   3.458   1.140   1.266 -0.5327 -0.0442  1.2590
 7458TIP3   OH243788   2.105   1.315  13.104  0.5074 -0.4742 -0.1891
 7458TIP3    H143789   2.156   1.293  13.026 -0.4178 -2.7415 -0.2276
 7458TIP3    H243790   2.141   1.259  13.173 -0.9227 -1.0338  0.1361
 7459TIP3   OH243791   3.026   1.648   3.362 -0.3677 -0.6746 -0.2743
 7459TIP3    H143792   3.053   1.682   3.277 -0.8820  0.4689  0.0019
 7459TIP3    H243793   2.937   1.681   3.375 -0.4436 -1.1480  0.5415
 7460TIP3   OH243794   0.269   3.711   1.247 -0.6764 -0.1578 -0.2420
 7460TIP3    H143795   0.251   3.639   1.308 -0.1561  0.5022  0.6957
 7460TIP3    H243796   0.246   3.790   1.295  0.1730  0.4015 -0.7351
 7461TIP3   OH243797   1.788   2.891  10.646 -0.2317 -0.4972 -0.4439
 7461TIP3    H143798   1.771   2.937  10.564  0.2205 -0.3125 -0.4389
 7461TIP3    H243799   1.703   2.859  10.674 -0.5196  0.1286 -0.5769
 7462TIP3   OH243800   2.279   4.005  16.867  0.3638  0.6141  0.0735
 7462TIP3    H143801   2.318   4.071  16.924 -0.9009  2.3266 -0.9417
 7462TIP3    H243802   2.330   4.011  16.786  0.4478  0.0870  0.0829
 7463TIP3   OH243803   5.585   1.216   0.837  0.2389 -0.5921 -0.0105
 7463TIP3    H143804   5.620   1.166   0.910 -1.9980 -1.2250  0.7049
 7463TIP3    H243805   5.502   1.174   0.816 -0.9181  1.7577 -0.5142
 7464TIP3   OH243806   2.310   5.214  16.482 -0.4866 -0.0750 -0.1148
 7464TIP3    H143807   2.342   5.132  16.521  0.8130  0.8427  0.8529
 7464TIP3    H243808   2.260   5.186  16.405  0.8340 -1.7452 -0.4501
 7465TIP3   OH243809   4.196   3.697  15.391  0.0805 -0.4280 -0.1147
 7465TIP3    H143810   4.252   3.627  15.426  1.6591  0.1619 -1.3506
 7465TIP3    H243811   4.108   3.659  15.390  0.9010 -2.4567 -0.8224
 7466TIP3   OH243812   0.718   4.846  13.245  0.1092  0.2495  0.5459
 7466TIP3    H143813   0.740   4.753  13.244  0.1207  0.2480  0.8322
 7466TIP3    H243814   0.700   4.868  13.153  2.5211  0.5520  0.0891
 7467TIP3   OH243815   0.627   2.850  14.247  0.5631 -0.5299  0.3280
 7467TIP3    H143816   0.722   2.850  14.244  0.5782  1.0521 -0.4593
 7467TIP3    H243817   0.601   2.923  14.190 -1.0958 -0.4661  1.0983
 7468TIP3   OH243818   1.596   2.389  16.301  0.4838  0.8994 -0.0742
 7468TIP3    H143819   1.570   2.297  16.313 -0.4492  1.2386  0.6334
 7468TIP3    H243820   1.684   2.394  16.339  0.7283  0.1977 -0.5333
 7469TIP3   OH243821   0.193   2.234  16.945 -0.0077 -0.4611  0.0448
 7469TIP3    H143822   0.157   2.155  16.985 -1.0012 -0.6855 -1.2294
 7469TIP3    H243823   0.272   2.203  16.900  0.7332 -0.3290  1.1991
 7470TIP3   OH243824   3.107   1.470   0.727  0.1725  0.3476  0.2404
 7470TIP3    H143825   3.169   1.480   0.655 -0.3084 -1.0635 -0.4053
 7470TIP3    H243826   3.127   1.542   0.786  0.0594  2.0460 -1.6824
 7471TIP3   OH243827   3.865   1.715  15.087 -0.1831  0.3675 -0.6456
 7471TIP3    H143828   3.863   1.626  15.122  0.6361  0.3128 -0.7286
 7471TIP3    H243829   3.870   1.704  14.992  0.7286  0.4883 -0.6186
 7472TIP3   OH243830   3.917   4.362  15.319 -0.5575 -0.3032 -0.6294
 7472TIP3    H143831   3.989   4.377  15.381 -2.8491  3.6231  1.5161
 7472TIP3    H243832   3.875   4.282  15.350  2.2060 -2.2004 -1.4187
 7473TIP3   OH243833   5.771   6.626   0.794  0.6739  0.3559  0.0853
 7473TIP3    H143834   5.805   6.708   0.759  0.1117  0.1474 -1.0016
 7473TIP3    H243835   5.678   6.642   0.808  0.1390 -0.6450 -1.9717
 7474TIP3   OH243836   1.482   0.637   4.544 -0.2812 -0.3605 -0.3886
 7474TIP3    H143837   1.502   0.673   4.457  1.3415 -0.4216 -0.0635
 7474TIP3    H243838   1.555   0.664   4.599 -0.9449 -0.9150  0.8083
 7475TIP3   OH243839   4.352   4.375  15.056  0.3781 -0.0174  0.0422
 7475TIP3    H143840   4.399   4.360  15.138 -2.6742 -2.6015  1.5254
 7475TIP3    H243841   4.301   4.454  15.071 -0.3777 -0.6324  0.7867
 7476TIP3   OH243842   6.762   5.376  12.760 -0.5011 -0.2943 -0.0424
 7476TIP3    H143843   6.847   5.420  12.763 -0.2617 -0.7543 -0.0306
 7476TIP3    H243844   6.740   5.371  12.667 -0.6225  0.0274 -0.0325
 7477TIP3   OH243845   5.596   4.847  16.335  0.6924  0.2309 -0.2049
 7477TIP3    H143846   5.560   4.930  16.304  0.4259  0.4782  0.7238
 7477TIP3    H243847   5.548   4.781  16.287 -0.2820  0.5874  0.2451
 7478TIP3   OH243848   4.102   4.139   4.270  0.2036 -0.3099  0.2208
 7478TIP3    H143849   4.086   4.050   4.240  0.9032 -0.4418  0.2369
 7478TIP3    H243850   4.110   4.132   4.365 -1.2503  0.0005  0.3993
 7479TIP3   OH243851   0.075   5.820   3.042 -0.2260 -0.0993 -0.0195
 7479TIP3    H143852  -0.015   5.830   3.013 -0.0279  0.7737 -0.3646
 7479TIP3    H243853   0.068   5.801   3.136 -0.7454  0.7624  0.1271
 7480TIP3   OH243854   5.312   2.928  11.378  1.1674  0.1937  0.1252
 7480TIP3    H143855   5.343   2.845  11.415  0.0148 -0.5899 -0.6008
 7480TIP3    H243856   5.217   2.920  11.378  0.9868  1.9531  0.9845
 7481TIP3   OH243857   3.520   6.067  15.094 -0.3773  0.5838 -0.1303
 7481TIP3    H143858   3.532   5.987  15.043 -1.1935  0.3741 -0.0092
 7481TIP3    H243859   3.605   6.111  15.090 -0.0354 -0.0946 -0.5274
 7482TIP3   OH243860   0.155   1.018   6.626 -0.3853 -0.1234  0.6751
 7482TIP3    H143861   0.190   0.989   6.542 -0.7028  0.0965  0.4668
 7482TIP3    H243862   0.066   1.046   6.607 -1.2969 -2.2159  1.4569
 7483TIP3   OH243863   6.758   4.292   2.668 -0.1283 -0.3054  0.1248
 7483TIP3    H143864   6.699   4.321   2.598 -2.0754  2.3914  2.6432
 7483TIP3    H243865   6.709   4.226   2.716 -0.6112  0.8929  1.3582
 7484TIP3   OH243866   6.293   5.504  17.262 -0.3215  0.0756  0.4470
 7484TIP3    H143867   6.254   5.586  17.231 -0.1798 -0.4674 -1.2753
 7484TIP3    H243868   6.239   5.436  17.223  1.8998 -0.6830 -1.5190
 7485TIP3   OH243869   1.277   2.867  12.061 -0.2100 -0.6818 -0.1994
 7485TIP3    H143870   1.295   2.859  11.967 -0.0308 -1.9019 -0.0782
 7485TIP3    H243871   1.189   2.831  12.071  0.2613 -1.7240  0.2708
 7486TIP3   OH243872   0.647   2.571   6.016 -0.0429  0.2521 -0.1480
 7486TIP3    H143873   0.593   2.635   6.064 -1.2472  0.8583 -2.2031
 7486TIP3    H243874   0.608   2.486   6.039  0.0744  0.4274  0.7526
 7487TIP3   OH243875   5.315   4.077  13.536 -0.4026  0.1155 -0.1311
 7487TIP3    H143876   5.350   4.162  13.564  0.0905 -0.6377  1.6920
 7487TIP3    H243877   5.268   4.045  13.613  0.0567 -1.5833 -0.5337
 7488TIP3   OH243878   0.697   2.859   3.052 -0.1812 -0.3425 -0.2183
 7488TIP3    H143879   0.686   2.834   3.144  0.9634  0.4609  0.1644
 7488TIP3    H243880   0.615   2.833   3.010 -1.0046 -0.1184  1.1665
 7489TIP3   OH243881   1.286   0.001  12.195  0.4315 -0.1585 -0.6617
 7489TIP3    H143882   1.361  -0.045  12.233  0.4231 -0.5061 -1.0624
 7489TIP3    H243883   1.232   0.026  12.270  1.9070  1.8259 -0.1775
 7490TIP3   OH243884   4.458   1.513  13.973 -0.7932  1.0036  0.7520
 7490TIP3    H143885   4.536   1.568  13.974 -0.1857  0.1828 -0.2925
 7490TIP3    H243886   4.444   1.493  13.880 -1.0302 -0.5569  1.1036
 7491TIP3   OH243887   0.902   0.443   0.221 -0.4594 -0.1462  0.5464
 7491TIP3    H143888   0.890   0.452   0.316 -1.2846  0.3180  0.4053
 7491TIP3    H243889   0.970   0.376   0.212  1.0249  1.1585  1.4971
 7492TIP3   OH243890   0.428   5.237   3.312  0.1982  0.5278  1.1149
 7492TIP3    H143891   0.385   5.317   3.283  2.6160  1.2345 -0.8031
 7492TIP3    H243892   0.395   5.169   3.252 -0.9912  0.2716  2.0243
 7493TIP3   OH243893   0.960   0.286   0.765  0.9480  0.3914 -0.3080
 7493TIP3    H143894   0.984   0.304   0.674  2.4326 -1.7470 -0.4317
 7493TIP3    H243895   0.963   0.190   0.772  0.9993  0.5017  2.0088
 7494TIP3   OH243896   0.900   2.256   6.169  0.4031 -0.3437  0.0360
 7494TIP3    H143897   0.807   2.270   6.186  0.3921  0.6444 -0.7883
 7494TIP3    H243898   0.901   2.180   6.110  0.1911 -0.8938  0.7118
 7495TIP3   OH243899   0.153   6.215   2.477 -0.5605  0.3123 -0.0230
 7495TIP3    H143900   0.059   6.229   2.485 -0.6493 -0.4983  0.4133
 7495TIP3    H243901   0.184   6.204   2.567 -0.2508 -0.6344 -0.2256
 7496TIP3   OH243902   2.777   3.143  13.429  0.7784  0.4493  0.5303
 7496TIP3    H143903   2.751   3.231  13.454  3.6053  1.5592 -0.0089
 7496TIP3    H243904   2.871   3.139  13.450  0.3669 -3.2291  2.6932
 7497TIP3   OH243905   5.512   6.334  16.825 -0.3399  0.2845 -0.3419
 7497TIP3    H143906   5.585   6.395  16.816 -0.9913  0.8326 -2.6257
 7497TIP3    H243907   5.546   6.251  16.791 -0.1289 -0.0619  0.6859
 7498TIP3   OH243908   0.071   6.028  13.961  0.0174  0.1644 -0.2490
 7498TIP3    H143909   0.053   6.017  14.054 -0.0825  0.9984 -0.1582
 7498TIP3    H243910   0.012   6.098  13.934  0.2507  0.1231 -0.8753
 7499TIP3   OH243911   2.354   6.487   0.657  0.1567  0.1888 -0.1655
 7499TIP3    H143912   2.419   6.556   0.653 -1.2722  1.5285 -1.6397
 7499TIP3    H243913   2.278   6.527   0.700 -0.6576 -0.4601 -0.9315
 7500TIP3   OH243914   6.298   2.178  16.188 -0.9838  0.0084  0.6477
 7500TIP3    H143915   6.313   2.249  16.125 -0.7626  1.0245  1.8113
 7500TIP3    H243916   6.379   2.128  16.188 -1.3949 -0.7254 -0.7232
 7501TIP3   OH243917   6.434   2.840   1.386 -0.4970  0.1550  0.0908
 7501TIP3    H143918   6.479   2.920   1.359  1.1354 -1.1580 -1.3466
 7501TIP3    H243919   6.341   2.857   1.371 -0.0826  1.4103 -1.2270
 7502TIP3   OH243920   0.131   6.427  17.125 -0.2545 -0.1735  0.4512
 7502TIP3    H143921   0.137   6.342  17.081  1.7890 -1.5324  3.1063
 7502TIP3    H243922   0.044   6.427  17.165  0.2226 -1.6810  1.5778
 7503TIP3   OH243923   4.268   1.947   2.500 -0.0100  0.5043  0.1150
 7503TIP3    H143924   4.237   1.867   2.457 -2.3165  0.4496  1.7173
 7503TIP3    H243925   4.352   1.922   2.538 -0.4356 -1.0173  0.1197
 7504TIP3   OH243926   1.512   1.209  12.024  0.3525  0.0198 -0.1486
 7504TIP3    H143927   1.565   1.132  12.043  0.5542  0.3148  0.4917
 7504TIP3    H243928   1.522   1.265  12.100 -1.5388 -0.2602  0.3649
 7505TIP3   OH243929   5.418   1.226  11.756 -0.0761  0.3463 -0.1630
 7505TIP3    H143930   5.357   1.168  11.801 -1.5457  0.1628 -2.2185
 7505TIP3    H243931   5.476   1.168  11.707 -0.2870  0.5647 -0.6818
 7506TIP3   OH243932   1.801   4.359   0.835 -0.0088 -0.3669 -0.4233
 7506TIP3    H143933   1.725   4.379   0.780 -0.9563 -0.2629  0.8752
 7506TIP3    H243934   1.822   4.268   0.816 -0.6116 -0.4674 -0.6222
 7507TIP3   OH243935   0.283   1.002  15.297 -0.4590 -0.1664  0.2672
 7507TIP3    H143936   0.350   0.995  15.366 -1.6082  0.7807  1.5413
 7507TIP3    H243937   0.213   0.944  15.326 -1.8421  1.7664  1.0321
 7508TIP3   OH243938   1.207   5.233  14.633  0.1179  0.2318 -0.1010
 7508TIP3    H143939   1.136   5.179  14.667  0.6548 -1.5996 -1.6910
 7508TIP3    H243940   1.271   5.236  14.705 -0.7547  0.3761  0.6854
 7509TIP3   OH243941   1.590   3.797   6.111 -0.1894  0.4534 -0.1455
 7509TIP3    H143942   1.573   3.703   6.116 -0.6638  0.5272 -0.2862
 7509TIP3    H243943   1.674   3.804   6.065 -0.0391  0.0917  0.0704
 7510TIP3   OH243944   3.802   2.198   2.587 -0.2618 -0.2557  0.5425
 7510TIP3    H143945   3.782   2.140   2.514 -0.8470 -0.4608  0.8630
 7510TIP3    H243946   3.893   2.178   2.609  0.3795  0.7565 -0.9899
 7511TIP3   OH243947   4.147   1.568   6.461 -0.3512 -0.4434  0.2952
 7511TIP3    H143948   4.059   1.577   6.497  0.9648 -0.2046  3.8190
 7511TIP3    H243949   4.154   1.639   6.397 -2.6435 -0.4127 -0.0028
 7512TIP3   OH243950   5.436   1.080  15.857  0.0504 -0.2390  0.0357
 7512TIP3    H143951   5.395   1.117  15.935  0.6044  0.5426 -0.0278
 7512TIP3    H243952   5.402   0.991  15.851  0.5711 -0.5713  1.5819
 7513TIP3   OH243953   3.804   6.476   6.399 -0.6719 -0.6902 -0.2836
 7513TIP3    H143954   3.716   6.500   6.426 -0.2972 -0.6458  0.9272
 7513TIP3    H243955   3.844   6.557   6.369  0.5856  0.4290  3.7587
 7514TIP3   OH243956   4.952   3.931   4.302  0.0939 -0.4657 -0.5311
 7514TIP3    H143957   4.964   3.877   4.380  1.6149 -1.1921 -1.2015
 7514TIP3    H243958   4.870   3.901   4.264 -0.2576 -0.6551  0.3734
 7515TIP3   OH243959   1.698   6.453  12.037  0.3522  0.3203  0.3067
 7515TIP3    H143960   1.726   6.445  12.128  1.1847  2.8525  0.3209
 7515TIP3    H243961   1.609   6.416  12.037  0.7605 -0.7766  1.8639
 7516TIP3   OH243962   6.585   3.418  12.924  0.0715 -0.3482 -0.0627
 7516TIP3    H143963   6.577   3.334  12.970  0.2021  0.5727  1.7115
 7516TIP3    H243964   6.497   3.434  12.888  0.0845 -1.2978 -0.5453
 7517TIP3   OH243965   3.527   2.996  15.671  0.3336  0.1351  0.0584
 7517TIP3    H143966   3.512   3.007  15.578 -0.3493  1.0813  0.2748
 7517TIP3    H243967   3.623   2.995  15.680  0.4024 -0.0779 -0.6522
 7518TIP3   OH243968   4.074   4.996   1.220  0.0587  0.7750  0.4738
 7518TIP3    H143969   4.066   5.020   1.128 -0.4193  0.1884  0.3614
 7518TIP3    H243970   4.122   4.913   1.219 -1.1345  0.0599  0.6575
 7519TIP3   OH243971   1.463   5.168  12.650  0.0997  0.4739  0.6394
 7519TIP3    H143972   1.501   5.138  12.567 -1.2019  1.1398 -0.2309
 7519TIP3    H243973   1.370   5.148  12.643 -0.3890  2.3548  1.0711
 7520TIP3   OH243974   4.539   5.368  15.829 -0.1311  0.3238  0.4167
 7520TIP3    H143975   4.470   5.397  15.889  0.4040  2.7207 -0.0096
 7520TIP3    H243976   4.493   5.315  15.764 -1.4183  1.0561  0.6950
 7521TIP3   OH243977   5.574   3.711   1.639  0.1721 -0.2851 -0.2359
 7521TIP3    H143978   5.503   3.647   1.645  0.3780 -0.4307  1.0572
 7521TIP3    H243979   5.585   3.728   1.546  0.0189 -2.0097 -0.5824
 7522TIP3   OH243980   1.204   2.202  12.180  0.1630  0.4412 -0.1881
 7522TIP3    H143981   1.179   2.273  12.121  0.6618  1.1309  0.3936
 7522TIP3    H243982   1.272   2.241  12.235 -1.4053  0.3693  1.9383
 7523TIP3   OH243983   1.755   4.038   5.084  0.6994 -0.1680  0.6465
 7523TIP3    H143984   1.780   4.086   5.005  0.3661 -0.0416  0.6174
 7523TIP3    H243985   1.723   3.954   5.052  0.1190  0.0644  0.6158
 7524TIP3   OH243986   3.687   3.477  13.723  0.4254 -0.0099  0.2407
 7524TIP3    H143987   3.612   3.517  13.766 -1.3892 -1.3633 -1.4679
 7524TIP3    H243988   3.719   3.412  13.785  0.7607  1.1434  1.3150
 7525TIP3   OH243989   5.394   1.026  16.803  0.1260 -0.2541  0.0619
 7525TIP3    H143990   5.303   1.002  16.821  0.1634 -1.8568 -1.5700
 7525TIP3    H243991   5.400   1.118  16.830 -1.3740 -0.6924  2.1545
 7526TIP3   OH243992   0.273   0.523   0.897 -0.3560  0.5556 -0.1647
 7526TIP3    H143993   0.189   0.497   0.936 -0.2947 -1.4977 -1.2056
 7526TIP3    H243994   0.326   0.443   0.900  0.8497  1.2738 -1.2980
 7527TIP3   OH243995   6.103   0.364   3.088 -0.1386 -0.2049 -0.0705
 7527TIP3    H143996   6.045   0.376   3.163  2.1323  0.5221  1.7040
 7527TIP3    H243997   6.133   0.452   3.066 -0.7781 -0.4087 -1.9163
 7528TIP3   OH243998   1.377   6.073   0.016 -0.0477  0.6714  0.5432
 7528TIP3    H143999   1.347   6.148  -0.034 -0.8207  0.3730  0.5557
 7528TIP3    H244000   1.332   6.081   0.100 -0.3446  0.0505  0.4463
 7529TIP3   OH244001   6.346   5.331   2.005 -0.2535 -0.6437 -0.1212
 7529TIP3    H144002   6.346   5.412   1.953  0.6737  1.0947  2.4142
 7529TIP3    H244003   6.254   5.306   2.011 -0.5190 -0.0344 -1.2752
 7530TIP3   OH244004   0.069   4.450   0.437 -0.3679  0.3937  0.4095
 7530TIP3    H144005   0.043   4.453   0.345 -0.0266 -0.2556  0.2896
 7530TIP3    H244006   0.159   4.483   0.436 -0.7641  1.5364  0.6749
 7531TIP3   OH244007   5.518   3.125   4.125  0.3078  0.5495 -0.0575
 7531TIP3    H144008   5.550   3.135   4.035  0.3102  0.1799 -0.1008
 7531TIP3    H244009   5.549   3.203   4.170  1.3208  0.1910 -0.0939
 7532TIP3   OH244010   5.440   0.214   1.557  0.4755 -0.0902 -0.0398
 7532TIP3    H144011   5.412   0.289   1.505 -1.6034 -0.0836  0.9768
 7532TIP3    H244012   5.405   0.138   1.511 -1.4804 -0.0774  1.3124
 7533TIP3   OH244013   2.970   3.891   3.218  0.3345  0.5807 -0.2047
 7533TIP3    H144014   3.044   3.952   3.214  0.8526 -0.1021 -1.6064
 7533TIP3    H244015   2.996   3.818   3.161 -2.3844  1.3850 -2.6779
 7534TIP3   OH244016   2.771   1.406   1.807 -0.4569 -0.5385 -0.1979
 7534TIP3    H144017   2.798   1.327   1.761 -1.3634 -0.5245 -0.7638
 7534TIP3    H244018   2.797   1.478   1.749  1.5114 -0.3070  0.8633
 7535TIP3   OH244019   3.984   1.988   4.322  0.2928 -0.3587 -0.0793
 7535TIP3    H144020   3.892   1.961   4.319  0.1816  0.1041 -1.1654
 7535TIP3    H244021   4.032   1.906   4.312 -0.0030 -0.5283 -0.1375
 7536TIP3   OH244022   3.124   4.913   6.146  0.5184 -0.5341  0.3617
 7536TIP3    H144023   3.070   4.993   6.148  2.1007  0.7138 -1.7104
 7536TIP3    H244024   3.077   4.851   6.201 -0.8769  1.7655  1.9731
 7537TIP3   OH244025   6.006   4.730   2.536 -0.3675 -0.7708 -0.6317
 7537TIP3    H144026   6.066   4.791   2.577 -0.2770 -1.7155  0.7026
 7537TIP3    H244027   5.969   4.679   2.608 -2.6253 -0.3792 -1.4268
 7538TIP3   OH244028   0.780   3.547  12.370 -0.3834 -0.0700  0.2570
 7538TIP3    H144029   0.712   3.570  12.307  0.5986 -0.8805 -1.1604
 7538TIP3    H244030   0.846   3.616  12.360 -0.3934  0.0023  0.6741
 7539TIP3   OH244031   1.144   2.648  12.894 -0.1007  0.8074  0.0296
 7539TIP3    H144032   1.142   2.657  12.799 -2.3892  2.1117  0.1209
 7539TIP3    H244033   1.065   2.598  12.915 -0.1489  1.3783  1.2890
 7540TIP3   OH244034   3.256   2.658   1.556 -0.4751 -0.1340 -0.1363
 7540TIP3    H144035   3.238   2.574   1.600  0.3595  0.0628  0.6231
 7540TIP3    H244036   3.299   2.634   1.475  1.2463 -0.4387  0.8109
 7541TIP3   OH244037   3.210   4.366   2.211  0.3403  0.4213  0.0766
 7541TIP3    H144038   3.265   4.378   2.289 -0.5925 -1.2826  1.0848
 7541TIP3    H244039   3.252   4.294   2.164  1.0048  1.5745 -1.1300
 7542TIP3   OH244040   4.613   3.036   2.809 -0.3459 -0.2230 -0.0382
 7542TIP3    H144041   4.677   2.969   2.830 -0.3761 -0.2448 -0.0156
 7542TIP3    H244042   4.660   3.119   2.818  0.3369 -0.3134 -2.2262
 7543TIP3   OH244043   6.273   4.767   5.569 -0.6979  0.2288 -0.3527
 7543TIP3    H144044   6.300   4.686   5.526  1.1725  0.5797  0.0465
 7543TIP3    H244045   6.219   4.739   5.642 -2.3968 -0.4668 -1.8060
 7544TIP3   OH244046   0.165   2.964  12.614 -0.1662  0.8934 -0.2181
 7544TIP3    H144047   0.167   2.898  12.544 -1.4615  0.8766 -0.2580
 7544TIP3    H244048   0.165   2.912  12.695 -0.9494  0.8439 -0.2458
 7545TIP3   OH244049   3.474   3.517   1.466 -0.2973  0.1579  0.2572
 7545TIP3    H144050   3.392   3.526   1.515 -0.3579 -0.4351  0.2724
 7545TIP3    H244051   3.464   3.577   1.392  0.2115  1.8269  1.4752
 7546TIP3   OH244052   4.850   3.230  12.866  0.6237  0.2482  0.4013
 7546TIP3    H144053   4.914   3.300  12.877 -0.4034  1.1415  0.8329
 7546TIP3    H244054   4.791   3.240  12.940 -0.9423  0.4383 -0.8298
 7547TIP3   OH244055   1.941   1.085   5.827  0.5309 -0.1682  0.2782
 7547TIP3    H144056   2.007   1.036   5.877  0.8619  0.3287  0.3300
 7547TIP3    H244057   1.949   1.175   5.858 -0.4181 -0.1617  0.5419
 7548TIP3   OH244058   0.836   4.159  14.470  0.2650  0.8838  0.1939
 7548TIP3    H144059   0.824   4.157  14.565 -1.2656 -2.6436  0.0770
 7548TIP3    H244060   0.910   4.102  14.454 -0.6112 -0.0302 -0.7826
 7549TIP3   OH244061   0.894   5.034   2.229 -0.0560 -0.5034  0.1721
 7549TIP3    H144062   0.852   5.070   2.151  1.3274  1.6629  0.3367
 7549TIP3    H244063   0.971   4.988   2.197  1.0898  1.2632  0.2444
 7550TIP3   OH244064   3.109   6.519  13.895 -0.1534 -0.1705  0.6795
 7550TIP3    H144065   3.073   6.513  13.984  1.0040 -0.4695  1.1503
 7550TIP3    H244066   3.044   6.475  13.840 -0.1193 -1.4744  1.6163
 7551TIP3   OH244067   5.726   1.824  12.922  0.0395 -0.4593 -0.3156
 7551TIP3    H144068   5.703   1.738  12.958 -1.5806  1.0438  2.6235
 7551TIP3    H244069   5.770   1.869  12.995 -1.8155  2.1960 -0.7157
 7552TIP3   OH244070   2.857   3.607   5.895 -0.1214  0.7833 -0.0345
 7552TIP3    H144071   2.869   3.631   5.987  0.4984 -1.2157  0.4683
 7552TIP3    H244072   2.834   3.514   5.898 -0.1224  0.6906 -1.9012
 7553TIP3   OH244073   1.707   0.166  13.357  0.0812  0.0695  0.2212
 7553TIP3    H144074   1.619   0.186  13.325  1.0006  0.2884 -2.4552
 7553TIP3    H244075   1.757   0.246  13.339  0.7732  0.1328  2.1759
 7554TIP3   OH244076   1.312   1.677   2.509 -0.0063 -0.3078 -0.1331
 7554TIP3    H144077   1.277   1.709   2.426  2.2486 -0.7180 -1.3342
 7554TIP3    H244078   1.342   1.756   2.554 -0.1589 -0.1810 -0.2540
 7555TIP3   OH244079   0.453   4.907   5.514 -0.1651  0.0393  0.6458
 7555TIP3    H144080   0.500   4.828   5.488 -2.3853 -1.0971 -0.2765
 7555TIP3    H244081   0.382   4.914   5.450 -0.6321  2.2277  1.3182
 7556TIP3   OH244082   2.602   4.839  13.650 -0.3058 -0.0350  0.4595
 7556TIP3    H144083   2.650   4.870  13.727  0.1124  0.7791 -0.1117
 7556TIP3    H244084   2.667   4.792  13.598 -0.1448  0.9142 -0.2291
 7557TIP3   OH244085   2.730   4.906   5.819  0.4274  0.7214 -0.5235
 7557TIP3    H144086   2.794   4.871   5.757 -2.3617 -1.6861 -2.2717
 7557TIP3    H244087   2.707   4.992   5.785  1.3050  0.7910 -0.9519
 7558TIP3   OH244088   1.326   3.788   0.363  0.3315  0.1590 -0.4893
 7558TIP3    H144089   1.356   3.860   0.307  0.2337  2.4617  2.1857
 7558TIP3    H244090   1.398   3.772   0.424 -0.9214  0.5004  1.1840
 7559TIP3   OH244091   2.314   2.169   5.597 -0.1429 -0.3612  0.4623
 7559TIP3    H144092   2.231   2.136   5.633  0.4951 -1.9261  0.5890
 7559TIP3    H244093   2.380   2.143   5.662  0.5258  0.3776  0.0945
 7560TIP3   OH244094   6.466   5.747  11.436 -0.3896 -0.8112  1.0116
 7560TIP3    H144095   6.459   5.658  11.402 -0.3931 -0.4920  0.1750
 7560TIP3    H244096   6.533   5.789  11.382  1.3590 -0.9982  2.8831
 7561TIP3   OH244097   0.267   4.726  11.513  0.5102  0.3414 -0.3321
 7561TIP3    H144098   0.219   4.796  11.558  1.0127 -0.1622  1.0653
 7561TIP3    H244099   0.250   4.740  11.420 -1.4210  0.8317  0.0585
 7562TIP3   OH244100   5.758   3.076  16.424 -0.2432 -0.0333  0.0466
 7562TIP3    H144101   5.822   3.092  16.493 -0.8854 -0.5794  0.7847
 7562TIP3    H244102   5.811   3.061  16.346  0.4774  1.4251  0.2181
 7563TIP3   OH244103   5.569   1.293  15.732  0.2044  0.3735  0.0323
 7563TIP3    H144104   5.652   1.254  15.705 -0.0496 -0.2838  0.2013
 7563TIP3    H244105   5.518   1.221  15.768 -0.3416  0.8222  0.1805
 7564TIP3   OH244106   4.777   3.541   0.705  0.8260 -0.8616  0.1659
 7564TIP3    H144107   4.696   3.502   0.737 -0.6913  1.4596 -0.5668
 7564TIP3    H244108   4.761   3.635   0.706  3.2154 -0.3467 -0.8457
 7565TIP3   OH244109   6.492   4.356   0.404 -0.2381  0.1654  0.0576
 7565TIP3    H144110   6.404   4.375   0.372 -0.5245  0.8577  1.1862
 7565TIP3    H244111   6.483   4.357   0.499  1.2337  1.5757  0.2296
 7566TIP3   OH244112   3.408   6.685  13.393 -0.3759  1.1808 -0.1263
 7566TIP3    H144113   3.469   6.618  13.425 -2.2355 -0.8956 -0.6751
 7566TIP3    H244114   3.412   6.678  13.298 -1.5520  0.8650 -0.1718
 7567TIP3   OH244115   6.679   1.542   1.708  0.9962 -0.2791  0.3330
 7567TIP3    H144116   6.671   1.505   1.796  0.5160 -1.6423 -0.2518
 7567TIP3    H244117   6.656   1.470   1.649  1.7452  0.4634 -0.9370
 7568TIP3   OH244118   0.216   4.779   1.967 -0.3516  0.1057 -0.0949
 7568TIP3    H144119   0.253   4.723   1.899  4.0500  0.7558  1.4593
 7568TIP3    H244120   0.182   4.717   2.032  1.6102 -0.7651  0.1700
 7569TIP3   OH244121   1.160   5.881  12.024 -0.2839 -0.0833  0.5098
 7569TIP3    H144122   1.252   5.891  12.048 -0.4278  0.0651  1.0073
 7569TIP3    H244123   1.147   5.943  11.953 -0.2855  0.7501  1.2225
 7570TIP3   OH244124   6.196   4.529   3.743  0.1803 -0.0194 -0.3474
 7570TIP3    H144125   6.181   4.445   3.698  0.5855 -0.2990  0.0385
 7570TIP3    H244126   6.171   4.595   3.678  0.7904 -0.4186 -1.0037
 7571TIP3   OH244127   0.064   3.188  14.483 -0.3583  0.0527  0.3317
 7571TIP3    H144128   0.146   3.147  14.457 -0.0819  0.8813 -0.1497
 7571TIP3    H244129  -0.002   3.149  14.426 -0.1198  0.1958 -0.0456
 7572TIP3   OH244130   4.329   0.654  14.579  0.0747  0.6837  0.1938
 7572TIP3    H144131   4.358   0.568  14.611  1.2018  0.2659 -1.7879
 7572TIP3    H244132   4.381   0.717  14.629 -0.2408  0.1903  1.1625
 7573TIP3   OH244133   0.654   2.300   0.419  0.3190 -0.6460 -0.0509
 7573TIP3    H144134   0.711   2.352   0.475  1.1389  0.6723 -1.9741
 7573TIP3    H244135   0.570   2.346   0.418  0.0440 -1.1205  0.7042
 7574TIP3   OH244136   2.549   1.709   1.170  0.2670 -1.0297  0.4462
 7574TIP3    H144137   2.521   1.762   1.244  0.6058  0.7501 -0.6440
 7574TIP3    H244138   2.469   1.688   1.123  0.3553  0.9124 -0.6363
 7575TIP3   OH244139   4.534   6.011   0.420 -0.6618  0.3530  0.6252
 7575TIP3    H144140   4.481   6.090   0.409  0.5978  1.0903 -0.3778
 7575TIP3    H244141   4.530   5.992   0.514  0.0254  2.3468  1.0945
 7576TIP3   OH244142   4.955   5.209   1.402  0.2928  0.4279  0.7464
 7576TIP3    H144143   4.911   5.126   1.381 -1.7978  1.8366 -0.8908
 7576TIP3    H244144   5.046   5.184   1.417 -0.1917 -2.1311 -0.0149
 7577TIP3   OH244145   0.615   5.308  14.078  0.7514 -0.1058  0.0243
 7577TIP3    H144146   0.594   5.393  14.038  1.7246  0.8868  1.5180
 7577TIP3    H244147   0.680   5.270  14.020  0.8123  0.4811 -0.2992
 7578TIP3   OH244148   6.460   1.876   6.312 -0.2443 -0.0165 -0.5071
 7578TIP3    H144149   6.468   1.850   6.403  1.5706  1.4966 -0.1747
 7578TIP3    H244150   6.375   1.920   6.307 -1.3451 -1.9913 -0.1034
 7579TIP3   OH244151   0.806   1.215  13.812 -0.3150 -0.3834  0.1500
 7579TIP3    H144152   0.820   1.285  13.748  1.0500  0.7418  1.6135
 7579TIP3    H244153   0.834   1.136  13.767 -1.5161  0.0301 -1.4046
 7580TIP3   OH244154   1.030   1.297  14.653  0.4791  0.3669  0.3743
 7580TIP3    H144155   1.087   1.338  14.589 -1.7156  0.0876 -1.8939
 7580TIP3    H244156   1.014   1.209  14.619  0.5596 -0.4075  2.2040
 7581TIP3   OH244157   0.225   5.058   2.405 -1.1623  0.5960  0.4350
 7581TIP3    H144158   0.179   5.123   2.458 -2.1269  0.5350 -0.2887
 7581TIP3    H244159   0.202   5.081   2.315 -1.2494 -0.5377  0.1545
 7582TIP3   OH244160   6.527   3.192   2.110 -0.0533  0.4706  0.1431
 7582TIP3    H144161   6.533   3.285   2.086 -0.0517  0.6207  0.7119
 7582TIP3    H244162   6.438   3.167   2.086 -0.5364  1.0006  1.2945
 7583TIP3   OH244163   0.249   2.773  11.529  0.0906 -0.0405 -0.2260
 7583TIP3    H144164   0.329   2.808  11.491 -0.0278  0.9783  0.4499
 7583TIP3    H244165   0.203   2.733  11.454  1.7174 -1.6308 -0.4244
 7584TIP3   OH244166   3.597   0.883  11.142  0.6196 -0.5675  0.0058
 7584TIP3    H144167   3.541   0.883  11.064  1.3807  1.8722 -0.6292
 7584TIP3    H244168   3.685   0.870  11.109  1.1438  2.0103  0.2009
 7585TIP3   OH244169   3.017   3.250   5.441  0.0649 -0.4394 -0.0214
 7585TIP3    H144170   3.045   3.235   5.531  0.2638  0.7035  0.1200
 7585TIP3    H244171   2.922   3.241   5.444  0.1199 -1.0108  0.1715
 7586TIP3   OH244172   4.433   0.018  13.691  0.6774 -0.6481  0.3914
 7586TIP3    H144173   4.471  -0.069  13.678 -1.8383 -1.9537  1.0795
 7586TIP3    H244174   4.365   0.005  13.757 -0.5575  1.6159 -0.3197
 7587TIP3   OH244175   6.329   5.814   3.015 -0.1550  0.0943  0.5407
 7587TIP3    H144176   6.319   5.876   3.088  0.5325  0.1561  0.5871
 7587TIP3    H244177   6.283   5.736   3.043 -1.4237  0.7276  0.3023
 7588TIP3   OH244178   3.019   3.784   1.328  0.2724  0.0718  0.0819
 7588TIP3    H144179   3.059   3.862   1.289 -0.2116  0.9642  1.3235
 7588TIP3    H244180   3.093   3.732   1.359  0.5493  1.1381  1.2826
 7589TIP3   OH244181   0.512   5.818  11.506  1.1571  0.2921  0.1748
 7589TIP3    H144182   0.485   5.881  11.440 -1.7043  0.2213  1.1415
 7589TIP3    H244183   0.575   5.762  11.462 -0.6676  0.2218 -2.5636
 7590TIP3   OH244184   6.232   6.112   0.471 -0.6067  0.0836  0.5118
 7590TIP3    H144185   6.291   6.133   0.398 -0.8796  1.4065  0.6407
 7590TIP3    H244186   6.268   6.160   0.546 -1.3331  0.1851  0.8071
 7591TIP3   OH244187   4.339   0.900  16.749 -0.0821 -0.4158  0.0268
 7591TIP3    H144188   4.308   0.846  16.677  1.4776 -0.5969 -0.5472
 7591TIP3    H244189   4.396   0.843  16.800  0.2515  0.2120  0.3815
 7592TIP3   OH244190   0.154   3.831  15.288 -0.0888  0.3042  0.2470
 7592TIP3    H144191   0.149   3.768  15.360 -0.5060 -0.8214 -0.7337
 7592TIP3    H244192   0.090   3.799  15.224  1.7281  0.0648 -1.5413
 7593TIP3   OH244193   4.492   6.165  10.900  0.2036  0.1863  0.5637
 7593TIP3    H144194   4.442   6.246  10.910 -1.1183 -0.4936 -0.2080
 7593TIP3    H244195   4.570   6.190  10.850 -1.3600  0.6040 -1.7995
 7594TIP3   OH244196   6.396   1.288   3.550  0.0528 -0.4969 -0.1824
 7594TIP3    H144197   6.311   1.314   3.585 -0.2164 -0.3342 -0.9359
 7594TIP3    H244198   6.375   1.227   3.479  0.6549 -2.9157  1.5753
 7595TIP3   OH244199   3.692   0.584  15.260 -0.1947  0.3659  0.2675
 7595TIP3    H144200   3.613   0.636  15.246  0.7616  1.7068 -0.4367
 7595TIP3    H244201   3.763   0.648  15.260  0.9468 -0.8486  0.3815
 7596TIP3   OH244202   2.944   6.640   0.641 -0.4046  0.5107  0.4135
 7596TIP3    H144203   3.023   6.670   0.686  1.2346 -1.4726 -0.9769
 7596TIP3    H244204   2.877   6.639   0.709  0.7532  2.1610  1.6595
 7597TIP3   OH244205   2.724   4.067   5.450 -0.1569 -0.1379 -0.3412
 7597TIP3    H144206   2.638   4.083   5.491  0.1740  0.0737  0.2876
 7597TIP3    H244207   2.787   4.097   5.516  0.4468 -1.9780 -0.0337
 7598TIP3   OH244208   3.300   4.040  12.734  0.0882 -0.4922  0.1254
 7598TIP3    H144209   3.221   4.018  12.685  0.7725 -1.5026 -0.5531
 7598TIP3    H244210   3.268   4.081  12.815 -1.0708  3.1381 -1.9352
 7599TIP3   OH244211   1.507   5.768   3.136 -0.2123  0.3766  0.0884
 7599TIP3    H144212   1.461   5.851   3.138  0.0517  0.6890 -2.5617
 7599TIP3    H244213   1.532   5.756   3.044  1.3606 -1.7593  0.6851
 7600TIP3   OH244214   1.861   1.472  15.501  0.0007  0.1009  0.5288
 7600TIP3    H144215   1.804   1.470  15.424 -0.1519  1.6462  0.5739
 7600TIP3    H244216   1.821   1.537  15.559  0.9734  0.1020  1.2307
 7601TIP3   OH244217   5.877   2.979   5.535 -0.5111 -0.0326  0.7784
 7601TIP3    H144218   5.897   2.958   5.444 -1.8120 -0.1673  0.5032
 7601TIP3    H244219   5.792   2.937   5.551 -0.0445 -0.4940  2.2290
 7602TIP3   OH244220   0.831   6.196  11.299 -1.0163  0.2777 -0.2856
 7602TIP3    H144221   0.830   6.148  11.382 -1.5225 -0.0918 -0.4975
 7602TIP3    H244222   0.868   6.282  11.321 -0.0682 -0.2143  0.0957
 7603TIP3   OH244223   3.756   6.214  15.093 -0.3737  0.5829  0.0094
 7603TIP3    H144224   3.757   6.269  15.171 -1.4807 -2.0241  2.0251
 7603TIP3    H244225   3.833   6.240  15.043  1.3728  1.1895  2.8651
 7604TIP3   OH244226   6.011   2.727   3.668 -0.0801  0.3106  0.1053
 7604TIP3    H144227   6.075   2.693   3.606  0.3192 -0.9316  1.1481
 7604TIP3    H244228   6.034   2.819   3.678 -1.1513  0.9924 -2.7648
 7605TIP3   OH244229   3.445   4.190  12.541  0.3258  0.2718 -0.3256
 7605TIP3    H144230   3.400   4.132  12.602  1.8788 -1.7806 -0.9966
 7605TIP3    H244231   3.424   4.278  12.572 -2.0473 -0.6009  0.8215
 7606TIP3   OH244232   4.061   5.961   2.988  0.4644  0.1186 -0.6421
 7606TIP3    H144233   4.112   5.993   2.914 -0.6525  0.8010 -1.1388
 7606TIP3    H244234   4.069   6.028   3.055 -0.3380  0.5698 -0.9846
 7607TIP3   OH244235   6.506   4.762  14.178  0.6758 -0.3146  0.6872
 7607TIP3    H144236   6.500   4.778  14.272 -0.2766 -1.8224  0.9284
 7607TIP3    H244237   6.562   4.831  14.145 -0.2941  1.2221  2.1128
 7608TIP3   OH244238   5.742   4.397   4.263 -0.7584 -0.1631 -0.6006
 7608TIP3    H144239   5.648   4.381   4.273 -0.6930 -0.9168 -1.2058
 7608TIP3    H244240   5.781   4.310   4.252  0.3344 -0.1408  2.1183
 7609TIP3   OH244241   3.301   5.540  11.523  0.0328  0.0937  0.0597
 7609TIP3    H144242   3.324   5.544  11.430  1.1418  0.2443  0.3257
 7609TIP3    H244243   3.303   5.447  11.544 -0.5881  0.0276 -0.1422
 7610TIP3   OH244244   1.096   4.377  14.182  0.4190 -0.3644  0.3178
 7610TIP3    H144245   1.148   4.313  14.231  0.5112  0.7200  1.6786
 7610TIP3    H244246   1.069   4.329  14.103  2.4655 -1.3415  0.1254
 7611TIP3   OH244247   5.746   3.666   1.076  0.1435  0.2390 -0.0347
 7611TIP3    H144248   5.708   3.627   0.998 -2.0235 -0.5387  1.3251
 7611TIP3    H244249   5.838   3.640   1.073 -0.3707 -1.6749 -1.2021
 7612TIP3   OH244250   5.550   2.147   1.042 -0.7041  0.1250 -0.3322
 7612TIP3    H144251   5.496   2.203   1.099  1.2616  0.3148  1.4723
 7612TIP3    H244252   5.580   2.206   0.973  1.0879  1.3262  1.3714
 7613TIP3   OH244253   4.430   1.369  11.924  0.3688 -0.0949  0.2749
 7613TIP3    H144254   4.461   1.309  11.856  0.5472  0.3054 -0.0025
 7613TIP3    H244255   4.484   1.349  12.000 -0.2224 -0.9462  0.4841
 7614TIP3   OH244256   3.047   5.060   5.654  0.3182 -0.6074  0.3401
 7614TIP3    H144257   3.141   5.052   5.640  0.0465 -1.1149 -1.3644
 7614TIP3    H244258   3.038   5.124   5.725  2.0043 -2.1049  2.0235
 7615TIP3   OH244259   0.260   3.266  12.993 -0.2101  0.2377  0.3589
 7615TIP3    H144260   0.215   3.336  13.041 -1.4596  0.2051 -0.7065
 7615TIP3    H244261   0.203   3.189  13.005  0.9842 -0.5353  1.2611
 7616TIP3   OH244262   3.915   0.906  13.296  0.4103  0.0559 -0.4227
 7616TIP3    H144263   3.928   0.957  13.376 -1.0128  1.6550 -1.1493
 7616TIP3    H244264   3.991   0.847  13.292  0.6989  0.2059  1.8761
 7617TIP3   OH244265   4.717   2.315   4.701  0.3622 -0.4109 -0.1774
 7617TIP3    H144266   4.763   2.232   4.690  1.3092 -0.4411  2.9924
 7617TIP3    H244267   4.783   2.382   4.680  0.4380 -0.4444 -0.0424
 7618TIP3   OH244268   1.984   3.208   5.395 -0.1839  0.5802 -0.5188
 7618TIP3    H144269   2.009   3.222   5.486 -3.0917  0.8216  0.3543
 7618TIP3    H244270   1.936   3.125   5.395  0.0610  0.4079 -1.9045
 7619TIP3   OH244271   4.605   4.552   3.703  0.4009 -0.3729  0.4963
 7619TIP3    H144272   4.576   4.625   3.758  2.9891  3.5406 -2.7230
 7619TIP3    H244273   4.684   4.520   3.746  0.6680  0.5169  0.6906
 7620TIP3   OH244274   3.627   2.724  13.902 -0.3991  0.3098  0.2415
 7620TIP3    H144275   3.536   2.725  13.934 -0.4354 -1.3179  0.2730
 7620TIP3    H244276   3.670   2.795  13.950 -0.4570 -1.9582  4.0478
 7621TIP3   OH244277   1.171   5.459  16.589  0.8379  0.1281 -0.7489
 7621TIP3    H144278   1.191   5.499  16.674  1.3110 -0.0002 -0.7960
 7621TIP3    H244279   1.090   5.411  16.603  1.5172 -0.8601 -0.0464
 7622TIP3   OH244280   1.728   3.993  16.886 -0.5851  0.3103 -0.3185
 7622TIP3    H144281   1.692   4.027  16.968  0.1558  0.8832 -0.2147
 7622TIP3    H244282   1.692   4.051  16.818 -0.8080  0.1429 -0.3412
 7623TIP3   OH244283   1.244   2.661  13.693 -0.0832  0.1237 -0.2089
 7623TIP3    H144284   1.229   2.610  13.614  1.9838 -1.3972  0.2994
 7623TIP3    H244285   1.206   2.608  13.763 -3.1587  2.0945 -0.1952
 7624TIP3   OH244286   4.362   3.580  10.843 -0.0953 -0.0410  0.1277
 7624TIP3    H144287   4.341   3.487  10.849 -1.1697  0.1775  0.0666
 7624TIP3    H244288   4.297   3.615  10.781  0.8551  0.5871 -0.5355
 7625TIP3   OH244289   3.662   1.903  15.088  0.0472  0.0833 -0.0510
 7625TIP3    H144290   3.672   1.965  15.015 -0.0177  0.2388  0.0692
 7625TIP3    H244291   3.736   1.843  15.080  0.5602  0.6578  0.2987
 7626TIP3   OH244292   4.042   1.550  15.427  0.0039 -0.0125  0.0673
 7626TIP3    H144293   4.137   1.544  15.412 -0.1236 -2.2506 -0.1290
 7626TIP3    H244294   4.003   1.535  15.342 -0.5514  0.9281  0.1458
 7627TIP3   OH244295   6.138   4.222  16.563 -0.1159 -0.1294  0.1256
 7627TIP3    H144296   6.171   4.133  16.576  0.3171  0.1035  0.6276
 7627TIP3    H244297   6.064   4.211  16.502  1.0199 -0.6278 -1.2319
 7628TIP3   OH244298   1.558   0.941   3.063  0.3411 -0.3211 -0.3094
 7628TIP3    H144299   1.480   0.923   3.011  1.7230 -1.2848 -2.1595
 7628TIP3    H244300   1.615   0.865   3.049  0.9086 -0.5031  2.4541
 7629TIP3   OH244301   1.620   6.327   1.822  0.3692  0.1668  0.0734
 7629TIP3    H144302   1.608   6.302   1.914 -0.5546 -0.6081 -0.2460
 7629TIP3    H244303   1.704   6.373   1.821  1.5197 -1.7777  0.9208
 7630TIP3   OH244304   0.851   4.706   3.939 -0.4947 -0.7691 -0.7540
 7630TIP3    H144305   0.859   4.636   4.004  2.6159  0.3179  0.2034
 7630TIP3    H244306   0.764   4.743   3.955 -0.6535 -1.8851  1.3730
 7631TIP3   OH244307   3.925   1.816   3.334 -0.3283  0.8179 -0.4232
 7631TIP3    H144308   3.895   1.747   3.276  0.9639 -1.3193  1.3055
 7631TIP3    H244309   3.999   1.856   3.288 -0.3069  0.2242 -0.9065
 7632TIP3   OH244310   0.364   5.543  14.735  0.7394 -0.3365 -0.2863
 7632TIP3    H144311   0.355   5.448  14.732  2.1322 -0.5851  1.6863
 7632TIP3    H244312   0.454   5.559  14.706  0.3808  0.4458 -1.0257
 7633TIP3   OH244313   1.906   3.441  14.152  0.7470 -0.2363 -0.0487
 7633TIP3    H144314   1.875   3.505  14.217  1.0580  1.3678 -1.4216
 7633TIP3    H244315   1.842   3.446  14.082  2.2875  0.7329 -1.4629
 7634TIP3   OH244316   5.131   4.582  12.508  0.6972  0.5277 -0.0804
 7634TIP3    H144317   5.053   4.611  12.555 -0.3640  1.1595 -2.1044
 7634TIP3    H244318   5.199   4.645  12.532  0.7192 -0.1703  1.8948
 7635TIP3   OH244319   0.580   5.882  14.090 -0.7255 -0.5374  0.7190
 7635TIP3    H144320   0.667   5.846  14.107 -0.5370 -0.5929 -0.3311
 7635TIP3    H244321   0.596   5.972  14.061 -0.9462 -0.8536 -0.4218
 7636TIP3   OH244322   2.815   1.187   0.215 -0.1960  0.0877 -0.2764
 7636TIP3    H144323   2.826   1.157   0.125  0.2998 -0.0239 -0.1829
 7636TIP3    H244324   2.753   1.126   0.254 -0.5576  0.2483 -0.5936
 7637TIP3   OH244325   6.504   0.573  13.210 -0.2845 -0.3414  0.3254
 7637TIP3    H144326   6.599   0.566  13.208 -0.3213 -0.7501 -0.6365
 7637TIP3    H244327   6.487   0.664  13.236  0.3579 -0.3444  0.7836
 7638TIP3   OH244328   2.842   4.376   3.968  0.1053  0.2851  0.2052
 7638TIP3    H144329   2.809   4.408   3.883 -2.7726  1.0207  1.4791
 7638TIP3    H244330   2.926   4.421   3.979  0.1094  0.8988 -1.8097
 7639TIP3   OH244331   6.766   0.417   4.987 -0.1139 -0.5559 -0.2235
 7639TIP3    H144332   6.675   0.393   4.972 -0.6434  1.4384 -0.5421
 7639TIP3    H244333   6.791   0.466   4.908  0.6268  0.5405  0.6646
 7640TIP3   OH244334   2.637   2.972  15.543  0.2216 -0.4243  0.3554
 7640TIP3    H144335   2.561   2.924  15.578  0.1981 -1.1349 -0.6293
 7640TIP3    H244336   2.617   3.064  15.560 -0.5718 -0.6446  0.6753
 7641TIP3   OH244337   5.537   0.951   5.204 -0.2987  0.6292  0.1920
 7641TIP3    H144338   5.562   1.025   5.258 -0.8183 -0.5242  2.1073
 7641TIP3    H244339   5.618   0.900   5.195 -0.2140  0.8171 -0.1290
 7642TIP3   OH244340   0.233   2.912  15.995 -0.5859  0.0100 -0.1323
 7642TIP3    H144341   0.288   2.949  15.926  0.3927  0.6601  0.9594
 7642TIP3    H244342   0.148   2.899  15.953 -0.2124  1.0313 -1.2758
 7643TIP3   OH244343   5.497   6.059  16.722 -0.1512  0.3765 -0.2155
 7643TIP3    H144344   5.491   5.964  16.717 -0.7984  0.3042  1.3154
 7643TIP3    H244345   5.463   6.090  16.638  2.3602 -0.7517 -1.7653
 7644TIP3   OH244346   2.071   6.541  14.979  0.4852  0.1608 -0.1654
 7644TIP3    H144347   2.089   6.635  14.977 -1.6369  0.7290  2.0654
 7644TIP3    H244348   2.095   6.515  15.068 -0.1063 -1.1325 -0.3717
 7645TIP3   OH244349   6.029   1.706  12.026 -0.0737  0.3846  0.0730
 7645TIP3    H144350   6.081   1.649  12.083 -0.6839  1.0675  1.3677
 7645TIP3    H244351   6.032   1.664  11.940  0.9953 -0.6100  0.5698
 7646TIP3   OH244352   1.004   1.551   5.651  0.1864  0.0294  0.2073
 7646TIP3    H144353   0.912   1.550   5.674 -0.1135  0.7167 -0.9016
 7646TIP3    H244354   1.037   1.465   5.678 -0.8475 -0.3442  0.2975
 7647TIP3   OH244355   6.488   1.313  14.817  0.0275 -0.3926  0.0711
 7647TIP3    H144356   6.499   1.382  14.751  1.0667 -1.3907 -0.8357
 7647TIP3    H244357   6.413   1.263  14.787  1.0174 -1.3655 -0.8713
 7648TIP3   OH244358   1.851   4.135  12.609 -0.1373 -0.4833  0.1450
 7648TIP3    H144359   1.817   4.045  12.616  0.0979 -0.6198 -0.4556
 7648TIP3    H244360   1.773   4.190  12.610 -0.2426 -0.5896  1.8978
 7649TIP3   OH244361   1.562   5.219   2.036 -0.3200  0.2022 -0.4959
 7649TIP3    H144362   1.538   5.128   2.022 -1.1134  0.3122  0.0473
 7649TIP3    H244363   1.614   5.218   2.117  0.9298  0.0572 -1.2797
 7650TIP3   OH244364   5.856   4.934  16.896  0.6333 -0.0316  0.7683
 7650TIP3    H144365   5.775   4.884  16.892 -0.0391  1.0261  0.7314
 7650TIP3    H244366   5.878   4.936  16.989 -0.3519  1.1465  1.0018
 7651TIP3   OH244367   2.366   0.114   0.172 -0.4702 -0.0930 -1.0470
 7651TIP3    H144368   2.408   0.199   0.162  1.3748 -0.7294  0.7480
 7651TIP3    H244369   2.340   0.090   0.082 -0.4408  2.0051 -1.6817
 7652TIP3   OH244370   2.831   5.883   6.048  0.2279 -0.6263  0.1430
 7652TIP3    H144371   2.808   5.806   6.100 -0.6549  1.3909  2.9610
 7652TIP3    H244372   2.750   5.933   6.041  1.0165  0.6016 -0.6533
 7653TIP3   OH244373   2.053   1.773  15.790 -0.1814 -0.0919  0.2203
 7653TIP3    H144374   2.008   1.857  15.782 -1.7285 -0.9744 -0.8532
 7653TIP3    H244375   2.058   1.739  15.701 -1.5938 -2.1263  0.8353
 7654TIP3   OH244376   5.230   6.729  15.622  0.3894 -0.1421 -0.6130
 7654TIP3    H144377   5.159   6.788  15.596  0.1101 -0.0828  0.2663
 7654TIP3    H244378   5.226   6.657  15.558 -1.7647 -1.1732  0.5860
 7655TIP3   OH244379   1.032   4.474  12.104  0.1222 -0.4434 -0.1166
 7655TIP3    H144380   1.098   4.481  12.035  0.2885 -0.3276  0.0515
 7655TIP3    H244381   0.962   4.534  12.077  1.3463  1.6820  1.0977
 7656TIP3   OH244382   6.617   1.642   1.369 -0.1853 -0.1751 -0.1449
 7656TIP3    H144383   6.677   1.672   1.300 -2.1006  1.2597 -1.2869
 7656TIP3    H244384   6.665   1.657   1.451  1.0668  0.7645 -1.0111
 7657TIP3   OH244385   0.660   5.243  11.918 -0.0973 -0.7017  0.4457
 7657TIP3    H144386   0.730   5.298  11.881  0.6062 -1.1838  1.0310
 7657TIP3    H244387   0.639   5.285  12.002  0.0964 -1.0391  0.6650
 7658TIP3   OH244388   3.206   3.996   6.486  0.0379  0.1255 -0.6823
 7658TIP3    H144389   3.243   4.006   6.399 -1.0729  1.4823 -1.0322
 7658TIP3    H244390   3.274   4.030   6.545  1.5106 -2.3679 -0.8031
 7659TIP3   OH244391   5.598   5.924  14.582  0.4604  0.1748 -0.1152
 7659TIP3    H144392   5.598   5.874  14.664 -1.6344  1.1757  0.5509
 7659TIP3    H244393   5.535   5.878  14.526 -0.5880  1.3304  0.0723
 7660TIP3   OH244394   4.419   0.876   5.964  0.6766  0.2950  0.0173
 7660TIP3    H144395   4.339   0.851   5.918 -0.2658  2.1168  0.5566
 7660TIP3    H244396   4.489   0.866   5.900 -0.5272  2.3720 -1.7124
 7661TIP3   OH244397   3.865   3.261   1.251 -0.2982  0.2143  0.1286
 7661TIP3    H144398   3.794   3.289   1.309 -1.1050  0.2640 -0.8619
 7661TIP3    H244399   3.936   3.322   1.270 -1.1091  1.2603 -0.0696
 7662TIP3   OH244400   5.394   5.533   1.442 -0.4321 -0.1155  0.2865
 7662TIP3    H144401   5.340   5.466   1.485 -1.8927  0.6050 -0.3629
 7662TIP3    H244402   5.464   5.550   1.505 -1.9559  0.2047  1.9948
 7663TIP3   OH244403   0.808   4.524  15.252 -0.1092 -0.0450  0.2707
 7663TIP3    H144404   0.820   4.612  15.288  0.8624 -0.5376  1.1999
 7663TIP3    H244405   0.894   4.499  15.220 -0.7069 -0.0782 -1.4331
 7664TIP3   OH244406   0.179   5.352   0.189  0.7966 -0.2364 -0.2078
 7664TIP3    H144407   0.149   5.333   0.100 -0.9803 -0.1448  0.3177
 7664TIP3    H244408   0.274   5.363   0.182  0.5610  0.8600 -2.2851
 7665TIP3   OH244409   1.552   3.529   3.839  0.0639 -0.7523  0.2153
 7665TIP3    H144410   1.575   3.609   3.885 -1.1905 -0.0826 -0.2681
 7665TIP3    H244411   1.626   3.512   3.782  0.1189  0.3957 -0.0847
 7666TIP3   OH244412   1.533   0.309   1.593 -0.2786  0.0266 -0.1465
 7666TIP3    H144413   1.617   0.349   1.614 -0.8964  2.5108 -1.9109
 7666TIP3    H244414   1.495   0.286   1.678  0.6786  2.1499  0.9367
 7667TIP3   OH244415   0.669   5.537  12.401  0.1358 -0.0554 -0.8537
 7667TIP3    H144416   0.700   5.499  12.483 -0.5413  0.9088 -0.1224
 7667TIP3    H244417   0.706   5.626  12.400  0.7522 -0.3090 -1.9672
 7668TIP3   OH244418   0.834   6.464  15.235  0.3770  0.4090  0.3927
 7668TIP3    H144419   0.800   6.415  15.310  1.2743 -0.9437 -0.0323
 7668TIP3    H244420   0.760   6.515  15.204  0.1865  1.6648  2.6793
 7669TIP3   OH244421   2.511   6.312  10.766 -0.7514 -0.4206 -0.2262
 7669TIP3    H144422   2.475   6.303  10.678 -0.5518  0.0111 -0.3533
 7669TIP3    H244423   2.478   6.395  10.799  1.4335  0.8321 -0.9943
 7670TIP3   OH244424   1.990   0.982  13.065  0.5308 -0.0432  0.4802
 7670TIP3    H144425   2.014   0.920  12.996  1.1184  1.1047 -0.3819
 7670TIP3    H244426   2.060   0.974  13.130  0.9617  0.1720  0.0521
 7671TIP3   OH244427   5.299   1.323   1.082 -0.3909 -0.0961 -0.1611
 7671TIP3    H144428   5.387   1.358   1.071  0.0828 -0.1621  2.5377
 7671TIP3    H244429   5.248   1.395   1.120 -1.0247 -0.5649 -0.0872
 7672TIP3   OH244430   2.179   4.213   4.515 -0.1589 -0.0146  0.3298
 7672TIP3    H144431   2.202   4.126   4.480 -0.1328 -0.4684  1.4428
 7672TIP3    H244432   2.120   4.250   4.449  1.6421  0.1082 -1.3354
 7673TIP3   OH244433   3.720   1.583  16.478 -0.4617  0.2817 -0.5838
 7673TIP3    H144434   3.743   1.577  16.571  0.0962  0.2886 -0.7186
 7673TIP3    H244435   3.670   1.503  16.460  0.7226 -0.4635 -0.6370
 7674TIP3   OH244436   5.955   5.681   3.946  0.3080 -0.3884 -0.2159
 7674TIP3    H144437   6.016   5.755   3.939  1.4370 -1.1265  1.2492
 7674TIP3    H244438   6.011   5.604   3.940 -0.5763 -1.0978  0.5021
 7675TIP3   OH244439   4.047   0.915   1.030 -0.1204  0.5291 -0.1364
 7675TIP3    H144440   3.984   0.883   0.965 -0.7454  2.4879 -0.5493
 7675TIP3    H244441   4.132   0.881   1.000 -0.4350  1.1872 -1.8726
 7676TIP3   OH244442   3.399   1.482   5.759  0.1137 -0.3806  0.4001
 7676TIP3    H144443   3.410   1.390   5.737  0.3845 -0.2969  0.1744
 7676TIP3    H244444   3.489   1.516   5.767  0.0443 -0.5303  2.1996
 7677TIP3   OH244445   0.225   3.032   5.074  0.0354 -0.1174 -0.0414
 7677TIP3    H144446   0.190   3.115   5.041  0.2207  0.3859  0.9693
 7677TIP3    H244447   0.234   3.046   5.169  1.2364 -0.8561 -0.0185
 7678TIP3   OH244448   0.477   2.721  17.212 -0.5336  0.1296 -0.2235
 7678TIP3    H144449   0.387   2.723  17.242 -0.4049 -1.8205  0.4845
 7678TIP3    H244450   0.527   2.769  17.277 -0.6603 -1.5900  1.2210
 7679TIP3   OH244451   5.541   1.835   2.787  0.0289 -0.0845  0.3005
 7679TIP3    H144452   5.611   1.866   2.730 -0.9141 -0.1785 -0.9368
 7679TIP3    H244453   5.579   1.759   2.831  0.8929  0.2079  0.0798
 7680TIP3   OH244454   4.820   2.359  11.398 -0.0490  0.1821  0.8968
 7680TIP3    H144455   4.837   2.275  11.440  1.4277  0.4125  0.8427
 7680TIP3    H244456   4.908   2.393  11.376 -0.5448  2.0827  1.6203
 7681TIP3   OH244457   2.945   3.923   3.516 -0.3159 -0.5667 -0.0547
 7681TIP3    H144458   2.960   3.999   3.460 -0.3540 -0.8483 -0.4573
 7681TIP3    H244459   3.027   3.911   3.564 -0.2248 -0.4225 -0.1755
 7682TIP3   OH244460   3.380   0.692   1.410  0.3301  0.1467 -0.6284
 7682TIP3    H144461   3.330   0.771   1.388 -0.0724 -0.1096 -0.6341
 7682TIP3    H244462   3.319   0.638   1.461  0.2582 -0.6292 -1.5112
 7683TIP3   OH244463   5.219   5.682   5.043  0.1656  0.4702 -0.2077
 7683TIP3    H144464   5.241   5.591   5.061 -0.2195  0.3288 -0.4429
 7683TIP3    H244465   5.247   5.697   4.952  0.1597  0.5628 -0.1954
 7684TIP3   OH244466   4.531   0.527  13.676  0.2919 -0.4295  0.3829
 7684TIP3    H144467   4.559   0.481  13.755  0.1233  0.8351  1.2094
 7684TIP3    H244468   4.435   0.533  13.685  0.1554 -1.2695 -0.4750
 7685TIP3   OH244469   4.121   2.126   4.061 -0.3057  0.1465  0.2064
 7685TIP3    H144470   4.138   2.140   4.154  0.2701  1.0990 -0.0280
 7685TIP3    H244471   4.112   2.214   4.025  0.2232 -0.1896 -0.7768
 7686TIP3   OH244472   5.235   6.452  13.985  0.6127  0.6125  0.1539
 7686TIP3    H144473   5.150   6.496  13.994 -0.2472 -1.1729  1.5093
 7686TIP3    H244474   5.299   6.522  13.990 -0.7024  1.7987  1.8427
 7687TIP3   OH244475   6.329   3.299  15.783 -0.2621 -0.2198  0.5642
 7687TIP3    H144476   6.352   3.316  15.874 -3.2061 -0.3659  1.4186
 7687TIP3    H244477   6.287   3.213  15.784  0.1505 -0.4732 -1.0469
 7688TIP3   OH244478   1.735   0.248  15.283  0.1449 -0.1839  0.0203
 7688TIP3    H144479   1.757   0.212  15.369  0.6516 -1.2937 -0.5533
 7688TIP3    H244480   1.816   0.291  15.254  0.9616 -2.3485 -1.1312
 7689TIP3   OH244481   4.663   5.181   6.203 -0.0303  0.6407 -0.4254
 7689TIP3    H144482   4.591   5.145   6.254  1.0162  0.0403  0.7003
 7689TIP3    H244483   4.682   5.265   6.244  0.9162  0.0870  0.3365
 7690TIP3   OH244484   0.490   4.366   2.337 -0.1551  0.3816 -0.3407
 7690TIP3    H144485   0.575   4.351   2.297  0.2660  1.9097 -0.0886
 7690TIP3    H244486   0.443   4.420   2.274 -0.4926  0.5474  0.0500
 7691TIP3   OH244487   2.742   3.792  15.995 -0.8620  0.2772  0.0044
 7691TIP3    H144488   2.825   3.838  15.993 -0.3046 -0.7365 -1.2939
 7691TIP3    H244489   2.704   3.807  15.908 -1.2644 -0.6426  0.0154
 7692TIP3   OH244490   2.207   3.399  11.938 -0.7098 -0.3554  0.3307
 7692TIP3    H144491   2.193   3.493  11.945  1.7902  0.0387  1.1513
 7692TIP3    H244492   2.174   3.364  12.021 -1.1872 -0.1404  0.2339
 7693TIP3   OH244493   5.930   0.802  16.666 -0.2415 -0.6038 -0.4442
 7693TIP3    H144494   5.972   0.734  16.719 -0.8540 -1.3849 -0.9351
 7693TIP3    H244495   5.866   0.842  16.724  1.0610  0.5135  0.2756
 7694TIP3   OH244496   6.339   0.857  16.691  0.1490 -0.1132  0.1381
 7694TIP3    H144497   6.296   0.860  16.777 -0.6357  0.6849 -0.2664
 7694TIP3    H244498   6.406   0.790  16.700 -1.1109 -1.3271  0.8377
 7695TIP3   OH244499   1.941   2.481   2.453 -0.0534 -0.2364  0.2060
 7695TIP3    H144500   1.848   2.482   2.476 -0.9145 -0.3568 -2.7950
 7695TIP3    H244501   1.980   2.549   2.507 -2.2936  1.1985  0.1570
 7696TIP3   OH244502   3.587   0.156  13.786 -0.0823 -0.1544  0.3680
 7696TIP3    H144503   3.680   0.176  13.771  0.1554  0.1765  2.0210
 7696TIP3    H244504   3.540   0.222  13.737  0.4825 -1.2378 -1.7613
 7697TIP3   OH244505   4.930   2.564  17.099 -0.0921 -0.1369 -0.1433
 7697TIP3    H144506   4.877   2.634  17.061 -1.3893 -0.9417  0.1123
 7697TIP3    H244507   4.867   2.509  17.146  0.8712 -1.5323 -0.4192
 7698TIP3   OH244508   1.624   5.454  17.190  0.1818 -0.3016  0.4900
 7698TIP3    H144509   1.643   5.424  17.279 -0.3640 -1.0085  0.3806
 7698TIP3    H244510   1.698   5.510  17.167  0.3252 -0.1037  1.3908
 7699TIP3   OH244511   5.151   2.511  15.554 -0.2476  0.0982  0.3077
 7699TIP3    H144512   5.114   2.595  15.530  2.1652  1.2718  0.4040
 7699TIP3    H244513   5.077   2.461  15.588 -1.6022  2.5425  1.2155
 7700TIP3   OH244514   2.962   0.114  15.661 -0.3434 -0.0780 -0.6459
 7700TIP3    H144515   3.013   0.195  15.670 -1.0639  0.3543 -0.2737
 7700TIP3    H244516   3.026   0.047  15.639  0.4023  0.4155 -0.0258
 7701TIP3   OH244517   1.239   6.008   4.200  0.1959 -0.6419 -0.3997
 7701TIP3    H144518   1.274   5.930   4.156  1.3448 -0.3695 -0.0052
 7701TIP3    H244519   1.152   5.982   4.227 -0.0722 -1.2349 -1.7272
 7702TIP3   OH244520   6.041   0.711  14.159  0.3615  0.0985  0.0106
 7702TIP3    H144521   6.110   0.678  14.101 -0.4513 -0.4884 -0.6446
 7702TIP3    H244522   5.962   0.665  14.131 -0.1643  0.2237  1.2204
 7703TIP3   OH244523   4.372   5.745   3.402  0.7299  0.4246  0.2120
 7703TIP3    H144524   4.314   5.688   3.452 -0.3267  0.5267 -0.8646
 7703TIP3    H244525   4.417   5.686   3.341 -0.0844  0.6543 -0.6404
 7704TIP3   OH244526   4.844   4.265  16.567  0.3505  0.2415  0.1836
 7704TIP3    H144527   4.749   4.252  16.563  0.2763  1.0889 -1.9083
 7704TIP3    H244528   4.880   4.197  16.510  0.9871  0.2206  0.5978
 7705TIP3   OH244529   4.080   2.247  12.060 -0.1284  0.3279 -0.0306
 7705TIP3    H144530   4.118   2.178  12.006 -0.1876 -0.6139  1.0990
 7705TIP3    H244531   4.043   2.309  11.997  1.2206  0.0867 -1.0900
 7706TIP3   OH244532   0.365   4.245  12.954  0.2641 -0.1836  0.3973
 7706TIP3    H144533   0.425   4.320  12.954  2.1356 -1.5931  1.6994
 7706TIP3    H244534   0.296   4.270  12.892  0.8913  2.5265  0.6561
 7707TIP3   OH244535   5.850   1.056  15.927  0.0921 -0.0939 -0.1144
 7707TIP3    H144536   5.816   1.140  15.961 -1.4608 -1.2054  1.2434
 7707TIP3    H244537   5.942   1.073  15.909 -0.6506  2.5381 -2.0524
 7708TIP3   OH244538   3.671   1.262  13.525  0.0047 -0.1186 -0.3005
 7708TIP3    H144539   3.733   1.330  13.498 -1.0621  0.8841 -0.3237
 7708TIP3    H244540   3.695   1.186  13.473  0.9898  0.3600 -0.5665
 7709TIP3   OH244541   0.953   1.576  16.164 -0.1068 -0.0191  0.2609
 7709TIP3    H144542   0.915   1.660  16.188  0.7364  0.2323  0.7591
 7709TIP3    H244543   1.024   1.563  16.227  0.0874 -0.8721 -0.1179
 7710TIP3   OH244544   5.459   2.745  13.501  0.1630  0.4101  0.6646
 7710TIP3    H144545   5.450   2.723  13.594  0.9083  0.0256  0.6564
 7710TIP3    H244546   5.553   2.757  13.488 -0.0246  1.3628  0.1510
 7711TIP3   OH244547   1.807   2.257  15.466  0.2725  0.7456 -0.0607
 7711TIP3    H144548   1.858   2.335  15.442  0.2617  0.5643 -0.6779
 7711TIP3    H244549   1.870   2.201  15.512  0.4609  0.8038 -0.2471
 7712TIP3   OH244550   0.174   5.939   0.563 -0.2755  0.0562 -0.4956
 7712TIP3    H144551   0.160   6.024   0.605  0.0039 -0.7613  1.3516
 7712TIP3    H244552   0.094   5.924   0.512 -1.6628  0.1395  1.5296
 7713TIP3   OH244553   0.973   2.884   2.690 -0.2318 -0.1516  0.3952
 7713TIP3    H144554   1.049   2.905   2.743  0.3698 -2.7457  0.6757
 7713TIP3    H244555   0.947   2.796   2.718 -0.7735 -1.0458 -2.5476
 7714TIP3   OH244556   0.587   1.268  11.637 -0.4466 -0.2862 -0.8688
 7714TIP3    H144557   0.591   1.339  11.701  0.9010 -0.6385 -0.5410
 7714TIP3    H244558   0.653   1.290  11.572 -0.3944 -0.9575 -1.0497
 7715TIP3   OH244559   2.285   6.568  15.332 -0.1880 -0.2426  0.1677
 7715TIP3    H144560   2.370   6.546  15.370 -0.0848 -1.0282 -0.4994
 7715TIP3    H244561   2.258   6.489  15.284 -1.3456 -0.0477  0.4623
 7716TIP3   OH244562   1.733   3.290   4.772  0.3076  0.0237  0.5052
 7716TIP3    H144563   1.715   3.283   4.679 -0.9627  0.1772  0.7251
 7716TIP3    H244564   1.795   3.219   4.790 -1.1701 -1.4615 -0.0427
 7717TIP3   OH244565   0.940   3.671   5.176 -0.1262 -0.1331 -0.3738
 7717TIP3    H144566   0.983   3.731   5.237 -0.6424 -0.0606 -0.0716
 7717TIP3    H244567   0.847   3.689   5.188 -0.2920 -1.0684 -0.2061
 7718TIP3   OH244568   2.563   0.718   6.724  0.3295  0.1982 -0.6622
 7718TIP3    H144569   2.559   0.663   6.802 -0.1008  2.5928  1.1346
 7718TIP3    H244570   2.628   0.785   6.746  0.6920  0.5766 -2.6643
 7719TIP3   OH244571   2.694   1.116   5.212 -0.0171 -0.2382 -0.5149
 7719TIP3    H144572   2.636   1.042   5.230  1.2728 -1.7843 -2.3865
 7719TIP3    H244573   2.640   1.176   5.160 -0.1782 -1.3737 -1.7109
 7720TIP3   OH244574   2.067   2.459   0.220  0.1870 -0.4460  0.2299
 7720TIP3    H144575   2.028   2.482   0.305 -0.0842 -0.6527  0.1645
 7720TIP3    H244576   2.007   2.497   0.155  2.0886  2.6256  0.0788
 7721TIP3   OH244577   0.266   3.341   3.900 -0.6579  0.1488 -0.6243
 7721TIP3    H144578   0.304   3.389   3.826  1.1288 -1.4892 -0.8644
 7721TIP3    H244579   0.299   3.252   3.889 -1.1382 -0.3482  1.6212
 7722TIP3   OH244580   5.395   3.636  16.249  0.1727 -0.5251 -0.5813
 7722TIP3    H144581   5.461   3.590  16.301 -0.9934 -0.9914  0.5042
 7722TIP3    H244582   5.323   3.573  16.239 -0.8467  0.5648 -0.2806
 7723TIP3   OH244583   5.513   2.279  15.828 -0.6147 -0.4603 -0.2321
 7723TIP3    H144584   5.549   2.272  15.917  0.1747 -1.3058 -0.5974
 7723TIP3    H244585   5.544   2.365  15.797 -1.0416 -0.0869  0.3696
 7724TIP3   OH244586   6.419   6.121  14.723 -0.4496 -0.3719  0.5213
 7724TIP3    H144587   6.409   6.040  14.674  0.3845  0.2245 -0.7057
 7724TIP3    H244588   6.420   6.094  14.815 -1.6956 -1.5640  0.2168
 7725TIP3   OH244589   2.618   5.713   2.623  0.0798 -0.1943  0.5102
 7725TIP3    H144590   2.637   5.681   2.535 -2.7413 -1.4121  0.2669
 7725TIP3    H244591   2.538   5.763   2.614  0.4913  0.8396  2.1909
 7726TIP3   OH244592   0.688   1.703   4.604 -0.8527  0.3368 -0.3581
 7726TIP3    H144593   0.660   1.691   4.513  0.6189 -1.7158 -0.5911
 7726TIP3    H244594   0.691   1.798   4.615 -0.8868  0.6409 -2.5101
 7727TIP3   OH244595   0.026   2.347   3.144  0.3014  0.8740  0.3252
 7727TIP3    H144596   0.116   2.378   3.130 -0.2912  2.0087 -1.2306
 7727TIP3    H244597   0.028   2.255   3.118  0.9768  0.9445  0.1097
 7728TIP3   OH244598   5.402   3.054  13.933  0.0791 -0.1642 -0.3177
 7728TIP3    H144599   5.482   3.031  13.886  1.1524 -0.6989  1.6845
 7728TIP3    H244600   5.340   3.078  13.864  2.0888  0.7309 -1.8999
 7729TIP3   OH244601   5.527   3.610   4.848  0.1371  0.0559 -0.0778
 7729TIP3    H144602   5.443   3.594   4.890  1.5184 -3.9358  1.5934
 7729TIP3    H244603   5.566   3.682   4.898 -1.2435  0.2410  0.7652
 7730TIP3   OH244604   0.295   1.165   3.151 -0.2730  1.1021  1.0454
 7730TIP3    H144605   0.209   1.199   3.176 -0.4089  2.2570 -0.8646
 7730TIP3    H244606   0.282   1.129   3.063  1.0488  0.6389  1.0235
 7731TIP3   OH244607   0.623   4.929   0.492  0.5574  0.4443  0.3050
 7731TIP3    H144608   0.694   4.865   0.480 -0.1597 -0.5817  1.3430
 7731TIP3    H244609   0.581   4.903   0.574 -0.9230  1.1224 -0.2041
 7732TIP3   OH244610   5.275   6.227  14.176  0.0817 -0.4316 -0.6020
 7732TIP3    H144611   5.269   6.282  14.097 -0.7114 -2.0886 -1.7479
 7732TIP3    H244612   5.189   6.235  14.217 -0.1562 -1.0819 -0.9663
 7733TIP3   OH244613   2.910   5.645  12.348  0.0627 -0.1585  0.1789
 7733TIP3    H144614   2.972   5.671  12.280 -0.0803 -0.6759 -0.1544
 7733TIP3    H244615   2.840   5.599  12.301 -0.6625  0.5740  0.5336
 7734TIP3   OH244616   6.515   1.476  14.616 -0.8057  0.0771 -0.5207
 7734TIP3    H144617   6.471   1.490  14.533  0.0183  2.5141 -0.6470
 7734TIP3    H244618   6.597   1.524  14.608 -0.4004 -0.1917  1.4453
 7735TIP3   OH244619   3.602   2.954   5.607  0.5150 -0.3647 -0.5672
 7735TIP3    H144620   3.529   2.934   5.664  1.0515  1.7558  0.9672
 7735TIP3    H244621   3.674   2.899   5.640  0.6900  0.4979  0.5471
 7736TIP3   OH244622   1.968   1.934   0.374 -0.0202  0.0877 -0.4888
 7736TIP3    H144623   2.021   1.866   0.333  0.0942 -1.2706  1.7539
 7736TIP3    H244624   2.031   1.987   0.424 -0.4493  0.0003  0.1602
 7737TIP3   OH244625   6.131   4.405   1.339 -0.1867  0.4175 -0.0377
 7737TIP3    H144626   6.067   4.340   1.310  1.8853 -1.4015 -0.8675
 7737TIP3    H244627   6.187   4.357   1.400 -0.0469  2.1653  1.2925
 7738TIP3   OH244628   3.699   3.871   5.902 -0.2080  0.1156 -0.1297
 7738TIP3    H144629   3.672   3.955   5.940 -1.3193  0.4305 -1.5470
 7738TIP3    H244630   3.751   3.830   5.971 -0.8308  1.3401  1.1285
 7739TIP3   OH244631   3.459   3.812   5.433  0.0765 -0.3330  0.3630
 7739TIP3    H144632   3.429   3.723   5.454  2.1955 -1.1071  0.3824
 7739TIP3    H244633   3.442   3.863   5.512  0.0460 -1.0627  0.8363
 7740TIP3   OH244634   6.501   3.246  10.555  0.6613 -0.3420  0.1457
 7740TIP3    H144635   6.491   3.152  10.542  0.0556  0.0268 -2.8560
 7740TIP3    H244636   6.575   3.270  10.499 -1.5933  1.4458 -2.2688
 7741TIP3   OH244637   3.627   5.745  12.509  0.0394 -0.2175 -0.2667
 7741TIP3    H144638   3.582   5.676  12.460  2.0250 -1.1271 -0.8903
 7741TIP3    H244639   3.621   5.822  12.454 -0.3748 -0.4329 -0.5295
 7742TIP3   OH244640   4.547   4.248   1.186 -0.5541  0.2247  0.0002
 7742TIP3    H144641   4.524   4.306   1.113 -0.4042 -0.3448 -0.5040
 7742TIP3    H244642   4.632   4.280   1.216 -0.4275  0.2067 -0.3376
 7743TIP3   OH244643   4.984   5.081  12.936  0.1972 -0.0830  0.3458
 7743TIP3    H144644   4.919   5.061  13.004  1.0027 -1.5354  0.7236
 7743TIP3    H244645   4.961   5.022  12.864  2.0640 -1.8746  1.1217
 7744TIP3   OH244646   3.170   1.174   3.397 -0.2747 -0.3028  0.1471
 7744TIP3    H144647   3.176   1.247   3.336 -1.0193  0.4299  0.9253
 7744TIP3    H244648   3.107   1.203   3.463 -0.0201 -1.3535  0.8761
 7745TIP3   OH244649   0.515   5.790   0.219 -0.2539  0.1843 -0.4331
 7745TIP3    H144650   0.494   5.877   0.253 -1.1575  0.3889 -1.4592
 7745TIP3    H244651   0.470   5.786   0.135 -0.9402 -1.5927 -0.0293
 7746TIP3   OH244652   1.516   2.411   1.827 -0.2392 -0.3152 -0.4895
 7746TIP3    H144653   1.596   2.364   1.852 -0.6809 -1.2248 -0.7209
 7746TIP3    H244654   1.498   2.383   1.737  0.5589  1.8553 -1.3918
 7747TIP3   OH244655   4.791   1.851  17.198  0.1636 -0.1659  0.0366
 7747TIP3    H144656   4.710   1.807  17.175 -0.2625  0.5151  0.2198
 7747TIP3    H244657   4.814   1.901  17.119 -0.4662  0.9307  0.5360
 7748TIP3   OH244658   1.220   0.079   5.222  0.5093 -0.1398 -0.7455
 7748TIP3    H144659   1.280   0.152   5.204  1.4600 -0.4796  0.9213
 7748TIP3    H244660   1.189   0.052   5.135  2.0957  0.6115 -1.5825
 7749TIP3   OH244661   0.373   1.615   5.440  0.2255  0.1903  0.0530
 7749TIP3    H144662   0.293   1.656   5.474  0.9749  1.2078  0.6602
 7749TIP3    H244663   0.372   1.636   5.346  0.5338  1.5337  0.3348
 7750TIP3   OH244664   2.659   0.436   2.339  0.1946 -1.0642 -0.3064
 7750TIP3    H144665   2.579   0.394   2.373 -0.8011 -0.3817 -1.7257
 7750TIP3    H244666   2.717   0.363   2.319  0.0545 -1.5626  0.9754
 7751TIP3   OH244667   2.744   2.464  13.093  0.1391  0.6051 -0.1128
 7751TIP3    H144668   2.723   2.476  13.000 -1.6519  0.8066  0.2936
 7751TIP3    H244669   2.807   2.392  13.093 -1.2723 -0.7010 -1.3702
 7752TIP3   OH244670   2.796   4.556  13.941 -0.0438 -0.0727  0.4013
 7752TIP3    H144671   2.791   4.650  13.958  1.0295  0.0319  0.2090
 7752TIP3    H244672   2.883   4.531  13.970  0.0635 -0.8034 -0.5097
 7753TIP3   OH244673   1.059   5.792   0.193  0.0473  0.0417 -0.5982
 7753TIP3    H144674   1.004   5.779   0.269 -1.6540  2.1529 -1.3652
 7753TIP3    H244675   1.134   5.841   0.225  0.7369 -1.4363  0.1526
 7754TIP3   OH244676   1.785   0.907   2.099  0.2431 -0.2025  0.6474
 7754TIP3    H144677   1.696   0.894   2.065  0.0482  2.3136 -0.0038
 7754TIP3    H244678   1.774   0.913   2.194 -0.6035  1.8411  0.4630
 7755TIP3   OH244679   3.123   0.640  15.247  0.4019  0.3327 -0.0668
 7755TIP3    H144680   3.108   0.614  15.156  1.3138  0.4770 -0.2648
 7755TIP3    H244681   3.045   0.608  15.294 -1.0246  1.9279 -1.2035
 7756TIP3   OH244682   6.731   0.074   3.621  0.2824  0.2210  0.2510
 7756TIP3    H144683   6.822   0.104   3.622  0.5235 -0.4393 -0.6696
 7756TIP3    H244684   6.731  -0.003   3.563 -0.7698 -0.0799  0.6205
 7757TIP3   OH244685   4.232   1.300  14.375 -0.0636 -0.1464 -0.2234
 7757TIP3    H144686   4.261   1.278  14.464  0.8067 -1.0493 -0.7218
 7757TIP3    H244687   4.137   1.309  14.383 -0.3748 -2.9898  0.2838
 7758TIP3   OH244688   1.150   3.939   0.847  0.6335  0.1981 -0.1280
 7758TIP3    H144689   1.107   3.984   0.920  0.7674  1.3343 -0.7224
 7758TIP3    H244690   1.101   3.858   0.837 -1.3983  1.4286 -0.7785
 7759TIP3   OH244691   0.826   6.234   5.066  0.1036  0.1695 -0.1911
 7759TIP3    H144692   0.865   6.147   5.078  0.6204  0.1604 -1.6699
 7759TIP3    H244693   0.789   6.256   5.151  2.3218 -0.3285  0.9649
 7760TIP3   OH244694   4.826   6.701   4.147 -0.3193  0.0745  0.0980
 7760TIP3    H144695   4.903   6.651   4.118  0.0879  0.7400 -0.0137
 7760TIP3    H244696   4.802   6.662   4.231 -1.8782 -2.2790 -1.3309
 7761TIP3   OH244697   3.201   0.159  15.007 -0.3708 -0.9114 -0.0723
 7761TIP3    H144698   3.139   0.176  14.936  0.3956  1.5621 -0.2343
 7761TIP3    H244699   3.174   0.218  15.077  1.5948  0.0412 -0.0561
 7762TIP3   OH244700   6.399   0.347  11.670  0.0756  0.2009 -0.7194
 7762TIP3    H144701   6.356   0.325  11.753  0.6059 -0.3217 -0.5832
 7762TIP3    H244702   6.332   0.330  11.604 -0.8299  1.9299 -0.3153
 7763TIP3   OH244703   0.463   6.289  11.416 -0.1211  0.9249 -0.0880
 7763TIP3    H144704   0.485   6.245  11.499 -0.6016  0.5390 -0.1648
 7763TIP3    H244705   0.435   6.376  11.443 -0.2832  0.7991  0.1584
 7764TIP3   OH244706   6.296   1.925   0.833  0.1024 -0.0605  0.2722
 7764TIP3    H144707   6.234   1.943   0.762  1.9142 -0.0168 -1.3712
 7764TIP3    H244708   6.318   2.010   0.870  0.4737  0.0876 -0.2873
 7765TIP3   OH244709   1.822   4.930  14.492  0.0681  0.1305 -0.2446
 7765TIP3    H144710   1.727   4.924  14.497  0.0824 -0.1166 -0.2626
 7765TIP3    H244711   1.839   5.015  14.452 -0.1317  0.4344  0.3260
 7766TIP3   OH244712   0.680   4.310   3.035  0.3189 -0.0433  0.0117
 7766TIP3    H144713   0.609   4.266   2.989  0.1593  1.0700 -0.8445
 7766TIP3    H244714   0.666   4.287   3.127 -0.2463 -1.0636 -0.3073
 7767TIP3   OH244715   2.951   6.124  12.241  0.1605 -0.3237  0.0316
 7767TIP3    H144716   2.988   6.065  12.307 -0.7924  0.5185  1.3713
 7767TIP3    H244717   3.011   6.199  12.241  0.0143 -0.2067  0.1398
 7768TIP3   OH244718   4.857   3.509   2.471 -0.8260  0.4863 -0.3106
 7768TIP3    H144719   4.906   3.496   2.552 -0.9840  0.6632 -0.1873
 7768TIP3    H244720   4.888   3.439   2.413 -0.3544  0.6571 -0.2696
 7769TIP3   OH244721   2.683   6.063  11.618 -0.2740  0.4235  0.2963
 7769TIP3    H144722   2.761   6.071  11.562 -0.1963 -0.7436  0.2131
 7769TIP3    H244723   2.610   6.078  11.558 -0.1926 -0.8320 -0.1441
 7770TIP3   OH244724   0.753   2.923   1.404 -0.2542  0.0243 -0.0164
 7770TIP3    H144725   0.658   2.917   1.407 -0.3084 -1.1954 -2.4077
 7770TIP3    H244726   0.783   2.832   1.403  0.9096  0.3950 -0.0718
 7771TIP3   OH244727   1.383   2.856   4.502 -0.4517 -0.3963  0.2336
 7771TIP3    H144728   1.312   2.819   4.449 -0.6719 -0.9166  0.8695
 7771TIP3    H244729   1.461   2.806   4.476 -0.2210  0.4311 -0.7391
 7772TIP3   OH244730   3.468   2.402  15.534 -0.0056 -0.4997  0.0750
 7772TIP3    H144731   3.405   2.473  15.528  2.2562  1.8070  1.5401
 7772TIP3    H244732   3.536   2.424  15.470 -0.0874 -2.3574 -0.7355
 7773TIP3   OH244733   3.993   5.939  12.456  0.3027  0.0919 -0.4173
 7773TIP3    H144734   4.078   5.963  12.494  0.0478  0.2697  0.0504
 7773TIP3    H244735   4.014   5.901  12.371  0.8047  0.9212 -0.6771
 7774TIP3   OH244736   1.371   2.819  17.290 -0.2580  0.3796  0.1746
 7774TIP3    H144737   1.457   2.818  17.249  0.5838  0.5851  1.8308
 7774TIP3    H244738   1.366   2.903  17.335 -0.9866  0.0472  0.7477
 7775TIP3   OH244739   5.590   3.263   5.507 -0.4331 -0.0051  0.0567
 7775TIP3    H144740   5.647   3.300   5.574 -1.0490 -0.0062  0.5973
 7775TIP3    H244741   5.647   3.208   5.454  0.0204 -0.1924  0.7296
 7776TIP3   OH244742   4.897   3.721   2.712 -0.2072 -0.9078  0.2751
 7776TIP3    H144743   4.938   3.636   2.723  0.3669 -0.5656  0.8964
 7776TIP3    H244744   4.806   3.707   2.736 -0.2545 -1.4707 -0.2054
 7777TIP3   OH244745   1.401   2.235  17.254  0.3849 -0.0612  0.0734
 7777TIP3    H144746   1.396   2.325  17.284 -1.2694 -0.0690 -0.1080
 7777TIP3    H244747   1.393   2.240  17.159  1.9159 -0.3089 -0.1007
 7778TIP3   OH244748   5.020   2.516   4.952  0.1223 -0.1210  0.3540
 7778TIP3    H144749   5.039   2.423   4.965  0.9414 -0.2257 -1.3525
 7778TIP3    H244750   5.005   2.525   4.858  0.0118  1.4736  0.4934
 7779TIP3   OH244751   4.031   0.305   2.381 -0.1619  0.0727 -0.2608
 7779TIP3    H144752   4.083   0.250   2.439 -0.7738  0.9911  1.2322
 7779TIP3    H244753   4.027   0.257   2.298  0.1550 -1.6256  0.6722
 7780TIP3   OH244754   6.589   4.378  17.138  0.1934 -0.2230  0.8738
 7780TIP3    H144755   6.575   4.308  17.074  1.3424  2.0927 -2.1537
 7780TIP3    H244756   6.533   4.450  17.108  1.5516  1.3159  1.8686
 7781TIP3   OH244757   3.591   6.285  12.596 -0.3071 -0.1493  0.0705
 7781TIP3    H144758   3.655   6.214  12.592  0.4092  0.5090 -0.6701
 7781TIP3    H244759   3.511   6.243  12.627  0.8130 -0.7342  2.4055
 7782TIP3   OH244760   1.249   3.430   1.795 -0.3030 -0.1217  0.1382
 7782TIP3    H144761   1.154   3.428   1.806 -0.1036 -1.3070  2.0503
 7782TIP3    H244762   1.266   3.513   1.750 -2.0390  1.2670  1.8989
 7783TIP3   OH244763   2.507   1.741  15.899 -0.2040 -0.1287 -0.6638
 7783TIP3    H144764   2.458   1.822  15.915  0.3236 -0.1265  1.1609
 7783TIP3    H244765   2.597   1.762  15.923 -0.1368 -1.3689  0.2872
 7784TIP3   OH244766   1.002   1.104   5.197 -0.5261 -0.0215  0.6293
 7784TIP3    H144767   1.090   1.095   5.232  0.5949 -1.0371 -2.1923
 7784TIP3    H244768   0.994   1.197   5.175 -0.1849  0.0814  0.9385
 7785TIP3   OH244769   3.224   1.950  11.586 -0.3506 -0.1029  0.0748
 7785TIP3    H144770   3.130   1.935  11.597 -0.4551  0.7165  0.4245
 7785TIP3    H244771   3.258   1.950  11.676 -0.2632  1.0166  0.0579
 7786TIP3   OH244772   2.605   1.786   4.792  0.0473  0.0649  0.1664
 7786TIP3    H144773   2.532   1.843   4.814  0.0864  0.9130 -1.7142
 7786TIP3    H244774   2.677   1.817   4.846  0.2582  2.3244 -1.2877
 7787TIP3   OH244775   6.695   4.055  15.365 -0.1922  0.1733 -0.2927
 7787TIP3    H144776   6.680   3.970  15.406  2.2242 -0.9985 -1.6172
 7787TIP3    H244777   6.778   4.086  15.402  0.2771  0.7004 -1.6899
 7788TIP3   OH244778   3.835   3.840   3.253  0.3615  0.3265  0.5675
 7788TIP3    H144779   3.812   3.931   3.236 -1.2955  0.2017  1.8697
 7788TIP3    H244780   3.774   3.789   3.199 -0.2572 -0.0004  1.5466
 7789TIP3   OH244781   2.206   0.229  14.915 -0.4791  0.2200  0.0615
 7789TIP3    H144782   2.262   0.157  14.944  1.3938  1.1586 -0.9832
 7789TIP3    H244783   2.265   0.286  14.865 -2.6855  0.5370 -2.4256
 7790TIP3   OH244784   3.595   3.617   4.412  0.0474 -0.2375  0.0254
 7790TIP3    H144785   3.616   3.669   4.334  0.2023  1.1959  0.9962
 7790TIP3    H244786   3.680   3.588   4.445  0.1562  0.9545  0.8468
 7791TIP3   OH244787   6.568   4.748   5.926  0.1730 -0.7661  0.0593
 7791TIP3    H144788   6.485   4.758   5.879  0.1060 -1.0105  0.1220
 7791TIP3    H244789   6.623   4.820   5.894  0.7399 -1.9218 -1.6957
 7792TIP3   OH244790   0.584   3.795   2.515 -0.4166 -0.3198  0.3324
 7792TIP3    H144791   0.631   3.874   2.487  0.4137 -1.3090 -1.1749
 7792TIP3    H244792   0.495   3.825   2.530  0.0294  1.0301  0.4402
 7793TIP3   OH244793   4.229   0.922  11.668 -0.1624  0.0643 -0.0721
 7793TIP3    H144794   4.251   0.990  11.604 -0.1416 -0.2144 -0.3634
 7793TIP3    H244795   4.289   0.939  11.741 -0.6663  0.8168  0.1855
 7794TIP3   OH244796   6.014   1.084   0.353 -0.5211 -0.5690  0.3451
 7794TIP3    H144797   6.093   1.098   0.302 -1.8029  0.5916 -1.4589
 7794TIP3    H244798   5.971   1.009   0.311 -0.0891 -1.6534  1.7486
 7795TIP3   OH244799   5.596   6.268   0.258  0.1592  0.1216  0.0619
 7795TIP3    H144800   5.528   6.214   0.298 -1.5110  1.4438 -0.8706
 7795TIP3    H244801   5.672   6.210   0.252 -1.3843 -1.9605 -0.4170
 7796TIP3   OH244802   2.699   1.004  12.717  0.2668  0.0435 -0.2839
 7796TIP3    H144803   2.732   1.093  12.706 -0.4134  0.1936 -1.3134
 7796TIP3    H244804   2.778   0.949  12.715  0.6807  0.6028  0.2409
 7797TIP3   OH244805   5.271   3.572  12.616 -0.2395  0.1842  0.4229
 7797TIP3    H144806   5.343   3.585  12.554 -0.5072 -0.7037 -0.0873
 7797TIP3    H244807   5.314   3.551  12.699  0.1060 -1.9164 -0.2376
 7798TIP3   OH244808   2.681   5.126  11.973 -0.4367  0.2619 -0.0462
 7798TIP3    H144809   2.725   5.194  11.922 -0.1848  1.2517  1.4397
 7798TIP3    H244810   2.672   5.164  12.060 -0.8155 -1.4056  0.6640
 7799TIP3   OH244811   2.119   5.475   4.307 -0.0154  0.6047 -0.3007
 7799TIP3    H144812   2.113   5.414   4.234 -0.2875  0.9382 -0.5637
 7799TIP3    H244813   2.118   5.562   4.265 -2.2238  0.8635  0.2025
 7800TIP3   OH244814   0.303   3.976  13.338 -0.8286 -0.4298 -0.1931
 7800TIP3    H144815   0.269   3.973  13.427 -0.7831  1.1939 -0.1022
 7800TIP3    H244816   0.380   4.032  13.343 -2.0221  1.4590 -1.5954
 7801TIP3   OH244817   3.314   5.930  13.550  0.2406  0.1253  0.3524
 7801TIP3    H144818   3.281   5.840  13.555  0.5271 -0.0157 -0.2993
 7801TIP3    H244819   3.367   5.932  13.470 -0.0936  0.9775  0.1471
 7802TIP3   OH244820   3.854   1.996  13.665  0.6186  0.0421  0.0962
 7802TIP3    H144821   3.825   2.013  13.755  0.1552  0.5703 -0.1411
 7802TIP3    H244822   3.784   1.943  13.627  1.2628 -0.9949  0.3203
 7803TIP3   OH244823   2.504   1.536   1.445 -0.1603  0.1625 -0.0048
 7803TIP3    H144824   2.576   1.561   1.504  0.3675  0.0174 -0.5793
 7803TIP3    H244825   2.535   1.457   1.401 -0.8288 -0.1194  0.0121
 7804TIP3   OH244826   2.391   2.559  15.502 -0.2295 -0.4216 -0.1018
 7804TIP3    H144827   2.482   2.584  15.483 -0.4867  0.7380  0.1033
 7804TIP3    H244828   2.362   2.513  15.424 -0.1467  1.1303 -1.0979
 7805TIP3   OH244829   1.136   5.445  12.436  0.1584  0.2229 -0.2499
 7805TIP3    H144830   1.226   5.457  12.408  0.7550  0.7867  1.7593
 7805TIP3    H244831   1.134   5.475  12.527 -1.3000 -2.7482  0.8717
 7806TIP3   OH244832   3.196   0.690   6.120 -0.5420 -0.4135 -0.0312
 7806TIP3    H144833   3.241   0.660   6.199 -0.0977 -3.5028 -1.3398
 7806TIP3    H244834   3.157   0.774   6.146  1.2676 -0.3026  2.8157
 7807TIP3   OH244835   2.498   3.048   3.080 -0.2190  0.1407 -0.0724
 7807TIP3    H144836   2.547   3.124   3.113 -0.8021 -0.0849  1.3804
 7807TIP3    H244837   2.565   2.982   3.063  0.1492  0.4321  0.2140
 7808TIP3   OH244838   2.292   2.191  12.116 -0.1697  0.1995 -0.3384
 7808TIP3    H144839   2.251   2.229  12.039  1.0081  3.4230  0.4726
 7808TIP3    H244840   2.386   2.190  12.095  0.0344 -0.1013  0.5482
 7809TIP3   OH244841   6.379   4.802   0.095  0.7405 -0.3026  0.3651
 7809TIP3    H144842   6.434   4.830   0.168  1.7477  0.9299 -0.8036
 7809TIP3    H244843   6.440   4.794   0.021 -0.7320  2.0919 -1.2365
 7810TIP3   OH244844   3.948   3.763  15.654  0.1420  0.5724  0.4703
 7810TIP3    H144845   3.939   3.808  15.571 -0.3639 -1.2974 -0.5513
 7810TIP3    H244846   4.043   3.762  15.670  0.1829  1.7021  0.3875
 7811TIP3   OH244847   0.108   2.274  14.479  0.0698 -0.2099 -0.4323
 7811TIP3    H144848   0.124   2.284  14.385 -1.6137  2.2163 -0.5586
 7811TIP3    H244849   0.016   2.251  14.486  0.6175 -2.2563  0.6131
 7812TIP3   OH244850   2.864   0.427   1.589 -0.4022 -0.1357  1.0390
 7812TIP3    H144851   2.924   0.354   1.570 -0.4170  0.3567 -1.2672
 7812TIP3    H244852   2.827   0.449   1.503 -1.7026  1.4682  1.9676
 7813TIP3   OH244853   5.375   6.636  13.820 -0.2838 -0.4958  0.4118
 7813TIP3    H144854   5.355   6.714  13.871  0.3327 -0.4222  0.5478
 7813TIP3    H244855   5.455   6.601  13.860  0.6265 -0.0339 -0.9526
 7814TIP3   OH244856   0.486   2.170  10.858  0.7208  0.5833  0.8997
 7814TIP3    H144857   0.404   2.192  10.815  0.5072  0.3457  1.1821
 7814TIP3    H244858   0.550   2.167  10.787  0.5513  1.0711  0.7185
 7815TIP3   OH244859   0.214   4.487  16.156  0.0119  0.0343 -0.0532
 7815TIP3    H144860   0.307   4.467  16.149  0.5423  1.9432  0.8412
 7815TIP3    H244861   0.194   4.479  16.250 -0.2734  1.2460  0.0200
 7816TIP3   OH244862   3.310   6.677  16.728 -0.3723  0.1279 -0.6331
 7816TIP3    H144863   3.332   6.585  16.740  0.1209  0.4864  1.5817
 7816TIP3    H244864   3.382   6.725  16.769 -2.5508  1.3989  2.0337
 7817TIP3   OH244865   1.124   5.774   4.718  0.0713  0.7702  0.0713
 7817TIP3    H144866   1.051   5.714   4.707  1.2340 -0.6988  0.0833
 7817TIP3    H244867   1.199   5.718   4.739  0.6711  2.3783  2.8005
 7818TIP3   OH244868   1.043   4.827  14.341  0.0115 -0.3012 -0.5381
 7818TIP3    H144869   0.990   4.860  14.268 -0.4824  1.9178  0.7245
 7818TIP3    H244870   1.119   4.885  14.343  0.9757 -1.5344 -0.4215
 7819TIP3   OH244871   0.126   2.048   0.108 -0.1869  0.0508 -0.5105
 7819TIP3    H144872   0.076   2.105   0.050 -1.6368 -0.9808 -0.3285
 7819TIP3    H244873   0.099   1.959   0.084  0.2251 -0.4546  0.8005
 7820TIP3   OH244874   2.756   5.408  14.837 -0.1358 -0.2619  0.2194
 7820TIP3    H144875   2.827   5.430  14.897 -1.5526  1.0462  1.5046
 7820TIP3    H244876   2.680   5.394  14.893 -0.5427 -3.7563 -0.9093
 7821TIP3   OH244877   3.655   2.593  11.986  0.1431 -0.3125  0.1897
 7821TIP3    H144878   3.573   2.616  11.942  0.3363 -2.6372 -1.5538
 7821TIP3    H244879   3.708   2.673  11.982 -1.9335  1.2285  1.3230
 7822TIP3   OH244880   5.752   5.411   4.417  0.1254  0.5600  0.0867
 7822TIP3    H144881   5.805   5.480   4.458  1.4359 -0.7630  0.7095
 7822TIP3    H244882   5.801   5.388   4.338  0.7404 -0.9454  0.8684
 7823TIP3   OH244883   1.014   5.789   0.491 -0.5752  0.1681 -0.3774
 7823TIP3    H144884   1.029   5.737   0.570 -0.8464 -1.8354 -1.5730
 7823TIP3    H244885   1.028   5.879   0.519  1.4731 -0.6235  1.4478
 7824TIP3   OH244886   1.165   0.988  14.915 -0.1398 -0.2277 -0.6958
 7824TIP3    H144887   1.080   0.959  14.881 -0.1115  0.6155 -1.5254
 7824TIP3    H244888   1.204   0.909  14.953 -1.2979 -0.6230 -0.2905
 7825TIP3   OH244889   5.670   0.561   2.968 -0.4306  0.2026  0.0659
 7825TIP3    H144890   5.574   0.557   2.967 -0.4525  0.6804 -0.9787
 7825TIP3    H244891   5.696   0.538   2.879  0.4606 -0.4649  0.4784
 7826TIP3   OH244892   4.144   0.302   4.845  0.1039  0.0794  0.0472
 7826TIP3    H144893   4.093   0.233   4.888 -1.0222  0.7688 -0.1601
 7826TIP3    H244894   4.164   0.266   4.759 -0.1906 -0.1234  0.0615
 7827TIP3   OH244895   5.490   5.837   2.775 -0.0202  0.1168  0.8425
 7827TIP3    H144896   5.483   5.907   2.840  0.1126 -0.1399  1.1326
 7827TIP3    H244897   5.544   5.771   2.816  1.3720  0.6096 -0.1072
 7828TIP3   OH244898   0.606   4.118  14.722 -0.1316 -0.1236  0.1870
 7828TIP3    H144899   0.601   4.185  14.654  1.5701 -0.0453  0.0801
 7828TIP3    H244900   0.536   4.057  14.701 -0.7099  0.7927 -0.6405
 7829TIP3   OH244901   0.752   5.761   4.859  0.0591 -0.5261  0.2061
 7829TIP3    H144902   0.660   5.735   4.869 -0.2029  0.1036 -0.4496
 7829TIP3    H244903   0.771   5.812   4.937  0.6869 -2.8543  1.6931
 7830TIP3   OH244904   5.100   3.057  11.547 -0.0089  0.1239 -0.0323
 7830TIP3    H144905   5.033   3.072  11.613 -0.5089 -0.7566 -0.3291
 7830TIP3    H244906   5.157   3.134  11.552 -1.3352  1.1369 -0.1496
 7831TIP3   OH244907   1.065   2.558   1.915  0.2144 -0.7436 -0.0920
 7831TIP3    H144908   1.061   2.629   1.980 -0.9388  0.7567 -1.6855
 7831TIP3    H244909   1.002   2.493   1.948 -1.2403  0.5248 -0.2361
 7832TIP3   OH244910   4.287   6.551   2.969 -0.1596  0.0859 -0.4558
 7832TIP3    H144911   4.210   6.557   2.912  0.3106 -1.9650 -1.4112
 7832TIP3    H244912   4.359   6.529   2.909  0.2040 -2.9745  0.8911
 7833TIP3   OH244913   2.107   6.170   0.712  0.1472 -0.4617 -0.2654
 7833TIP3    H144914   2.135   6.100   0.653  2.2698  0.5571 -0.5693
 7833TIP3    H244915   2.119   6.250   0.661  0.2744  0.3066  0.9240
 7834TIP3   OH244916   5.624   6.301   3.762  0.1839 -0.2322 -0.7149
 7834TIP3    H144917   5.588   6.218   3.792  0.4106 -0.2711 -0.5420
 7834TIP3    H244918   5.693   6.277   3.700  0.2318 -0.1725 -0.6853
 7835TIP3   OH244919   0.599   0.973   0.344 -0.5694 -0.3303 -0.4707
 7835TIP3    H144920   0.541   1.031   0.393  0.2949  0.1829 -0.0317
 7835TIP3    H244921   0.612   1.017   0.260 -0.9699 -0.5482 -0.6512
 7836TIP3   OH244922   2.894   6.604  12.684  0.2366 -0.0275 -0.5544
 7836TIP3    H144923   2.867   6.666  12.616  2.0723  2.2730  0.6269
 7836TIP3    H244924   2.855   6.639  12.765  0.3527 -1.1167 -0.0099
 7837TIP3   OH244925   3.920   0.549  14.796 -0.1674 -0.2801 -0.1420
 7837TIP3    H144926   3.964   0.474  14.836 -1.9987 -0.6733  1.2451
 7837TIP3    H244927   3.965   0.625  14.832 -0.8755 -0.6656  1.6633
 7838TIP3   OH244928   2.689   2.944   2.146  0.0230 -0.1661  0.0114
 7838TIP3    H144929   2.631   2.876   2.180 -1.3398  0.4457 -1.0492
 7838TIP3    H244930   2.738   2.901   2.076 -1.0286 -0.0016 -0.8371
 7839TIP3   OH244931   4.067   6.296   1.884  0.3662 -0.0959 -0.0197
 7839TIP3    H144932   4.152   6.335   1.901 -0.1536  0.9779  0.1550
 7839TIP3    H244933   4.079   6.203   1.905  0.9124  0.4009  2.0726
 7840TIP3   OH244934   3.052   0.606  14.984 -0.3256  0.4027 -0.1116
 7840TIP3    H144935   3.050   0.697  14.954 -0.5732  0.5039  0.2065
 7840TIP3    H244936   3.004   0.558  14.916 -0.0084  0.4751 -0.3893
 7841TIP3   OH244937   0.412   4.693  15.444  0.3054  0.5862 -0.4479
 7841TIP3    H144938   0.379   4.754  15.378 -0.3070  0.4333 -0.2895
 7841TIP3    H244939   0.465   4.630  15.395  0.9428  1.2320 -0.6137
 7842TIP3   OH244940   4.850   5.157  13.367 -0.2862 -0.2272 -0.3702
 7842TIP3    H144941   4.893   5.116  13.443  0.6235 -2.9347 -2.1578
 7842TIP3    H244942   4.757   5.143  13.382 -0.4347  2.3565  1.7840
 7843TIP3   OH244943   4.949   3.595  12.195  0.2540  0.0485  0.1105
 7843TIP3    H144944   4.946   3.611  12.289  0.5299 -0.5517  0.2269
 7843TIP3    H244945   4.870   3.544  12.176  1.0738 -1.3531  0.3291
 7844TIP3   OH244946   6.591   3.748  13.422 -0.2161 -0.5708  0.1592
 7844TIP3    H144947   6.624   3.705  13.344 -1.5434 -1.2908 -0.0421
 7844TIP3    H244948   6.592   3.680  13.490 -2.0856 -0.9257 -0.0973
 7845TIP3   OH244949   4.764   3.100   3.825  0.0186 -0.1779  0.8258
 7845TIP3    H144950   4.686   3.103   3.881 -0.3068 -1.0515  0.4393
 7845TIP3    H244951   4.835   3.131   3.881 -0.4403 -0.2999  1.4852
 7846TIP3   OH244952   1.173   6.754   0.750  0.4415 -0.1932 -0.2392
 7846TIP3    H144953   1.176   6.670   0.795  1.2915  0.4161  0.9133
 7846TIP3    H244954   1.082   6.783   0.757  0.3408 -0.6055  0.1582
 7847TIP3   OH244955   2.640   2.407  11.787  0.0081  0.0342  0.1449
 7847TIP3    H144956   2.692   2.410  11.707  0.9570 -0.4183  0.7332
 7847TIP3    H244957   2.685   2.465  11.848 -0.8458  0.5628  0.2871
 7848TIP3   OH244958   5.418   4.561   0.289  0.0523  0.1442 -0.0838
 7848TIP3    H144959   5.358   4.598   0.224 -0.1356  0.5737  0.3371
 7848TIP3    H244960   5.505   4.572   0.250 -0.0339  0.6957 -0.1214
 7849TIP3   OH244961   2.402   1.225  14.192 -0.4919 -0.2440 -0.0765
 7849TIP3    H144962   2.319   1.239  14.145 -1.0514  1.0286  1.2255
 7849TIP3    H244963   2.453   1.304  14.173  0.9745 -1.5278 -1.8473
 7850TIP3   OH244964   6.115   5.648  14.070  0.1343 -0.3008  0.1469
 7850TIP3    H144965   6.082   5.701  13.998 -0.5717 -1.3053 -0.2786
 7850TIP3    H244966   6.208   5.634  14.048  0.4126  0.9683  0.4141
 7851TIP3   OH244967   2.226   1.618  15.253 -0.1239 -0.8570 -0.2522
 7851TIP3    H144968   2.271   1.701  15.240  1.6001 -1.6773  0.1934
 7851TIP3    H244969   2.289   1.563  15.299 -1.2636 -2.3840 -0.4118
 7852TIP3   OH244970   1.858   4.484  11.702 -0.0790 -0.2885 -0.3647
 7852TIP3    H144971   1.896   4.481  11.790  1.1478  1.1118 -0.8023
 7852TIP3    H244972   1.813   4.569  11.699 -0.1031 -0.3235 -1.0896
 7853TIP3   OH244973   2.223   0.705  12.792 -0.1119  0.3113  0.0737
 7853TIP3    H144974   2.291   0.683  12.855  0.1630 -0.4786 -0.4803
 7853TIP3    H244975   2.268   0.707  12.708 -0.7840 -0.3107 -0.3081
 7854TIP3   OH244976   6.632   4.802   0.977 -0.5258  1.1029  0.5067
 7854TIP3    H144977   6.560   4.778   0.919  1.6686 -0.8467 -1.6504
 7854TIP3    H244978   6.627   4.738   1.049  1.3457 -1.9296 -1.8092
 7855TIP3   OH244979   2.951   3.078  16.613  0.1689 -0.3751 -0.1204
 7855TIP3    H144980   2.997   3.074  16.529 -2.5672 -3.0747 -1.7020
 7855TIP3    H244981   2.874   3.133  16.596  0.3917  0.3582  1.1277
 7856TIP3   OH244982   1.751   5.718   1.369 -0.1411  0.1489 -0.2297
 7856TIP3    H144983   1.743   5.694   1.276  1.5728  3.6336 -1.4395
 7856TIP3    H244984   1.792   5.641   1.409 -1.2246 -1.6033 -2.2457
 7857TIP3   OH244985   3.183   1.300   4.069 -0.1554  0.2303 -0.5322
 7857TIP3    H144986   3.223   1.312   4.155  1.2958 -2.1558 -0.7862
 7857TIP3    H244987   3.251   1.328   4.007 -0.9654  1.3581 -0.9458
 7858TIP3   OH244988   5.383   3.047   1.502 -0.0035 -0.5578 -1.1119
 7858TIP3    H144989   5.302   2.998   1.512 -0.8887  0.8071 -1.4624
 7858TIP3    H244990   5.388   3.103   1.579 -1.2044  1.8841 -2.6889
 7859TIP3   OH244991   2.345   2.947   0.887 -0.2981 -0.2275  0.0612
 7859TIP3    H144992   2.295   3.028   0.887 -0.8328 -0.5532  0.0373
 7859TIP3    H244993   2.432   2.972   0.857 -0.2517  0.4630  0.7329
 7860TIP3   OH244994   4.826   6.506  16.306  0.1773 -0.3321  0.6944
 7860TIP3    H144995   4.828   6.443  16.378  0.0352 -0.2573  0.7645
 7860TIP3    H244996   4.918   6.519  16.282  0.3091  0.4481  1.5595
 7861TIP3   OH244997   0.460   5.751   5.249  0.2757 -0.6224  0.1076
 7861TIP3    H144998   0.502   5.819   5.197  0.0611  0.1532  0.9201
 7861TIP3    H244999   0.528   5.684   5.261  1.6559  0.9735  2.1067
 7862TIP3   OH245000   5.256   6.621   4.242 -0.1770 -0.1197  0.3655
 7862TIP3    H145001   5.188   6.554   4.235  0.7400 -0.8612 -3.0719
 7862TIP3    H245002   5.313   6.589   4.313 -0.7568 -2.0664  0.0137
 7863TIP3   OH245003   1.012   5.717  15.465 -0.3544 -0.0283  0.3642
 7863TIP3    H145004   0.977   5.693  15.380 -0.9667  0.1751  0.5500
 7863TIP3    H245005   0.971   5.656  15.526 -0.4929  0.2975  0.6021
 7864TIP3   OH245006   5.829   3.629   2.956 -0.3480  0.0687  0.3790
 7864TIP3    H145007   5.773   3.666   2.887  1.0088  1.9824  0.2142
 7864TIP3    H245008   5.897   3.581   2.908 -0.3430 -0.0080  0.4632
 7865TIP3   OH245009   0.625   4.281   0.015  0.7015  0.0002 -0.0731
 7865TIP3    H145010   0.606   4.320  -0.071  0.6335 -0.0922 -0.0981
 7865TIP3    H245011   0.546   4.299   0.067 -0.2406 -1.9734 -0.7173
 7866TIP3   OH245012   6.043   5.366   3.117  0.0859 -0.4586  0.0164
 7866TIP3    H145013   5.951   5.353   3.140  0.2269  1.0112  1.6356
 7866TIP3    H245014   6.074   5.279   3.092 -1.3053 -1.3174  1.0986
 7867TIP3   OH245015   6.682   0.643  15.539  0.0820  0.0653 -0.5614
 7867TIP3    H145016   6.606   0.615  15.590  0.0712 -1.4034 -1.3168
 7867TIP3    H245017   6.652   0.639  15.448  0.3698  1.7564 -0.7578
 7868TIP3   OH245018   0.496   6.698   2.586 -0.1370  0.4640  0.5486
 7868TIP3    H145019   0.546   6.623   2.619  1.2608  0.8780 -0.5699
 7868TIP3    H245020   0.516   6.701   2.493 -0.5423  1.9650  0.4930
 7869TIP3   OH245021   1.912   5.301  16.161  0.1070  0.3153  0.5206
 7869TIP3    H145022   1.872   5.310  16.075 -2.8316  1.3665  1.8534
 7869TIP3    H245023   1.866   5.227  16.201  2.7734 -1.4292  0.6077
 7870TIP3   OH245024   2.589   4.191  16.604 -0.3839  0.3221 -0.1753
 7870TIP3    H145025   2.530   4.119  16.582  0.3671 -0.6373  0.8288
 7870TIP3    H245026   2.609   4.178  16.697  2.0185  0.1303 -0.6548
 7871TIP3   OH245027   0.545   2.492   0.055 -0.3115 -0.3177  0.4707
 7871TIP3    H145028   0.600   2.553   0.104 -0.3979 -0.2892  0.5315
 7871TIP3    H245029   0.476   2.546   0.017 -0.5571 -0.4172  0.7661
 7872TIP3   OH245030   3.253   2.852   2.948  0.4931 -0.0942  0.8003
 7872TIP3    H145031   3.289   2.919   3.005 -2.2788  1.6254  0.6751
 7872TIP3    H245032   3.236   2.897   2.865 -2.4854 -0.5788  1.0678
 7873TIP3   OH245033   0.835   5.977   1.261  0.2898 -0.5768  0.3985
 7873TIP3    H145034   0.786   5.900   1.289 -0.2857  0.0842  1.2824
 7873TIP3    H245035   0.767   6.038   1.230  0.7603 -0.5349 -0.5918
 7874TIP3   OH245036   2.717   4.503  11.669  0.0953 -0.0710 -0.4146
 7874TIP3    H145037   2.699   4.504  11.575  1.7547  0.0930 -0.7637
 7874TIP3    H245038   2.778   4.575  11.683 -1.6633  1.2309  1.1768
 7875TIP3   OH245039   1.556   2.294   4.814  0.3649 -0.1263 -0.2536
 7875TIP3    H145040   1.590   2.366   4.868  0.5352 -0.5921  0.2628
 7875TIP3    H245041   1.633   2.245   4.788  0.4695  0.9599 -2.2328
 7876TIP3   OH245042   5.520   3.613  13.479 -0.2312 -0.5256 -0.3632
 7876TIP3    H145043   5.592   3.580  13.533 -1.5228 -0.3911  1.5516
 7876TIP3    H245044   5.446   3.618  13.539 -1.3321  1.2688 -1.7692
 7877TIP3   OH245045   0.917   1.587   1.989  0.0534  0.2313 -0.3582
 7877TIP3    H145046   0.962   1.619   1.911  1.5706 -0.2977  0.2790
 7877TIP3    H245047   0.898   1.495   1.970  1.3091 -0.1763  0.2487
 7878TIP3   OH245048   5.727   0.833  16.866  0.3903  0.3196 -0.5090
 7878TIP3    H145049   5.662   0.846  16.935  0.1012 -0.6121 -0.5934
 7878TIP3    H245050   5.675   0.807  16.789  0.9644 -3.1766  0.1110
 7879TIP3   OH245051   2.011   3.115  16.980  0.6145 -0.0481  0.4758
 7879TIP3    H145052   1.998   3.020  16.975  0.7474 -0.1153  1.2696
 7879TIP3    H245053   1.935   3.152  16.936  0.1180 -0.5148  0.9230
 7880TIP3   OH245054   4.105   3.037  11.404  0.4089  0.3653 -0.1402
 7880TIP3    H145055   4.080   3.107  11.464 -3.8789 -1.1056  0.1177
 7880TIP3    H245056   4.098   3.076  11.317 -0.7358  0.6439  0.0607
 7881TIP3   OH245057   0.691   1.000  17.045  0.6890 -0.1938 -0.5204
 7881TIP3    H145058   0.753   1.015  16.974  1.3879 -1.0663 -0.1176
 7881TIP3    H245059   0.659   1.087  17.068  3.7345  0.6801  0.9862
 7882TIP3   OH245060   5.373   6.714   3.976  0.1320  0.1004  0.0359
 7882TIP3    H145061   5.389   6.693   4.068 -1.7333 -1.1358  0.1288
 7882TIP3    H245062   5.420   6.645   3.928  1.1584  0.7816  0.0259
 7883TIP3   OH245063   5.397   6.279  11.732  0.0447 -0.4605  0.1882
 7883TIP3    H145064   5.472   6.247  11.681 -2.3867 -0.9321 -3.5134
 7883TIP3    H245065   5.341   6.202  11.742 -1.1195  0.4017  0.5365
 7884TIP3   OH245066   0.742   2.126   0.177  0.1991  0.4194 -0.2111
 7884TIP3    H145067   0.678   2.060   0.201  0.5678  0.5423  1.1515
 7884TIP3    H245068   0.722   2.201   0.232  0.6998  0.9336 -0.7111
 7885TIP3   OH245069   2.904   0.885   0.476  0.2365  0.2515 -0.1548
 7885TIP3    H145070   2.828   0.842   0.438  0.7834 -0.6921 -0.2021
 7885TIP3    H245071   2.962   0.901   0.402  0.2234  0.6998 -0.0743
 7886TIP3   OH245072   2.509   3.496  12.226 -0.2128  0.0316 -0.1684
 7886TIP3    H145073   2.571   3.483  12.154 -1.2886  0.4518 -1.1998
 7886TIP3    H245074   2.511   3.590  12.243  0.3119 -0.1128  0.6240
 7887TIP3   OH245075   6.323   2.875  17.144 -0.3822  0.4425  0.6180
 7887TIP3    H145076   6.364   2.799  17.187  0.4958  0.3473 -0.3554
 7887TIP3    H245077   6.280   2.838  17.067  1.3810  1.1029 -0.7439
 7888TIP3   OH245078   4.430   6.660  15.680 -0.2417  0.1459  0.2959
 7888TIP3    H145079   4.471   6.588  15.728 -1.6091 -0.5932  0.3872
 7888TIP3    H245080   4.489   6.734  15.694  1.2765 -0.9660  0.0765
 7889TIP3   OH245081   1.058   1.480   6.051 -0.1844 -0.4465  0.0425
 7889TIP3    H145082   1.052   1.512   6.140 -0.2128 -1.5542  0.4569
 7889TIP3    H245083   1.148   1.498   6.024  0.5497 -2.2451  1.1621
 7890TIP3   OH245084   2.071   1.156   0.329 -0.3447  0.0966 -0.1528
 7890TIP3    H145085   2.010   1.193   0.265  0.2672  1.9690  0.2899
 7890TIP3    H245086   2.017   1.102   0.386 -1.8364  2.5092  0.8597
 7891TIP3   OH245087   5.451   6.076   5.947  0.3856 -0.5082  0.5999
 7891TIP3    H145088   5.486   6.020   5.878  1.7371  1.5361 -0.4522
 7891TIP3    H245089   5.487   6.040   6.028  1.9229 -0.6784 -0.1256
 7892TIP3   OH245090   2.343   3.500   3.654 -0.0489 -0.5407  0.2619
 7892TIP3    H145091   2.348   3.492   3.558 -0.3388 -1.3005  0.2985
 7892TIP3    H245092   2.428   3.535   3.680 -0.0406 -0.1244 -0.2901
 7893TIP3   OH245093   6.365   6.113   1.428 -0.4109 -0.7498  0.1347
 7893TIP3    H145094   6.428   6.142   1.363 -1.3115 -1.6670 -1.2070
 7893TIP3    H245095   6.294   6.177   1.425  0.4203  0.2857  1.6465
 7894TIP3   OH245096   1.227   6.189   5.364 -0.4507  0.0801  0.2830
 7894TIP3    H145097   1.139   6.181   5.401 -1.1045  0.5259 -1.1084
 7894TIP3    H245098   1.245   6.283   5.368 -0.2257  0.0410  0.1493
 7895TIP3   OH245099   5.132   2.482  11.818 -0.0838  0.2565 -0.1562
 7895TIP3    H145100   5.200   2.508  11.756  0.1546 -0.2862 -0.1232
 7895TIP3    H245101   5.176   2.423  11.878 -0.6689 -0.3767 -0.3421
 7896TIP3   OH245102   6.656   5.240   3.629  0.5972 -0.1243  0.6484
 7896TIP3    H145103   6.570   5.281   3.624  0.0584 -1.3505 -0.8324
 7896TIP3    H245104   6.645   5.170   3.695 -0.4551 -2.1685 -1.5453
 7897TIP3   OH245105   4.501   2.107   5.861  0.0794  0.2476  0.2436
 7897TIP3    H145106   4.552   2.037   5.902 -0.9420  0.5645  2.1802
 7897TIP3    H245107   4.427   2.062   5.821  0.5277  0.0381 -0.3697
 7898TIP3   OH245108   5.880   3.541   0.743 -0.5639  0.4470  0.6970
 7898TIP3    H145109   5.908   3.627   0.776 -0.6458  0.2719  1.2331
 7898TIP3    H245110   5.877   3.552   0.648  1.8328  0.3401  0.5405
 7899TIP3   OH245111   6.130   5.800   5.292  0.0262 -0.7143 -0.6705
 7899TIP3    H145112   6.053   5.828   5.243 -0.6639  0.2817  0.8983
 7899TIP3    H245113   6.190   5.766   5.226 -2.2665 -2.8138 -1.8362
 7900TIP3   OH245114   3.935   0.006  12.747  0.5809  0.1364 -0.6257
 7900TIP3    H145115   3.901   0.095  12.748  0.3825  0.0705  0.7292
 7900TIP3    H245116   3.858  -0.049  12.760  0.8903 -0.1419  0.0575
 7901TIP3   OH245117   4.407   4.696  12.160  0.0675  0.3085 -0.5383
 7901TIP3    H145118   4.443   4.610  12.178  0.0413  0.1354 -1.3036
 7901TIP3    H245119   4.483   4.751  12.142  0.0269  0.2155 -1.0047
 7902TIP3   OH245120   3.484   3.310   0.346  0.3030  0.1131 -0.4163
 7902TIP3    H145121   3.472   3.375   0.415 -0.8700 -1.4940  0.9782
 7902TIP3    H245122   3.568   3.332   0.306  0.1176  2.2186  0.2467
 7903TIP3   OH245123   4.004   5.803  16.469  0.5819 -0.0879  0.3315
 7903TIP3    H145124   3.981   5.888  16.506 -1.3882 -1.1907  1.8099
 7903TIP3    H245125   3.923   5.770  16.431  1.3511 -1.2306 -0.3882
 7904TIP3   OH245126   2.151   0.492   5.390  0.0799  0.1178 -0.1990
 7904TIP3    H145127   2.115   0.436   5.459 -1.7772 -0.5391 -1.5930
 7904TIP3    H245128   2.240   0.460   5.378  0.0472 -0.5272  1.0920
 7905TIP3   OH245129   5.078   5.766   0.568  0.3025  0.3745  0.5060
 7905TIP3    H145130   5.155   5.714   0.546 -0.9548 -1.8279  1.0064
 7905TIP3    H245131   5.044   5.795   0.483 -1.8476 -4.0881 -0.4295
 7906TIP3   OH245132   1.957   1.247   0.925 -0.1828  0.1802  0.1925
 7906TIP3    H145133   1.935   1.278   1.013 -0.1033 -2.2920  1.1551
 7906TIP3    H245134   2.050   1.266   0.916  0.1277 -0.7492  1.2192
 7907TIP3   OH245135   6.691   0.894   2.710 -0.2092  0.2873  0.0467
 7907TIP3    H145136   6.647   0.904   2.795 -0.3698 -1.7113  0.2465
 7907TIP3    H245137   6.681   0.979   2.668 -2.2162  0.6173  1.0613
 7908TIP3   OH245138   1.864   2.884   1.732  0.2064 -0.4407 -0.0396
 7908TIP3    H145139   1.783   2.832   1.727 -0.1122 -0.2846  2.4331
 7908TIP3    H245140   1.912   2.860   1.653 -2.3622 -0.3270 -1.7614
 7909TIP3   OH245141   6.731   3.536   2.715  0.2408  0.1561 -0.8340
 7909TIP3    H145142   6.772   3.457   2.681 -0.2561  0.0932 -1.2902
 7909TIP3    H245143   6.639   3.528   2.692  0.2629  1.0905 -1.3079
 7910TIP3   OH245144   4.679   1.383  11.647  0.6435  0.0007  0.3144
 7910TIP3    H145145   4.773   1.372  11.634  0.5843 -0.7678  0.5026
 7910TIP3    H245146   4.646   1.415  11.563  0.4981 -3.3449 -1.0434
 7911TIP3   OH245147   3.410   5.865  15.570 -0.5480 -0.1027 -0.3745
 7911TIP3    H145148   3.468   5.922  15.520  1.1956 -1.0250  0.4951
 7911TIP3    H245149   3.331   5.918  15.586  0.7597  1.8460 -0.0822
 7912TIP3   OH245150   1.234   0.399  16.711  0.1294 -0.0518 -0.1196
 7912TIP3    H145151   1.216   0.443  16.794 -1.1652 -0.5434 -0.1093
 7912TIP3    H245152   1.258   0.310  16.735 -0.9816 -0.4131 -0.2747
 7913TIP3   OH245153   2.094   0.558   4.815  0.4045  0.0058  0.0982
 7913TIP3    H145154   2.059   0.646   4.801 -0.4682 -0.2421  0.6494
 7913TIP3    H245155   2.120   0.557   4.907  0.1206 -0.4016  0.1775
 7914TIP3   OH245156   6.611   2.654   1.455  0.9914  0.5436 -0.4304
 7914TIP3    H145157   6.532   2.704   1.434 -0.6275 -1.5099  0.4201
 7914TIP3    H245158   6.636   2.614   1.372 -0.0000 -0.2925 -0.3390
 7915TIP3   OH245159   0.666   1.138  15.544  0.2225  0.3245 -0.3076
 7915TIP3    H145160   0.705   1.156  15.629 -1.0222 -2.6699  1.0283
 7915TIP3    H245161   0.645   1.225  15.509 -0.9128  1.6700  3.2697
 7916TIP3   OH245162   3.028   2.353   4.235  0.1404  0.3317  0.6408
 7916TIP3    H145163   2.979   2.433   4.216  0.2652  0.0211 -1.2748
 7916TIP3    H245164   3.022   2.303   4.153  3.5521  0.2328  0.3132
 7917TIP3   OH245165   6.758   1.002   5.250  0.8824 -0.2958 -0.3470
 7917TIP3    H145166   6.671   1.039   5.260  0.9630  0.7825 -2.8716
 7917TIP3    H245167   6.756   0.921   5.301 -2.7948 -2.2042 -3.0794
 7918TIP3   OH245168   2.956   3.137  12.842 -0.0333  0.2317  0.3716
 7918TIP3    H145169   3.024   3.124  12.908 -0.0963 -0.7970  0.2536
 7918TIP3    H245170   2.875   3.114  12.887 -0.0721 -0.5223 -0.0646
 7919TIP3   OH245171   2.500   2.224  10.679  0.5712  0.2514 -0.7422
 7919TIP3    H145172   2.595   2.212  10.674  0.3981 -0.8750 -1.6742
 7919TIP3    H245173   2.480   2.279  10.604  0.4457  0.2180 -0.7321
 7920TIP3   OH245174   1.892   5.854  10.674  0.1856  0.1122  0.4573
 7920TIP3    H145175   1.971   5.896  10.708  1.7330  0.1475 -2.7871
 7920TIP3    H245176   1.843   5.926  10.632 -1.0207 -0.1076  1.4404
 7921TIP3   OH245177   4.086   3.512   6.592 -0.5037 -0.8973 -0.1985
 7921TIP3    H145178   4.123   3.424   6.601  1.3787 -0.0364  0.9137
 7921TIP3    H245179   4.157   3.571   6.617 -1.4625  1.0026 -1.7187
 7922TIP3   OH245180   1.560   1.552   2.269 -0.4371 -0.0242  0.2218
 7922TIP3    H145181   1.575   1.646   2.255  0.0409 -0.2597 -0.9260
 7922TIP3    H245182   1.639   1.509   2.236 -0.4392 -0.8171  1.1882
 7923TIP3   OH245183   6.134   5.009   1.130  0.7981 -0.0036  0.2592
 7923TIP3    H145184   6.041   5.003   1.150  0.8051  0.3015  0.4017
 7923TIP3    H245185   6.174   4.936   1.178  0.4383 -1.1703 -1.1585
 7924TIP3   OH245186   4.489   5.619   4.240 -0.4086 -0.0129  0.3024
 7924TIP3    H145187   4.460   5.538   4.282  2.1387  0.6908  3.8080
 7924TIP3    H245188   4.443   5.689   4.287 -0.7994  0.7110 -1.0938
 7925TIP3   OH245189   2.036   0.264  11.964  0.0576  0.0191 -0.0839
 7925TIP3    H145190   2.051   0.258  12.059 -1.6402 -2.3315  0.1445
 7925TIP3    H245191   1.959   0.209  11.949 -0.0620  0.7876 -2.7819
 7926TIP3   OH245192   5.339   0.676   0.157  0.0334 -0.1060  0.5756
 7926TIP3    H145193   5.394   0.742   0.198 -0.5480  0.1484  0.9649
 7926TIP3    H245194   5.251   0.714   0.158  0.2438  0.7049 -2.6067
 7927TIP3   OH245195   2.632   2.041  12.626  0.2140 -0.0150 -0.4490
 7927TIP3    H145196   2.608   2.048  12.533  1.3023  1.1388 -0.6704
 7927TIP3    H245197   2.628   2.131  12.658  0.2867 -0.3511  0.5136
 7928TIP3   OH245198   0.333   6.715  11.706 -0.0311  0.0548 -0.2005
 7928TIP3    H145199   0.248   6.720  11.749 -0.1340 -1.2963 -0.2063
 7928TIP3    H245200   0.379   6.794  11.735 -0.5358 -0.2062  1.4462
 7929TIP3   OH245201   4.982   0.595  14.167 -0.9935 -0.1487 -0.0182
 7929TIP3    H145202   5.061   0.573  14.118  0.3595  0.2919  1.8620
 7929TIP3    H245203   4.953   0.678  14.130 -0.9061 -0.5608 -1.0565
 7930TIP3   OH245204   5.711   4.732   1.861  0.0932  0.1109 -0.4965
 7930TIP3    H145205   5.732   4.805   1.803 -0.3552  1.9883  1.5549
 7930TIP3    H245206   5.796   4.704   1.895  0.1930  0.2715 -0.6112
 7931TIP3   OH245207   0.300   0.366   3.126 -0.3372  0.1656 -0.9597
 7931TIP3    H145208   0.382   0.342   3.169 -0.7775 -0.1866 -0.2999
 7931TIP3    H245209   0.327   0.408   3.044  0.6049  2.7522  0.5477
 7932TIP3   OH245210   6.228   4.560   0.071  0.2719  0.1606  0.1115
 7932TIP3    H145211   6.247   4.523   0.157  1.1625 -0.7248 -0.4408
 7932TIP3    H245212   6.219   4.654   0.087  0.4550  0.0113  1.1677
 7933TIP3   OH245213   5.121   3.672  11.271  0.0647 -1.0650  0.1831
 7933TIP3    H145214   5.200   3.631  11.236  0.0820 -0.7605 -0.1421
 7933TIP3    H245215   5.121   3.649  11.364  0.0946 -1.7603  0.0108
 7934TIP3   OH245216   1.905   6.308   1.833 -0.3511  0.3625  0.0138
 7934TIP3    H145217   1.915   6.388   1.885 -1.3835  0.7739 -0.4097
 7934TIP3    H245218   1.974   6.313   1.767 -0.4931  0.9555 -0.0877
 7935TIP3   OH245219   4.660   6.233   2.729 -0.2550 -0.1940  0.9065
 7935TIP3    H145220   4.637   6.215   2.637 -0.5514 -2.9631  1.4352
 7935TIP3    H245221   4.753   6.254   2.726  0.1285 -1.8094  0.0851
 7936TIP3   OH245222   3.842   3.326  14.896 -0.0003  0.0205 -0.6256
 7936TIP3    H145223   3.851   3.235  14.926 -2.3031 -0.1846 -0.3590
 7936TIP3    H245224   3.931   3.352  14.872  1.3859 -1.1166  2.6552
 7937TIP3   OH245225   0.199   0.491  13.268 -0.3872 -0.3233 -0.0565
 7937TIP3    H145226   0.119   0.438  13.274 -0.2860 -0.4102  0.6162
 7937TIP3    H245227   0.226   0.504  13.359 -0.8930  1.6191 -0.1312
 7938TIP3   OH245228   2.182   3.789  16.158  0.3917 -0.1000  0.4568
 7938TIP3    H145229   2.208   3.875  16.191 -2.0559  1.7037 -1.8753
 7938TIP3    H245230   2.264   3.740  16.151  2.4051  3.1233 -0.9371
 7939TIP3   OH245231   5.088   3.681  12.436 -0.3551 -0.4479  0.2960
 7939TIP3    H145232   5.140   3.644  12.508 -0.3369 -0.2229  0.4006
 7939TIP3    H245233   5.151   3.693  12.365 -0.2370 -0.0838  0.4557
 7940TIP3   OH245234   3.781   0.176  12.454 -0.1401  0.6664 -0.4028
 7940TIP3    H145235   3.859   0.228  12.433  1.8563 -1.3707  1.3499
 7940TIP3    H245236   3.772   0.185  12.549 -1.3876 -0.0171 -0.4400
 7941TIP3   OH245237   5.993   6.167   5.122  0.7703 -0.2481  0.1233
 7941TIP3    H145238   6.041   6.172   5.204  0.1562  0.9894  0.4330
 7941TIP3    H245239   6.060   6.179   5.054  1.2727 -1.2539  0.4283
 7942TIP3   OH245240   1.725   3.909   1.911 -0.7292 -0.1103 -0.0792
 7942TIP3    H145241   1.807   3.860   1.908  1.7491  3.6316  0.0846
 7942TIP3    H245242   1.676   3.879   1.834  1.6998 -1.0204 -1.3639
 7943TIP3   OH245243   3.461   1.403  15.805 -0.1637  0.2181 -0.2250
 7943TIP3    H145244   3.485   1.485  15.761  0.7292 -0.3775 -0.8751
 7943TIP3    H245245   3.418   1.351  15.737 -1.0127  0.2516  0.2670
 7944TIP3   OH245246   5.489   3.520  13.239  0.3106 -0.0294 -0.4263
 7944TIP3    H145247   5.478   3.425  13.251 -0.1703  0.1482  0.6232
 7944TIP3    H245248   5.480   3.556  13.327  0.3008  1.0135 -0.8491
 7945TIP3   OH245249   0.339   3.481  14.994  0.0122 -0.0747 -0.0076
 7945TIP3    H145250   0.373   3.502  15.081  3.2274 -3.4881 -0.2407
 7945TIP3    H245251   0.308   3.391  15.001  0.9506 -0.6752 -2.5072
 7946TIP3   OH245252   4.102   5.489  13.994  0.3031 -0.1203 -0.1711
 7946TIP3    H145253   4.170   5.518  13.933  0.5258 -0.1953  0.0425
 7946TIP3    H245254   4.038   5.561  13.994 -0.0975 -0.4459 -1.0871
 7947TIP3   OH245255   4.845   5.177  11.133 -0.0957  0.4778  0.2134
 7947TIP3    H145256   4.918   5.235  11.111 -0.2757 -0.2918 -2.8734
 7947TIP3    H245257   4.861   5.098  11.081 -3.8616  0.8647 -1.9263
 7948TIP3   OH245258   0.697   1.143   0.927  0.3906  0.0716 -0.2442
 7948TIP3    H145259   0.696   1.069   0.988  1.9333 -0.7539 -1.1366
 7948TIP3    H245260   0.674   1.103   0.842 -0.8637  1.0371 -0.3880
 7949TIP3   OH245261   2.295   5.208  11.445  0.2593 -0.8430  0.4143
 7949TIP3    H145262   2.323   5.299  11.448 -2.9143  0.2303  1.5136
 7949TIP3    H245263   2.312   5.174  11.533  0.9074 -1.1542  0.1743
 7950TIP3   OH245264   5.281   3.908  13.762  0.6381  0.3780 -1.0110
 7950TIP3    H145265   5.213   3.840  13.762  0.1043  0.6484  3.2304
 7950TIP3    H245266   5.361   3.862  13.739 -0.0590 -1.2684 -0.2812
 7951TIP3   OH245267   1.962   2.027  15.220  0.2071  0.2258 -0.3179
 7951TIP3    H145268   2.045   2.018  15.174  0.5608  0.3232  0.2931
 7951TIP3    H245269   1.901   1.974  15.169  0.7619 -0.2769 -0.4751
 7952TIP3   OH245270   3.908   6.413   2.134  0.2148  0.0086 -0.5275
 7952TIP3    H145271   3.902   6.344   2.068  0.3333 -1.8928  1.3396
 7952TIP3    H245272   3.977   6.384   2.194 -1.2514  0.6006  1.5665
 7953TIP3   OH245273   3.325   5.704  17.218  0.0942 -0.4256 -0.9498
 7953TIP3    H145274   3.375   5.665  17.146  1.2521  0.6270 -0.7658
 7953TIP3    H245275   3.388   5.709  17.290 -0.3819  0.5812 -0.5866
 7954TIP3   OH245276   1.439   2.221   5.440 -0.2268 -0.4286 -0.3424
 7954TIP3    H145277   1.365   2.171   5.404 -0.5822 -0.4235  0.3568
 7954TIP3    H245278   1.398   2.298   5.479  0.2148 -0.1264 -0.4722
 7955TIP3   OH245279   0.857   5.583  16.813  0.5972  0.4271  0.0011
 7955TIP3    H145280   0.804   5.511  16.847  0.5225 -0.2195 -1.4208
 7955TIP3    H245281   0.810   5.612  16.734  2.8436 -0.8950 -1.9605
 7956TIP3   OH245282   2.078   3.037   4.639  0.1110  0.1813  0.1048
 7956TIP3    H145283   2.082   3.115   4.694  2.1914  0.5811 -0.5205
 7956TIP3    H245284   2.110   3.066   4.554 -0.2754 -1.0826 -0.5018
 7957TIP3   OH245285   0.980   4.485   1.370 -0.2558  0.2272 -0.0703
 7957TIP3    H145286   0.963   4.505   1.462  0.5262  2.4454 -0.3669
 7957TIP3    H245287   1.052   4.543   1.345 -0.6557 -0.1041 -2.1759
 7958TIP3   OH245288   5.691   3.673   4.518  0.0879 -0.1296 -0.0230
 7958TIP3    H145289   5.596   3.681   4.532  0.1914  1.1233  0.1215
 7958TIP3    H245290   5.702   3.678   4.423  0.0870  1.0206  0.0219
 7959TIP3   OH245291   5.584   3.841   0.758 -0.0450 -0.1549 -0.1665
 7959TIP3    H145292   5.567   3.884   0.842  0.7157  2.9533 -1.4449
 7959TIP3    H245293   5.497   3.826   0.721 -0.3716 -1.0636  0.9181
 7960TIP3   OH245294   4.230   3.214  16.750 -0.1894  0.2198 -0.0930
 7960TIP3    H145295   4.208   3.254  16.834 -0.5172  0.2101 -0.1742
 7960TIP3    H245296   4.308   3.261  16.720 -0.5374  0.7565 -0.1620
 7961TIP3   OH245297   0.984   1.359  15.544 -0.5345  0.2460  0.3598
 7961TIP3    H145298   0.929   1.322  15.475  0.6798 -1.7023  0.3816
 7961TIP3    H245299   1.008   1.285  15.600  0.6902  1.3221  1.3553
 7962TIP3   OH245300   0.058   1.988  17.056  0.2194 -0.8099 -0.3498
 7962TIP3    H145301   0.019   1.934  16.988 -1.3720 -1.0911  0.7280
 7962TIP3    H245302   0.141   1.946  17.076 -0.7120 -2.5476  0.0471
 7963TIP3   OH245303   2.234   6.532  11.754 -0.0242 -0.6364 -0.8616
 7963TIP3    H145304   2.166   6.599  11.753  0.3677 -0.1501  0.8783
 7963TIP3    H245305   2.282   6.545  11.672  0.6619  1.9384 -0.1466
 7964TIP3   OH245306   5.052   3.941   0.550 -0.0460  0.0685  0.4257
 7964TIP3    H145307   5.108   3.902   0.482 -1.1831 -0.8373 -0.0333
 7964TIP3    H245308   4.968   3.956   0.505 -1.2609 -1.7722  1.9119
 7965TIP3   OH245309   0.536   1.255   6.089  0.4721 -0.3249  1.1188
 7965TIP3    H145310   0.478   1.251   6.013  1.1380  0.5722  0.5359
 7965TIP3    H245311   0.623   1.239   6.053  0.8950  0.8472  1.5475
 7966TIP3   OH245312   6.769   3.035  11.959  0.1149 -0.1147  0.3014
 7966TIP3    H145313   6.695   3.022  11.900 -0.3405 -1.3769  1.1122
 7966TIP3    H245314   6.739   3.001  12.043  0.9057  1.2347  1.1695
 7967TIP3   OH245315   2.563   4.518  11.899 -0.2471  0.4708  0.2716
 7967TIP3    H145316   2.596   4.541  11.812  1.3906 -0.9676  0.4720
 7967TIP3    H245317   2.640   4.492  11.949 -1.4131 -0.9028  1.4588
 7968TIP3   OH245318   0.523   5.936  10.440 -0.0017  0.2953 -0.2350
 7968TIP3    H145319   0.608   5.979  10.433  0.2714 -0.0633  0.7766
 7968TIP3    H245320   0.531   5.858  10.383 -0.0284  0.8153 -0.9682
 7969TIP3   OH245321   3.772   4.401  11.262 -0.3065 -0.3089  0.4235
 7969TIP3    H145322   3.692   4.422  11.215 -0.5753 -1.2665  0.4306
 7969TIP3    H245323   3.787   4.308  11.243  1.7364  0.2339 -1.0051
 7970TIP3   OH245324   5.632   2.715   4.434 -0.6134  0.0520  0.2246
 7970TIP3    H145325   5.634   2.620   4.443  0.3669 -0.0980 -1.3207
 7970TIP3    H245326   5.539   2.738   4.447 -0.9097 -1.1344  0.3011
 7971TIP3   OH245327   6.496   5.231   3.314  0.5497 -0.6552 -0.3169
 7971TIP3    H145328   6.590   5.234   3.328  0.3727  0.4703  0.7674
 7971TIP3    H245329   6.475   5.313   3.271 -0.2421  0.3162  1.7556
 7972TIP3   OH245330   5.144   5.498   3.189 -0.3726  0.2418 -0.1117
 7972TIP3    H145331   5.153   5.511   3.095 -1.2644 -2.1012 -0.5907
 7972TIP3    H245332   5.157   5.404   3.202 -2.3604  0.1407  1.8061
 7973TIP3   OH245333   5.182   5.612  13.707 -0.4134  0.1598 -0.0354
 7973TIP3    H145334   5.251   5.661  13.663 -0.6308  0.6797  0.1996
 7973TIP3    H245335   5.106   5.670  13.705 -0.4698  0.1292  0.8928
 7974TIP3   OH245336   3.418   0.796  11.657 -0.2599  0.6981 -0.0089
 7974TIP3    H145337   3.322   0.797  11.653 -0.2907  2.4911  0.2868
 7974TIP3    H245338   3.446   0.797  11.566 -0.4370 -2.3338 -0.2033
 7975TIP3   OH245339   5.936   0.238   1.503  0.1707 -0.4402  0.4568
 7975TIP3    H145340   5.974   0.293   1.434  2.1338 -0.3391  1.5606
 7975TIP3    H245341   5.902   0.301   1.567  2.1159 -0.4584  1.5585
 7976TIP3   OH245342   2.464   2.327   4.269  0.5564 -0.3342  0.3878
 7976TIP3    H145343   2.402   2.397   4.250  2.6238  1.3206 -0.8314
 7976TIP3    H245344   2.541   2.349   4.216  2.4810 -1.8054  2.3784
 7977TIP3   OH245345   2.165   6.540  12.007  0.4599  0.4143 -0.5521
 7977TIP3    H145346   2.199   6.541  11.918  0.7231  0.0048 -0.4587
 7977TIP3    H245347   2.074   6.512  11.998 -0.4534  3.2101 -0.9834
 7978TIP3   OH245348   6.767   6.441  16.218  0.0491  0.3135 -0.6582
 7978TIP3    H145349   6.837   6.392  16.174 -0.2391 -0.9015  0.1920
 7978TIP3    H245350   6.695   6.442  16.154  0.2207  0.0493 -0.8572
 7979TIP3   OH245351   5.254   2.032   5.187 -0.3540 -0.6371  0.0046
 7979TIP3    H145352   5.314   1.992   5.124  1.0959  1.2729  0.0837
 7979TIP3    H245353   5.241   2.121   5.154 -1.3410 -0.3051  1.2209
 7980TIP3   OH245354   1.835   6.591   2.421 -0.0148  0.3462  0.3791
 7980TIP3    H145355   1.889   6.664   2.392 -0.3682  0.6703  0.5373
 7980TIP3    H245356   1.843   6.591   2.516 -1.5712  1.3994  0.5370
 7981TIP3   OH245357   5.803   2.133  13.367  0.8057  0.3126  0.3746
 7981TIP3    H145358   5.769   2.058  13.415 -0.2387 -0.2129 -1.1124
 7981TIP3    H245359   5.841   2.190  13.434 -1.0052 -0.1656  1.8728
 7982TIP3   OH245360   0.800   1.834  11.702 -0.3790 -0.1074  0.4134
 7982TIP3    H145361   0.769   1.885  11.777 -2.8707 -0.1981 -0.4438
 7982TIP3    H245362   0.782   1.889  11.626 -0.4967 -1.1239 -0.3211
 7983TIP3   OH245363   6.438   6.212  13.346 -0.2019  0.2034  0.5162
 7983TIP3    H145364   6.394   6.217  13.262  0.9111  0.6174 -0.0690
 7983TIP3    H245365   6.438   6.302  13.378 -0.6375  0.0450  0.9785
 7984TIP3   OH245366   0.546   1.681   5.010  0.4240 -0.0568 -0.0788
 7984TIP3    H145367   0.595   1.758   4.982  0.4847  0.0292  0.2673
 7984TIP3    H245368   0.460   1.691   4.969  0.4473  0.1691 -0.0722
 7985TIP3   OH245369   3.264   5.201   4.637 -0.1987  0.8252  0.6352
 7985TIP3    H145370   3.359   5.203   4.647 -0.2675  1.1432  1.3368
 7985TIP3    H245371   3.238   5.293   4.644 -0.4424  0.8854 -0.8457
 7986TIP3   OH245372   5.575   1.507   1.035  0.0778 -0.1829  0.3796
 7986TIP3    H145373   5.629   1.582   1.062 -0.2614 -0.0276  0.6279
 7986TIP3    H245374   5.516   1.543   0.969 -0.4877 -0.0891  0.9243
 7987TIP3   OH245375   6.652   0.871  12.654  0.2755  0.0631 -0.1850
 7987TIP3    H145376   6.558   0.887  12.659  0.1069 -0.7547 -0.5953
 7987TIP3    H245377   6.692   0.948  12.694 -0.5687  0.4013  0.0153
 7988TIP3   OH245378   6.090   6.326   0.951  0.1097  0.5629 -0.6312
 7988TIP3    H145379   5.997   6.322   0.931 -0.4259  1.5764  1.4245
 7988TIP3    H245380   6.133   6.328   0.865 -1.6894 -0.5278 -1.6228
 7989TIP3   OH245381   2.783   1.799  11.108  0.2244  0.7799 -0.0774
 7989TIP3    H145382   2.788   1.893  11.126 -1.6635  0.6681  1.3857
 7989TIP3    H245383   2.748   1.794  11.019 -3.9925  1.6512  1.3099
 7990TIP3   OH245384   5.171   2.570   2.975 -0.6200 -0.4707  0.0005
 7990TIP3    H145385   5.111   2.634   3.014 -0.2780  0.9390 -1.6140
 7990TIP3    H245386   5.244   2.565   3.036 -1.1697 -0.1882  0.6998
 7991TIP3   OH245387   1.770   6.020  13.767  0.1010 -0.3414  0.1128
 7991TIP3    H145388   1.702   6.085  13.786  0.4464  0.0002  0.1909
 7991TIP3    H245389   1.722   5.938  13.755 -0.7831  0.5451 -3.7883
 7992TIP3   OH245390   3.240   2.945  15.764  0.1618 -0.1081 -0.2464
 7992TIP3    H145391   3.333   2.943  15.741  0.4448  2.0931  0.4619
 7992TIP3    H245392   3.195   2.939  15.680  0.9773  0.0466 -0.7093
 7993TIP3   OH245393   2.501   5.145  12.238  0.4064 -0.2319 -0.0335
 7993TIP3    H145394   2.434   5.142  12.170  0.1990  1.0724  0.0996
 7993TIP3    H245395   2.559   5.071  12.217  0.4596  0.2480 -1.7428
 7994TIP3   OH245396   2.672   0.228  10.636  0.0328 -0.7173  0.0648
 7994TIP3    H145397   2.635   0.161  10.694 -1.8626  0.9505  0.8814
 7994TIP3    H245398   2.678   0.306  10.690  2.0634 -0.1080 -0.9107
 7995TIP3   OH245399   6.776   6.363  13.081  0.0535 -0.7647  0.1256
 7995TIP3    H145400   6.810   6.277  13.107  2.6388  0.7408  2.2546
 7995TIP3    H245401   6.744   6.401  13.163  1.3093  1.2430 -0.2535
 7996TIP3   OH245402   5.364   0.405   0.218 -0.5376  0.5226  0.0172
 7996TIP3    H145403   5.308   0.477   0.189 -1.3832  0.6615  1.8363
 7996TIP3    H245404   5.448   0.422   0.176 -0.8820  2.2837 -0.0592
 7997TIP3   OH245405   5.682   5.109  16.699  0.2759  0.5983  0.2335
 7997TIP3    H145406   5.605   5.095  16.754  2.0030 -2.0677  2.2456
 7997TIP3    H245407   5.740   5.165  16.751  1.3703 -0.8250  0.6027
 7998TIP3   OH245408   1.190   4.446   6.053 -0.4233  0.0633 -0.1479
 7998TIP3    H145409   1.203   4.463   5.960 -0.9851 -1.5314 -0.5394
 7998TIP3    H245410   1.137   4.367   6.057 -0.2549 -0.0157  1.5370
 7999TIP3   OH245411   2.479   6.552  16.050 -0.3670 -0.0129  0.1318
 7999TIP3    H145412   2.555   6.609  16.050 -0.3904  0.1620  2.6825
 7999TIP3    H245413   2.473   6.519  15.961  0.5357  2.7592 -1.0704
 8000TIP3   OH245414   5.228   4.849  11.302  0.0032 -0.1139 -0.0570
 8000TIP3    H145415   5.262   4.781  11.244  0.6094 -0.5854  0.8220
 8000TIP3    H245416   5.133   4.841  11.295  0.0672 -0.8212 -0.2336
 8001TIP3   OH245417   5.121   1.357  13.207 -0.6833  0.9143  0.0748
 8001TIP3    H145418   5.117   1.383  13.299  0.2423  0.7878  0.1597
 8001TIP3    H245419   5.030   1.356  13.178 -1.0051  0.6716  1.0697
 8002TIP3   OH245420   2.490   0.016   5.451 -0.0443 -0.5629 -0.3399
 8002TIP3    H145421   2.548   0.072   5.503 -0.6167  2.2885 -2.5551
 8002TIP3    H245422   2.410   0.010   5.503  0.2160  0.2540  0.1740
 8003TIP3   OH245423   4.078   4.884   4.141 -0.3644  0.1148 -0.2534
 8003TIP3    H145424   4.139   4.861   4.211 -0.5052  1.8995  0.5156
 8003TIP3    H245425   4.009   4.818   4.148  0.1250 -0.3265  0.6481
 8004TIP3   OH245426   6.293   5.348   2.905  0.0393 -0.1914 -0.1716
 8004TIP3    H145427   6.332   5.302   2.831  0.1411  0.0842 -0.2923
 8004TIP3    H245428   6.225   5.403   2.866 -0.0465 -0.2023 -0.0372
 8005TIP3   OH245429   1.159   2.654   1.185 -0.6148  0.2184  0.4705
 8005TIP3    H145430   1.123   2.662   1.097  1.6809  2.3658 -0.3917
 8005TIP3    H245431   1.197   2.566   1.187  1.5147  0.9918 -1.6795
 8006TIP3   OH245432   5.003   1.429  12.372  0.5675  0.6693 -0.1324
 8006TIP3    H145433   4.964   1.427  12.285  1.1003  2.0418 -0.4340
 8006TIP3    H245434   5.097   1.439  12.357  1.2011 -2.9464  0.5845
 8007TIP3   OH245435   4.032   3.778   2.896 -0.3768  0.0673 -0.3795
 8007TIP3    H145436   3.964   3.717   2.925 -0.8561  1.0226  0.5873
 8007TIP3    H245437   4.051   3.751   2.806  0.6970 -2.6159  0.5319
 8008TIP3   OH245438   3.403   1.885   0.668 -0.4442 -0.1016 -0.0459
 8008TIP3    H145439   3.486   1.850   0.634  0.8747  1.4368  1.4128
 8008TIP3    H245440   3.378   1.824   0.737  0.5312  0.4524  0.8185
 8009TIP3   OH245441   0.414   2.282  14.487  0.6237  0.1601  0.1375
 8009TIP3    H145442   0.400   2.223  14.560  2.0575 -0.6550 -0.2220
 8009TIP3    H245443   0.326   2.316  14.467 -0.5286 -2.9365 -0.5866
 8010TIP3   OH245444   2.911   0.496  15.330 -0.4665 -1.0865 -0.0531
 8010TIP3    H145445   2.871   0.412  15.353 -0.9384 -1.3694 -1.7761
 8010TIP3    H245446   2.903   0.501  15.235 -0.7628  1.0667  0.0368
 8011TIP3   OH245447   0.654   0.972   3.414 -0.5091 -0.6188 -0.3045
 8011TIP3    H145448   0.647   1.053   3.464  0.7845  1.0051 -2.5688
 8011TIP3    H245449   0.564   0.954   3.385 -0.7326  0.2869 -0.1957
 8012TIP3   OH245450   1.075   2.153   4.344 -0.1016 -0.1571 -0.3204
 8012TIP3    H145451   1.009   2.190   4.403  2.4451  4.5707  0.0695
 8012TIP3    H245452   1.042   2.173   4.256  0.0541  0.8625 -0.1660
 8013TIP3   OH245453   3.511   4.198  11.654 -0.0965  0.1176 -0.3326
 8013TIP3    H145454   3.452   4.273  11.660  1.2054  1.1396  0.3405
 8013TIP3    H245455   3.494   4.147  11.732  1.1335  1.3940  0.8337
 8014TIP3   OH245456   1.404   2.425   2.630  0.0133  0.0049  0.6986
 8014TIP3    H145457   1.449   2.475   2.697 -0.4054 -0.1640  1.1134
 8014TIP3    H245458   1.320   2.469   2.619  0.2705  0.3179 -0.0688
 8015TIP3   OH245459   2.575   3.336   1.477  0.2294 -0.8143 -0.4581
 8015TIP3    H145460   2.562   3.369   1.566 -1.2068 -1.9964 -0.1883
 8015TIP3    H245461   2.529   3.399   1.422  0.3563 -0.5603 -0.2773
 8016TIP3   OH245462   0.885   0.104   3.925  0.0017  0.1986 -0.2503
 8016TIP3    H145463   0.898   0.173   3.860 -0.4401  0.5555  0.0353
 8016TIP3    H245464   0.818   0.048   3.887 -0.8405  0.8504  0.2321
 8017TIP3   OH245465   1.099   6.022  11.492 -0.2475 -0.1442 -0.7972
 8017TIP3    H145466   1.099   6.109  11.452  0.1581  0.3141  0.1697
 8017TIP3    H245467   1.008   5.993  11.485 -0.6111  0.7977 -0.2293
 8018TIP3   OH245468   2.651   4.484  14.987 -0.0478  0.1594  0.3254
 8018TIP3    H145469   2.610   4.439  15.061 -1.3448 -0.1667 -0.5671
 8018TIP3    H245470   2.623   4.575  14.995 -1.0324 -0.0739 -0.3147
 8019TIP3   OH245471   4.648   4.586   1.466  0.1959  0.3853 -0.2335
 8019TIP3    H145472   4.689   4.664   1.502  0.7594 -0.1435  0.3047
 8019TIP3    H245473   4.643   4.525   1.540  3.4894 -1.6293 -1.4431
 8020TIP3   OH245474   1.797   6.480   0.168 -0.1740 -0.0147  0.1737
 8020TIP3    H145475   1.869   6.449   0.224  0.9185  2.1251  0.0644
 8020TIP3    H245476   1.827   6.462   0.079  0.0488  0.4598  0.1468
 8021TIP3   OH245477   5.501   3.880  13.415 -0.1437  0.6950 -0.1524
 8021TIP3    H145478   5.427   3.927  13.455  0.0829  1.2562 -0.3795
 8021TIP3    H245479   5.471   3.789  13.410 -0.9665  0.9750 -0.5754
 8022TIP3   OH245480   4.011   5.930   2.580 -0.0293  0.2966  0.0219
 8022TIP3    H145481   3.969   5.950   2.664  1.7677 -0.7288  1.2308
 8022TIP3    H245482   3.945   5.882   2.531 -0.5991 -0.4948  1.4977
 8023TIP3   OH245483   6.202   5.287   4.311  0.8666  0.4373  0.4625
 8023TIP3    H145484   6.278   5.345   4.310  2.3267 -1.3739 -0.9470
 8023TIP3    H245485   6.236   5.202   4.340 -0.1903 -0.8431 -1.7399
 8024TIP3   OH245486   5.448   3.335  16.241 -0.0142  0.0769 -0.1001
 8024TIP3    H145487   5.358   3.363  16.225  0.2256  0.3956 -0.9073
 8024TIP3    H245488   5.453   3.325  16.336 -1.0173 -0.3507 -0.0760
 8025TIP3   OH245489   4.021   2.827  14.836 -0.3164 -0.1845  0.1675
 8025TIP3    H145490   4.006   2.758  14.771  0.0092 -1.6296  1.5840
 8025TIP3    H245491   4.103   2.868  14.807 -1.4610  0.8883 -1.7263
 8026TIP3   OH245492   2.801   0.663  15.803  0.2818  0.8788 -0.1113
 8026TIP3    H145493   2.748   0.594  15.764 -0.6229  1.2821  0.3612
 8026TIP3    H245494   2.832   0.626  15.886 -0.5427  1.1598  0.3380
 8027TIP3   OH245495   3.484   6.466  16.133  0.2199  0.3084 -0.5065
 8027TIP3    H145496   3.568   6.458  16.177 -0.0439  1.9993  0.3956
 8027TIP3    H245497   3.419   6.454  16.202 -0.2180  1.9372 -0.5916
 8028TIP3   OH245498   4.763   5.112  12.291 -0.7323 -0.6660  0.0440
 8028TIP3    H145499   4.836   5.117  12.230 -0.1762  0.9753  0.7965
 8028TIP3    H245500   4.734   5.021  12.287  0.4759 -1.0117 -1.2717
 8029TIP3   OH245501   5.697   3.746   3.536 -0.0001  0.1751  0.1914
 8029TIP3    H145502   5.699   3.651   3.527 -0.2154  0.1716  0.1740
 8029TIP3    H245503   5.781   3.776   3.500 -1.1881  0.2529 -2.8086
 8030TIP3   OH245504   6.296   5.308  13.550 -0.1803 -0.3175 -0.2960
 8030TIP3    H145505   6.272   5.384  13.603  0.8310 -0.5544  0.5284
 8030TIP3    H245506   6.389   5.296  13.566  0.3616  0.0465 -2.7032
 8031TIP3   OH245507   6.607   5.323  14.931  0.2630  0.0822 -0.5180
 8031TIP3    H145508   6.678   5.329  14.995  0.8077 -0.8706 -0.9959
 8031TIP3    H245509   6.618   5.401  14.876 -1.3702  1.9471  1.6190
 8032TIP3   OH245510   6.322   2.464   2.925  0.4380 -0.2061 -0.4267
 8032TIP3    H145511   6.391   2.417   2.971 -0.4422 -1.8739 -0.7145
 8032TIP3    H245512   6.336   2.444   2.832  2.0691  2.9468 -1.0080
 8033TIP3   OH245513   0.318   2.621  11.770  0.0398  0.6090  0.2210
 8033TIP3    H145514   0.276   2.668  11.698 -0.6112  1.0673  0.8827
 8033TIP3    H245515   0.320   2.530  11.742  0.9417  0.9428 -0.9055
 8034TIP3   OH245516   2.220   2.229  14.316 -0.0043  0.2065  0.3171
 8034TIP3    H145517   2.149   2.277  14.273  1.2259  2.1645  0.3417
 8034TIP3    H245518   2.285   2.216  14.247 -0.1810 -1.2030  0.3939
 8035TIP3   OH245519   1.016   5.071   4.778 -0.0261 -0.0251 -0.1310
 8035TIP3    H145520   1.085   5.127   4.813 -0.0106 -0.0472 -0.1262
 8035TIP3    H245521   1.061   4.991   4.752 -0.1533 -0.3144  0.5146
 8036TIP3   OH245522   3.334   1.082  14.981 -0.1468 -0.2731  0.0860
 8036TIP3    H145523   3.281   1.056  15.057 -0.5715 -1.2200 -0.5207
 8036TIP3    H245524   3.310   1.173  14.965 -0.7896 -0.3706  0.4778
 8037TIP3   OH245525   0.499   2.876  14.479  0.5049  0.2200  0.1543
 8037TIP3    H145526   0.527   2.846  14.392 -0.4683 -1.0418  0.2515
 8037TIP3    H245527   0.532   2.810  14.539  0.1627  0.4715  0.6254
 8038TIP3   OH245528   4.130   0.060   2.408  0.0149 -0.2782  0.0731
 8038TIP3    H145529   4.148  -0.017   2.462  0.9398 -0.7804 -0.9085
 8038TIP3    H245530   4.216   0.096   2.389 -0.4495  1.8807  1.6977
 8039TIP3   OH245531   2.115   6.536   6.695  0.5453 -0.4614  0.7296
 8039TIP3    H145532   2.122   6.443   6.674  1.9493  0.0175 -1.2156
 8039TIP3    H245533   2.149   6.543   6.784 -2.9999 -2.2243  2.3922
 8040TIP3   OH245534   5.244   4.348  15.051  0.2769  0.2939 -0.0189
 8040TIP3    H145535   5.209   4.293  14.981 -0.4655  2.0231 -1.0760
 8040TIP3    H245536   5.272   4.428  15.007  1.9870  0.5107  1.3725
 8041TIP3   OH245537   2.019   1.323  16.580 -0.1153 -0.6487 -0.1725
 8041TIP3    H145538   1.950   1.277  16.629 -0.5818  1.5030  1.3702
 8041TIP3    H245539   1.980   1.408  16.559  1.3144 -0.2328 -1.3058
 8042TIP3   OH245540   3.916   5.527   6.149 -0.1048 -0.4322 -0.7389
 8042TIP3    H145541   3.832   5.491   6.120 -0.8317 -1.7256  2.5545
 8042TIP3    H245542   3.899   5.620   6.163 -0.8873 -0.6023 -0.5147
 8043TIP3   OH245543   0.754   6.750   4.136  0.0565 -0.4864 -0.0266
 8043TIP3    H145544   0.754   6.691   4.062  1.7953  0.0598 -0.5073
 8043TIP3    H245545   0.810   6.823   4.109  0.7958 -0.3077  1.8323
 8044TIP3   OH245546   2.795   4.348   0.874 -0.1130 -0.4248 -0.4356
 8044TIP3    H145547   2.725   4.300   0.829  1.3410 -0.1570 -3.2348
 8044TIP3    H245548   2.847   4.387   0.803  2.3240  0.1949  1.5294
 8045TIP3   OH245549   6.477   5.574   4.500 -0.0996 -0.4524  0.0678
 8045TIP3    H145550   6.557   5.528   4.476  2.7728  0.9299  5.3985
 8045TIP3    H245551   6.498   5.667   4.487 -1.8353 -0.1475 -0.7623
 8046TIP3   OH245552   5.687   0.503   4.793 -0.0207 -0.2131 -0.3812
 8046TIP3    H145553   5.728   0.493   4.707  1.1576 -0.5115  0.2029
 8046TIP3    H245554   5.637   0.422   4.805 -1.1148  0.3044 -1.2494
 8047TIP3   OH245555   6.353   2.181   5.733 -0.0452 -0.2362  0.1340
 8047TIP3    H145556   6.439   2.199   5.695 -0.6662  2.4490 -0.2033
 8047TIP3    H245557   6.337   2.255   5.792 -1.9204 -0.9186  0.5543
 8048TIP3   OH245558   1.395   2.222  15.274  0.2303 -0.0582 -0.4319
 8048TIP3    H145559   1.359   2.146  15.318 -1.4892  1.9597  1.9753
 8048TIP3    H245560   1.422   2.280  15.345  0.3393  2.0702 -2.0981
 8049TIP3   OH245561   1.177   0.425  14.766  0.3855  0.7717 -0.8745
 8049TIP3    H145562   1.225   0.494  14.720  1.3408  0.5109 -0.2958
 8049TIP3    H245563   1.230   0.406  14.843 -0.0542 -0.3609 -0.8308
 8050TIP3   OH245564   2.863   6.045   5.384 -0.4946  0.5289 -0.2231
 8050TIP3    H145565   2.866   6.085   5.471  0.7539  1.7995 -0.8125
 8050TIP3    H245566   2.797   6.096   5.337 -0.8789  0.1061 -0.1415
 8051TIP3   OH245567   1.142   4.960   0.464  0.0525  0.4773  0.2895
 8051TIP3    H145568   1.141   4.880   0.411 -0.4229 -0.2565  1.3620
 8051TIP3    H245569   1.131   4.929   0.554  0.3357  1.7266  0.7738
 8052TIP3   OH245570   0.057   5.895  15.403 -0.2166 -0.5622 -0.1286
 8052TIP3    H145571   0.054   5.827  15.471 -0.0362  1.0126  1.5507
 8052TIP3    H245572  -0.023   5.946  15.418 -0.4236 -0.4755 -1.4579
 8053TIP3   OH245573   1.334   4.020  12.437  0.0500  0.0556 -0.5481
 8053TIP3    H145574   1.398   3.952  12.419  0.9598  0.4441  1.0184
 8053TIP3    H245575   1.261   3.974  12.478  1.9252  0.2283  3.4612
 8054TIP3   OH245576   0.773   1.709  15.813 -0.0485 -0.5869  0.0021
 8054TIP3    H145577   0.859   1.750  15.820 -0.4057 -0.0346  1.4267
 8054TIP3    H245578   0.788   1.618  15.838 -0.2988  0.0992  2.9171
 8055TIP3   OH245579   6.664   3.656  17.124  1.4244 -0.3942 -0.2667
 8055TIP3    H145580   6.608   3.579  17.126  1.3915 -0.3932 -0.9265
 8055TIP3    H245581   6.619   3.720  17.179  0.2883 -0.0693 -1.5124
 8056TIP3   OH245582   1.973   4.089  13.272 -0.5008  0.5320  0.1558
 8056TIP3    H145583   2.052   4.139  13.252  0.0803 -0.5257 -0.2565
 8056TIP3    H245584   1.901   4.148  13.250  0.0504 -0.0194 -4.0753
 8057TIP3   OH245585   1.842   6.287  13.309  0.0967 -1.0602  0.0538
 8057TIP3    H145586   1.806   6.215  13.360 -0.0185 -1.6235 -0.7876
 8057TIP3    H245587   1.827   6.261  13.218  1.3371 -0.6292 -0.2862
 8058TIP3   OH245588   6.515   6.158   3.187  0.0302  0.0625 -0.1241
 8058TIP3    H145589   6.605   6.129   3.173  0.4433  2.0703 -2.4239
 8058TIP3    H245590   6.509   6.173   3.281  1.3734 -2.1691  0.3997
 8059TIP3   OH245591   5.979   5.063  16.021  0.1157  0.3140 -0.1263
 8059TIP3    H145592   6.048   4.999  16.001 -1.1130 -0.9294 -0.4909
 8059TIP3    H245593   5.958   5.047  16.113 -0.6680 -0.2825 -0.4040
 8060TIP3   OH245594   0.275   0.086  15.361 -0.6993 -0.7785  0.7824
 8060TIP3    H145595   0.330   0.096  15.438  0.8992  1.0490 -0.4884
 8060TIP3    H245596   0.247   0.175  15.340 -1.7721 -1.3345 -0.2774
 8061TIP3   OH245597   3.821   6.380   0.747  0.4817 -0.4349  0.2155
 8061TIP3    H145598   3.741   6.330   0.732  1.6463 -1.9505 -1.2991
 8061TIP3    H245599   3.806   6.424   0.831 -2.7451  1.0085 -0.9318
 8062TIP3   OH245600   0.240   5.368  11.528  0.3786 -0.1517 -0.0570
 8062TIP3    H145601   0.243   5.463  11.542 -2.1476  0.1515 -1.1702
 8062TIP3    H245602   0.300   5.352  11.455 -0.0596  0.7482 -0.6193
 8063TIP3   OH245603   4.787   6.110  13.657 -0.5948 -0.5322  0.3054
 8063TIP3    H145604   4.846   6.119  13.732  1.8720 -0.1676 -1.5573
 8063TIP3    H245605   4.749   6.197  13.645  0.9562  0.0834 -0.3415
 8064TIP3   OH245606   0.148   1.223   5.472  0.8073  0.5226 -0.4926
 8064TIP3    H145607   0.172   1.233   5.380  0.0735 -0.6306 -0.8406
 8064TIP3    H245608   0.211   1.160   5.507 -0.3430 -0.8774 -0.8549
 8065TIP3   OH245609   4.575   6.703   3.181  0.3372  0.3701  0.0795
 8065TIP3    H145610   4.539   6.649   3.251 -1.6117  1.1284 -0.2770
 8065TIP3    H245611   4.624   6.642   3.126 -0.1452 -0.6726  0.7784
 8066TIP3   OH245612   4.812   6.042   3.325  0.1865 -0.3018  0.2657
 8066TIP3    H145613   4.795   6.106   3.395  0.7302 -0.2079  0.3168
 8066TIP3    H245614   4.726   6.022   3.290 -0.0049  0.3486  0.3495
 8067TIP3   OH245615   3.861   5.605   1.172 -0.2641 -0.5306  0.4836
 8067TIP3    H145616   3.917   5.682   1.183 -1.8783  0.8733 -0.5431
 8067TIP3    H245617   3.870   5.582   1.080 -2.6988  0.8862 -0.1852
 8068TIP3   OH245618   3.357   5.495   2.363 -0.0474  0.2500 -0.3131
 8068TIP3    H145619   3.271   5.509   2.401 -0.6571 -0.0062 -1.5804
 8068TIP3    H245620   3.341   5.468   2.273  1.2475 -2.3567  0.1300
 8069TIP3   OH245621   0.961   2.826  15.199  0.0112 -0.4101 -0.1274
 8069TIP3    H145622   0.884   2.773  15.182  0.3233 -2.2542  3.3188
 8069TIP3    H245623   1.034   2.763  15.199  0.5011 -0.0117  3.2725
 8070TIP3   OH245624   0.195   4.485  12.145 -0.0064 -0.1073 -0.2602
 8070TIP3    H145625   0.118   4.501  12.091  0.1057 -1.3492 -0.8128
 8070TIP3    H245626   0.160   4.467  12.233 -0.2894  0.1906 -0.3124
 8071TIP3   OH245627   5.940   1.317  16.137  0.4517 -0.0245 -0.4527
 8071TIP3    H145628   6.014   1.367  16.171 -0.0531  0.5435 -0.1951
 8071TIP3    H245629   5.961   1.226  16.159  0.1691  0.3140  1.3130
 8072TIP3   OH245630   3.946   6.134   4.957  0.0725  0.4030  0.2852
 8072TIP3    H145631   3.996   6.181   4.890  0.3693 -0.2097  0.0607
 8072TIP3    H245632   3.963   6.041   4.938 -0.8290  0.1969  0.4640
 8073TIP3   OH245633   6.437   2.221   3.839 -0.4617 -0.3833 -0.0676
 8073TIP3    H145634   6.460   2.314   3.840  1.4425 -0.7935 -0.4624
 8073TIP3    H245635   6.410   2.201   3.928 -1.3480  0.6508 -0.0965
 8074TIP3   OH245636   5.072   3.986  10.733  0.1026 -0.2786  0.2309
 8074TIP3    H145637   5.008   3.984  10.662 -1.3360 -1.1363  1.4850
 8074TIP3    H245638   5.081   3.895  10.760  1.0230 -0.0302  0.8259
 8075TIP3   OH245639   6.264   4.716  13.401  0.6579  0.5232  0.4553
 8075TIP3    H145640   6.331   4.782  13.382  1.0738 -0.0862 -0.2807
 8075TIP3    H245641   6.181   4.761  13.387  0.9188  1.1834  1.0061
 8076TIP3   OH245642   6.507   5.843  15.721  0.1694 -0.5128  0.5734
 8076TIP3    H145643   6.438   5.907  15.702  1.1032  0.0223 -1.2880
 8076TIP3    H245644   6.587   5.895  15.725  0.9462 -1.5117 -0.9679
 8077TIP3   OH245645   3.519   3.114  14.918 -0.2688  0.2265  0.8712
 8077TIP3    H145646   3.438   3.070  14.892 -1.1851  1.8748  0.8305
 8077TIP3    H245647   3.588   3.056  14.886 -1.3909 -1.7377  1.8223
 8078TIP3   OH245648   3.698   5.052   1.149 -0.4138  0.1142 -0.1309
 8078TIP3    H145649   3.716   4.984   1.084  1.1134 -0.2228  0.6055
 8078TIP3    H245650   3.670   5.128   1.098  0.1885 -0.3244 -1.1308
 8079TIP3   OH245651   2.188   0.764   3.539  0.1430 -0.3138  0.2567
 8079TIP3    H145652   2.185   0.684   3.592  1.0594  0.8667  2.2091
 8079TIP3    H245653   2.217   0.832   3.600 -1.2265  1.6661 -1.1722
 8080TIP3   OH245654   2.344   6.407  12.275  0.2124  0.0253  0.0003
 8080TIP3    H145655   2.307   6.423  12.189  0.7109  1.9430  0.0811
 8080TIP3    H245656   2.275   6.363  12.324 -1.8690  3.0427  0.0167
 8081TIP3   OH245657   0.139   0.273  16.946 -0.2398 -0.1390 -0.2585
 8081TIP3    H145658   0.220   0.252  16.993 -1.9165 -2.5543  1.8880
 8081TIP3    H245659   0.109   0.355  16.986  0.3297 -0.1156  0.1323
 8082TIP3   OH245660   3.133   5.572   4.117  0.1823  0.0056  0.4039
 8082TIP3    H145661   3.137   5.493   4.064  0.9204  0.2031  0.1586
 8082TIP3    H245662   3.138   5.540   4.207  0.5247 -0.2191  0.3048
 8083TIP3   OH245663   4.118   1.306   2.238  0.3301  0.1004 -0.5029
 8083TIP3    H145664   4.066   1.352   2.172  1.2721  1.1034 -0.5630
 8083TIP3    H245665   4.202   1.351   2.239  0.4953 -0.1869  1.0669
 8084TIP3   OH245666   4.191   4.840   0.652 -0.3535 -0.1466 -0.0815
 8084TIP3    H145667   4.215   4.917   0.703  1.6991 -0.9522  0.2902
 8084TIP3    H245668   4.225   4.766   0.703 -0.3604 -1.1403 -1.4466
 8085TIP3   OH245669   3.204   4.376   1.514  0.0101  0.1204  0.5088
 8085TIP3    H145670   3.229   4.464   1.486 -2.2058  0.3127 -1.0880
 8085TIP3    H245671   3.112   4.368   1.490 -0.6051 -1.7025  3.0566
 8086TIP3   OH245672   4.878   6.389  12.809 -0.4990  0.1636 -0.2252
 8086TIP3    H145673   4.966   6.406  12.774  0.0379 -0.3301  0.8214
 8086TIP3    H245674   4.844   6.476  12.831  1.0024  0.2368  2.2502
 8087TIP3   OH245675   4.065   6.327  16.969 -0.3183  0.5315  0.1094
 8087TIP3    H145676   4.155   6.299  16.951 -0.3120  0.1627  0.6937
 8087TIP3    H245677   4.048   6.297  17.058 -0.7186  1.3642  0.3266
 8088TIP3   OH245678   1.440   1.578  11.734  0.6971 -0.0325 -0.1961
 8088TIP3    H145679   1.349   1.565  11.762  0.2508  0.7991 -1.1641
 8088TIP3    H245680   1.485   1.497  11.759 -0.2335 -0.3222  0.5937
 8089TIP3   OH245681   3.662   3.511   0.901 -0.0424 -0.8412 -0.2367
 8089TIP3    H145682   3.613   3.468   0.970 -1.1218  0.5068 -0.1236
 8089TIP3    H245683   3.721   3.571   0.946 -2.2365  1.6304 -0.4241
 8090TIP3   OH245684   1.137   3.957   3.048 -0.1604 -0.4693  0.1365
 8090TIP3    H145685   1.089   3.948   2.965  1.0088  0.9040 -0.7481
 8090TIP3    H245686   1.157   3.867   3.074 -2.7785 -1.0737  0.3272
 8091TIP3   OH245687   2.976   6.695   0.329 -0.4951  0.2067 -0.5799
 8091TIP3    H145688   2.951   6.735   0.413  1.1336  0.8168 -0.3640
 8091TIP3    H245689   2.946   6.758   0.264  0.1057  0.7500 -0.3435
 8092TIP3   OH245690   6.192   4.709   4.922  0.0531  0.3464 -0.8189
 8092TIP3    H145691   6.258   4.773   4.896 -2.0828  2.5056 -1.3232
 8092TIP3    H245692   6.155   4.744   5.004 -0.2469 -0.9962 -0.3443
 8093TIP3   OH245693   5.633   1.859   1.501  0.0886  0.1245  0.4590
 8093TIP3    H145694   5.668   1.788   1.448 -0.9623 -0.4287  0.4844
 8093TIP3    H245695   5.630   1.934   1.442 -1.8986 -0.6999 -0.5835
 8094TIP3   OH245696   0.882   6.265   0.473 -0.8383  0.4559  0.7523
 8094TIP3    H145697   0.838   6.179   0.478 -1.3765  0.5500 -1.3248
 8094TIP3    H245698   0.885   6.284   0.379  2.4479  1.1246  0.8930
 8095TIP3   OH245699   5.960   2.142   1.132  0.1613  0.4340 -0.2530
 8095TIP3    H145700   5.899   2.197   1.181  0.9951 -0.3735  1.8283
 8095TIP3    H245701   6.036   2.198   1.116 -0.4166  0.9290 -1.3403
 8096TIP3   OH245702   4.923   0.463   1.195 -0.0228 -0.0829 -0.6148
 8096TIP3    H145703   4.925   0.510   1.111  0.2097  0.2840 -0.4066
 8096TIP3    H245704   4.947   0.529   1.260  0.6153 -0.5679 -0.3544
 8097TIP3   OH245705   3.186   4.374  16.446  0.6363 -0.1166 -0.4542
 8097TIP3    H145706   3.269   4.390  16.402  1.3828  1.0085  1.2545
 8097TIP3    H245707   3.155   4.461  16.471 -0.0565 -0.6597  0.6601
 8098TIP3   OH245708   1.342   0.384   4.118  0.0945 -0.2163 -0.0569
 8098TIP3    H145709   1.415   0.332   4.150 -0.1865 -1.5971 -1.5308
 8098TIP3    H245710   1.265   0.329   4.133 -0.7302  1.3054  1.6759
 8099TIP3   OH245711   2.036   5.407  12.820 -0.1189  0.1314 -0.2317
 8099TIP3    H145712   2.026   5.331  12.763 -2.9331 -0.4145  0.8239
 8099TIP3    H245713   2.024   5.372  12.908  2.8090  1.1696  0.6660
 8100TIP3   OH245714   6.345   2.570   1.731  0.2447  0.7311  0.0201
 8100TIP3    H145715   6.338   2.518   1.811 -0.6674 -2.2042 -1.8158
 8100TIP3    H245716   6.433   2.550   1.697 -0.0871  0.3572 -0.6593
 8101TIP3   OH245717   3.279   0.155  11.583 -0.5262  0.9507 -0.0955
 8101TIP3    H145718   3.194   0.115  11.599 -1.2123  1.7606 -1.5624
 8101TIP3    H245719   3.287   0.223  11.649  0.6365 -1.3895  2.4200
 8102TIP3   OH245720   1.955   3.698   5.589  0.1502  0.4515 -0.4200
 8102TIP3    H145721   1.909   3.709   5.672  1.0714  0.4106  0.1150
 8102TIP3    H245722   1.899   3.741   5.524 -2.2424 -2.2562 -0.3675
 8103TIP3   OH245723   3.609   3.192  14.254  0.6580  0.2227 -0.2589
 8103TIP3    H145724   3.626   3.279  14.290  2.5735 -0.3235  0.2413
 8103TIP3    H245725   3.617   3.133  14.328  2.3937 -0.6739 -1.0990
 8104TIP3   OH245726   5.913   3.016  14.823 -0.4013  0.0358 -0.0027
 8104TIP3    H145727   5.985   3.016  14.887  0.0280 -0.1846 -0.4746
 8104TIP3    H245728   5.834   3.025  14.876 -0.1752 -1.8231  0.7130
 8105TIP3   OH245729   0.447   0.352   1.188  0.2824  0.2748 -0.3478
 8105TIP3    H145730   0.505   0.419   1.223  1.2166 -0.5544 -0.2660
 8105TIP3    H245731   0.365   0.398   1.170  1.1071  1.5793 -0.9286
 8106TIP3   OH245732   3.646   2.587  16.238  0.6699  0.1541  0.2380
 8106TIP3    H145733   3.717   2.532  16.204 -0.5603 -0.5664 -1.2526
 8106TIP3    H245734   3.577   2.525  16.262  0.4768  0.8558  1.5640
 8107TIP3   OH245735   5.664   3.488   5.096 -0.2982  0.5596 -0.4061
 8107TIP3    H145736   5.598   3.550   5.128 -0.5022  0.0092  0.2826
 8107TIP3    H245737   5.678   3.513   5.005 -1.5695  0.6162 -0.6155
 8108TIP3   OH245738   1.778   2.783  11.865  0.4237  0.4297 -0.0561
 8108TIP3    H145739   1.780   2.739  11.950 -0.0042  1.5437  0.5573
 8108TIP3    H245740   1.806   2.716  11.802 -0.8035 -0.8882  0.7514
 8109TIP3   OH245741   3.656   4.817   5.601  0.0236 -0.1394 -0.1365
 8109TIP3    H145742   3.692   4.869   5.673  1.2796 -0.0330 -0.8102
 8109TIP3    H245743   3.732   4.779   5.558 -0.5784  0.6656 -2.0634
 8110TIP3   OH245744   6.722   1.136   2.561  0.2014  0.2088  0.1117
 8110TIP3    H145745   6.637   1.144   2.604 -0.1658 -1.5374 -0.2474
 8110TIP3    H245746   6.760   1.224   2.567 -2.2411  1.4415 -1.0416
 8111TIP3   OH245747   1.213   1.883   0.582  0.2955  0.1281  0.3883
 8111TIP3    H145748   1.120   1.904   0.572  0.2741  0.0897  0.5111
 8111TIP3    H245749   1.249   1.897   0.494 -0.4871 -3.2085 -0.6150
 8112TIP3   OH245750   6.311   3.785   5.150  0.3902 -0.0222  0.3579
 8112TIP3    H145751   6.357   3.702   5.150 -0.1062 -0.3024  0.2932
 8112TIP3    H245752   6.218   3.761   5.144  0.2557  0.5381  0.1108
 8113TIP3   OH245753   2.051   3.815  15.763  0.3749 -0.0631 -0.3929
 8113TIP3    H145754   2.091   3.740  15.807 -1.6850 -1.6975 -1.1241
 8113TIP3    H245755   2.114   3.839  15.694  0.8068 -1.5570 -0.5564
 8114TIP3   OH245756   0.581   6.049   0.323  0.0132 -0.4523  0.1848
 8114TIP3    H145757   0.505   6.075   0.271 -1.1332 -2.5637  0.7184
 8114TIP3    H245758   0.576   6.103   0.402  0.0573  0.5942 -0.4967
 8115TIP3   OH245759   0.588   2.716   2.684 -0.6415 -0.2357 -0.2718
 8115TIP3    H145760   0.564   2.693   2.774 -0.4087  0.8425  0.0766
 8115TIP3    H245761   0.544   2.799   2.668 -0.7982 -0.4911 -1.2162
 8116TIP3   OH245762   5.770   3.914   1.247  0.8957 -0.1895 -1.4716
 8116TIP3    H145763   5.843   3.957   1.203  0.8152 -0.5482 -1.9587
 8116TIP3    H245764   5.715   3.879   1.176 -0.7943  1.7315 -1.2151
 8117TIP3   OH245765   0.229   4.746   4.568  0.5409 -0.4616 -0.0809
 8117TIP3    H145766   0.280   4.737   4.649 -2.1061 -0.5174  1.6964
 8117TIP3    H245767   0.193   4.834   4.572 -1.2264 -1.1422 -0.1402
 8118TIP3   OH245768   4.118   1.077  14.620 -0.4264 -0.5903 -0.1770
 8118TIP3    H145769   4.056   1.027  14.673 -1.4247  0.1629 -0.6148
 8118TIP3    H245770   4.146   1.015  14.552 -0.8260 -0.8759 -0.0837
 8119TIP3   OH245771   6.571   6.321  14.613 -0.3475  1.2795 -0.0017
 8119TIP3    H145772   6.552   6.240  14.660  2.4457 -0.0599 -0.9622
 8119TIP3    H245773   6.503   6.326  14.546  0.2116 -1.1040 -0.8397
 8120TIP3   OH245774   6.765   1.469   2.372  0.4503  0.4692 -0.8058
 8120TIP3    H145775   6.859   1.488   2.369  0.2984  2.0522  1.6078
 8120TIP3    H245776   6.748   1.450   2.464 -1.6969  0.8365 -1.0926
 8121TIP3   OH245777   2.048   6.507  13.200 -0.8529 -0.2852 -0.3326
 8121TIP3    H145778   2.069   6.491  13.292  0.6575  0.8165 -0.4359
 8121TIP3    H245779   1.953   6.496  13.194 -1.3267  1.7944  1.8379
 8122TIP3   OH245780   0.300   0.448  13.764 -0.7198  0.1075  0.5130
 8122TIP3    H145781   0.214   0.484  13.743 -0.4395  0.0574 -0.7914
 8122TIP3    H245782   0.335   0.508  13.830 -1.0754  1.0962 -0.1649
 8123TIP3   OH245783   0.219   2.587   2.815  0.6491 -0.3044  0.3913
 8123TIP3    H145784   0.208   2.569   2.722  0.3384 -0.8555  0.5252
 8123TIP3    H245785   0.131   2.613   2.844  1.0675  1.4298  0.2213
 8124TIP3   OH245786   0.348   0.580   1.360  0.1917 -0.2615 -0.0868
 8124TIP3    H145787   0.404   0.523   1.413 -0.5876 -0.9056  0.0680
 8124TIP3    H245788   0.325   0.653   1.418 -1.0517 -1.2027  0.6751
 8125TIP3   OH245789   4.462   4.113   2.700  0.1102 -0.2358  0.0723
 8125TIP3    H145790   4.511   4.037   2.669 -0.5913 -0.3755 -0.7277
 8125TIP3    H245791   4.428   4.154   2.621  0.1217  0.6743  0.5235
 8126TIP3   OH245792   3.551   3.749  13.683  0.4252  0.2184  0.3804
 8126TIP3    H145793   3.563   3.697  13.763  0.1921 -0.2242  0.1331
 8126TIP3    H245794   3.483   3.813  13.706 -1.7108 -1.6870 -0.2644
 8127TIP3   OH245795   1.636   6.352   0.335  0.3996  0.1449 -0.7326
 8127TIP3    H145796   1.607   6.283   0.275  1.2445 -0.8471 -0.0242
 8127TIP3    H245797   1.680   6.416   0.278  0.5885 -0.4464 -1.2639
 8128TIP3   OH245798   2.484   5.991  12.942 -0.4343 -0.5063  0.5947
 8128TIP3    H145799   2.474   5.955  12.854  0.3340 -0.8256  0.6321
 8128TIP3    H245800   2.468   5.917  13.001 -1.7183 -0.1282  0.7673
 8129TIP3   OH245801   3.257   6.704   5.885  0.0420  0.0386  0.5381
 8129TIP3    H145802   3.165   6.705   5.860 -0.2317  0.9471  1.5041
 8129TIP3    H245803   3.289   6.791   5.858  0.7169 -0.3923 -0.1025
 8130TIP3   OH245804   2.400   4.485   0.745 -0.2095  0.7026  0.4064
 8130TIP3    H145805   2.430   4.504   0.833 -3.0839 -1.8911  2.1605
 8130TIP3    H245806   2.403   4.389   0.739  0.5650  0.8222 -2.6165
 8131TIP3   OH245807   3.863   6.298   2.617 -0.1406 -0.1841  0.2125
 8131TIP3    H145808   3.871   6.216   2.666  1.0178 -0.1664  0.0643
 8131TIP3    H245809   3.829   6.361   2.681 -0.2373 -0.5707  0.5448
 8132TIP3   OH245810   6.308   3.814   1.712  0.4259  0.4256 -0.5334
 8132TIP3    H145811   6.340   3.730   1.680 -0.0393  0.8886 -2.3118
 8132TIP3    H245812   6.212   3.803   1.715  0.4769 -0.0580  2.1520
 8133TIP3   OH245813   4.674   2.814  13.896  0.1301 -0.6277 -0.5080
 8133TIP3    H145814   4.635   2.781  13.977  0.5087  1.5763  0.6281
 8133TIP3    H245815   4.666   2.741  13.834 -1.2260 -1.9580  1.1534
 8134TIP3   OH245816   4.770   6.524   4.696 -0.3123  0.1205  0.1030
 8134TIP3    H145817   4.706   6.467   4.739 -0.7526 -0.6116 -1.4303
 8134TIP3    H245818   4.855   6.488   4.721 -0.5804 -0.9927 -0.5126
 8135TIP3   OH245819   4.599   0.443  14.032 -0.0605  0.2755 -0.3827
 8135TIP3    H145820   4.582   0.436  14.125  0.6157 -1.1777 -0.3422
 8135TIP3    H245821   4.599   0.537  14.014 -0.2070  0.5654  1.0619
 8136TIP3   OH245822   4.527   1.128  16.330 -1.1094  0.2613 -0.3881
 8136TIP3    H145823   4.447   1.078  16.314 -0.8225  0.1949 -1.7001
 8136TIP3    H245824   4.572   1.130  16.246 -0.7518  2.1174 -0.1980
 8137TIP3   OH245825   0.992   6.526   4.962 -0.0747 -0.2699  0.0716
 8137TIP3    H145826   0.898   6.508   4.957 -0.7288  2.9556 -2.1013
 8137TIP3    H245827   0.999   6.605   5.015  1.6003 -1.1431  1.2443
 8138TIP3   OH245828   3.441   6.116   4.729 -0.7144 -0.3260  0.3668
 8138TIP3    H145829   3.397   6.061   4.793  0.1979  0.8233  2.0489
 8138TIP3    H245830   3.525   6.137   4.769  0.1738 -0.1064 -1.5062
 8139TIP3   OH245831   1.964   1.596  16.646  0.2702  0.3445 -0.0367
 8139TIP3    H145832   2.018   1.586  16.724  0.3590  2.1287  0.1832
 8139TIP3    H245833   1.874   1.588  16.678  0.2211  2.7708  0.6319
 8140TIP3   OH245834   2.180   1.268  16.071 -0.0485  0.6003  0.3136
 8140TIP3    H145835   2.198   1.229  15.985 -0.7708 -1.9100  1.2315
 8140TIP3    H245836   2.267   1.278  16.111  0.1113 -1.7686  0.6999
 8141TIP3   OH245837   3.608   0.126   0.994 -0.4222  0.5962 -0.3213
 8141TIP3    H145838   3.605   0.048   0.939 -0.2316  0.0925  0.3711
 8141TIP3    H245839   3.543   0.185   0.956 -1.4554 -0.3877 -0.1389
 8142TIP3   OH245840   1.345   4.649  16.625 -0.2046 -0.6315  0.0483
 8142TIP3    H145841   1.410   4.714  16.600 -1.2379  0.2685 -0.3631
 8142TIP3    H245842   1.396   4.569  16.641  0.9718  0.0048 -0.4105
 8143TIP3   OH245843   1.147   3.560  12.636  0.2389 -0.4413  0.6331
 8143TIP3    H145844   1.067   3.594  12.675  0.8254  0.2134  1.2900
 8143TIP3    H245845   1.166   3.619  12.563  0.5907 -0.0662  1.0203
 8144TIP3   OH245846   5.906   4.868   3.798 -0.3685  0.1524 -0.4629
 8144TIP3    H145847   5.857   4.804   3.746  0.6363 -0.7697 -0.3327
 8144TIP3    H245848   5.932   4.935   3.735  1.3990 -1.2858 -1.3657
 8145TIP3   OH245849   2.847   4.567   0.307 -0.2187 -1.2738  0.3567
 8145TIP3    H145850   2.816   4.479   0.285 -1.5746 -0.8128  0.2891
 8145TIP3    H245851   2.898   4.594   0.231 -1.1899 -1.3791 -0.3517
 8146TIP3   OH245852   1.946   5.166  12.729  0.0889  0.0910  0.2269
 8146TIP3    H145853   1.908   5.128  12.650  1.2414 -1.8021  0.5197
 8146TIP3    H245854   1.933   5.099  12.796 -0.4284  1.4575  1.5554
 8147TIP3   OH245855   4.223   6.753   1.868 -0.1447  0.0221  0.0237
 8147TIP3    H145856   4.163   6.706   1.810 -0.7894 -0.4999  1.0755
 8147TIP3    H245857   4.205   6.717   1.955  0.2514  1.3248  0.6737
 8148TIP3   OH245858   6.113   1.580   1.882 -0.1529 -0.4200 -0.0273
 8148TIP3    H145859   6.130   1.674   1.876  0.7321 -0.5967 -0.4950
 8148TIP3    H245860   6.112   1.550   1.791 -0.8576 -0.7954  0.0979
 8149TIP3   OH245861   6.487   1.740   6.573  0.5298  0.0720  0.1114
 8149TIP3    H145862   6.535   1.692   6.641 -0.1111 -1.6720 -0.5994
 8149TIP3    H245863   6.434   1.673   6.530  0.2325  1.2937 -1.5131
 8150TIP3   OH245864   6.447   5.959  14.960  0.4981  0.1137  0.4826
 8150TIP3    H145865   6.542   5.950  14.949  0.3653 -1.5075  0.4390
 8150TIP3    H245866   6.434   5.959  15.054  0.2766 -3.9214  0.6010
 8151TIP3   OH245867   1.479   5.198   1.676  0.9537 -0.3832  0.1074
 8151TIP3    H145868   1.432   5.243   1.746  0.9057  0.8850 -0.7217
 8151TIP3    H245869   1.436   5.112   1.671 -1.3473  0.7385 -0.6636
 8152TIP3   OH245870   0.171   0.970  11.697 -0.5272 -0.4863 -0.5338
 8152TIP3    H145871   0.088   1.001  11.663 -1.3087 -0.4939  1.2278
 8152TIP3    H245872   0.225   1.049  11.705 -1.0075 -0.2021 -0.0235
 8153TIP3   OH245873   4.737   6.760  17.147  0.1475  0.6041 -0.6869
 8153TIP3    H145874   4.701   6.673  17.130 -2.1565  1.4714 -0.5761
 8153TIP3    H245875   4.711   6.812  17.070 -0.0468  1.6064  0.0379
 8154TIP3   OH245876   4.277   5.025  14.351 -0.0724  0.6439 -0.2991
 8154TIP3    H145877   4.338   4.975  14.404  1.3253  1.4565 -1.0773
 8154TIP3    H245878   4.194   4.978  14.358  0.6884 -0.6088  0.6123
 8155TIP3   OH245879   2.027   1.513   2.376  0.0094 -0.1026  0.4685
 8155TIP3    H145880   2.037   1.435   2.430  1.7082  0.0205  0.3962
 8155TIP3    H245881   2.107   1.516   2.324 -0.1935  1.4828  0.1982
 8156TIP3   OH245882   0.665   4.122   5.523  0.0502 -0.2963  0.4571
 8156TIP3    H145883   0.586   4.070   5.515 -0.2084 -0.0598  1.3462
 8156TIP3    H245884   0.662   4.157   5.612  0.9013  0.1226  0.3346
 8157TIP3   OH245885   3.704   2.033  13.117  0.3521  0.3558  0.1985
 8157TIP3    H145886   3.688   1.943  13.144 -0.4495  0.4809  0.1813
 8157TIP3    H245887   3.634   2.083  13.158  0.9642  1.0185  0.4501
 8158TIP3   OH245888   4.753   2.706  14.768  0.1142  0.2708 -0.2176
 8158TIP3    H145889   4.671   2.684  14.812 -0.7883 -0.2276 -2.0253
 8158TIP3    H245890   4.767   2.798  14.788 -0.4247  0.1381  0.8284
 8159TIP3   OH245891   5.004   3.416   1.751 -0.7279 -0.0146 -0.1148
 8159TIP3    H145892   4.966   3.503   1.760  1.1001  0.7756  0.3683
 8159TIP3    H245893   5.016   3.404   1.657  1.3799  1.3808 -0.0884
 8160TIP3   OH245894   0.793   3.805   1.541 -0.4942 -0.3254  0.7720
 8160TIP3    H145895   0.858   3.822   1.610 -0.2141  1.1521  0.1859
 8160TIP3    H245896   0.709   3.805   1.588 -0.1872 -0.9261  1.3398
 8161TIP3   OH245897   2.514   3.130   0.737  0.3826 -0.7262  1.1936
 8161TIP3    H145898   2.433   3.165   0.699 -1.4593 -3.3383  2.4277
 8161TIP3    H245899   2.541   3.198   0.799  0.0792  0.9026 -0.3535
 8162TIP3   OH245900   2.840   6.643   0.896  0.0555 -0.2016  0.0293
 8162TIP3    H145901   2.765   6.585   0.878 -1.1897  1.6343 -1.0582
 8162TIP3    H245902   2.892   6.595   0.960 -1.9909 -1.6243  0.7534
 8163TIP3   OH245903   6.534   6.152   0.834 -0.3783  0.3712 -0.7009
 8163TIP3    H145904   6.599   6.169   0.902 -0.0979  1.8077 -1.2712
 8163TIP3    H245905   6.455   6.197   0.865 -0.4263  0.5173 -1.0312
 8164TIP3   OH245906   3.367   5.182  14.570  0.2425  0.0510 -0.8061
 8164TIP3    H145907   3.320   5.257  14.535  0.6889  0.2568 -0.9663
 8164TIP3    H245908   3.459   5.198  14.549  0.2932 -0.7690 -1.2643
 8165TIP3   OH245909   2.377   0.921   5.491 -0.0020 -0.0819  0.4127
 8165TIP3    H145910   2.292   0.888   5.518 -0.6000  0.7536 -0.3977
 8165TIP3    H245911   2.416   0.848   5.442 -2.1739  0.9006 -3.1983
 8166TIP3   OH245912   6.524   0.716  16.874 -0.2392  0.3302  0.3295
 8166TIP3    H145913   6.563   0.803  16.870  0.1918  0.1180 -0.1238
 8166TIP3    H245914   6.556   0.679  16.957 -1.3962  1.0473  1.1415
 8167TIP3   OH245915   3.975   1.904   3.922 -0.1454  0.3855  0.1045
 8167TIP3    H145916   3.954   1.934   3.834  0.4127 -1.1370 -0.5910
 8167TIP3    H245917   4.024   1.976   3.962 -1.3791  1.5350 -0.4161
 8168TIP3   OH245918   4.783   6.178  13.279  0.2673  0.4181 -0.1498
 8168TIP3    H145919   4.820   6.266  13.291 -0.8031  0.8174  0.4967
 8168TIP3    H245920   4.857   6.119  13.288  0.4615  0.9952  3.8264
 8169TIP3   OH245921   5.008   2.587  16.802  0.2617  0.1497  0.6301
 8169TIP3    H145922   5.089   2.535  16.801  0.3298  0.2527  0.7828
 8169TIP3    H245923   4.959   2.552  16.876 -0.3562 -0.7095 -0.1646
 8170TIP3   OH245924   5.492   2.958  11.971  0.0290  0.2617 -0.2568
 8170TIP3    H145925   5.401   2.985  11.959 -0.1284 -0.7643 -1.5896
 8170TIP3    H245926   5.487   2.865  11.993  0.7755 -0.0774 -1.4351
 8171TIP3   OH245927   5.369   6.053  12.374  0.1533  0.0107 -0.1518
 8171TIP3    H145928   5.382   5.958  12.369  0.9196  0.0037  1.3359
 8171TIP3    H245929   5.277   6.064  12.398 -0.1812 -0.3049 -1.2255
 8172TIP3   OH245930   0.429   5.186   2.174 -0.4493  0.0172 -0.2536
 8172TIP3    H145931   0.465   5.128   2.241  0.1192 -1.7738 -2.0151
 8172TIP3    H245932   0.353   5.139   2.139  0.0530  0.2700 -1.7766
 8173TIP3   OH245933   4.258   6.381  11.933 -0.2919  0.5391 -0.6928
 8173TIP3    H145934   4.236   6.447  11.867 -1.9933  0.6333 -0.0687
 8173TIP3    H245935   4.178   6.330  11.944  0.1708  0.0896  0.8020
 8174TIP3   OH245936   2.000   6.037   0.459  0.0783 -0.4203  0.0648
 8174TIP3    H145937   1.978   6.044   0.367  0.0195 -0.7340  0.0553
 8174TIP3    H245938   1.945   6.102   0.502 -0.1778 -0.5463 -0.0726
 8175TIP3   OH245939   4.851   4.904  17.092  0.1526 -0.6036 -0.2098
 8175TIP3    H145940   4.940   4.933  17.111  0.9664 -2.1922 -1.3742
 8175TIP3    H245941   4.809   4.980  17.050 -0.3763  1.5273  3.6979
 8176TIP3   OH245942   5.355   0.498  11.740 -0.4394  0.3103  0.0327
 8176TIP3    H145943   5.299   0.455  11.676  0.0384  0.0955 -0.2502
 8176TIP3    H245944   5.374   0.430  11.804 -0.4001  0.3461  0.0584
 8177TIP3   OH245945   2.975   0.699  13.346 -0.0881  0.2731 -0.3955
 8177TIP3    H145946   2.880   0.711  13.344 -0.0492  0.9389  0.9093
 8177TIP3    H245947   2.997   0.671  13.257 -1.4866  0.2002 -0.7456
 8178TIP3   OH245948   0.902   1.193   5.454  0.2287  0.0677 -0.2210
 8178TIP3    H145949   0.997   1.204   5.442  0.1560  0.3628 -0.5312
 8178TIP3    H245950   0.890   1.099   5.465  0.6140  0.0736  0.2908
 8179TIP3   OH245951   4.583   2.803  12.223 -0.4662 -0.3760 -0.2710
 8179TIP3    H145952   4.661   2.749  12.233  0.3780  0.6358 -1.2241
 8179TIP3    H245953   4.510   2.743  12.240  0.5220 -0.7490  3.2790
 8180TIP3   OH245954   1.236   5.313  13.205 -0.5710 -0.1892 -0.1468
 8180TIP3    H145955   1.313   5.292  13.259  0.1612  1.2297 -0.5806
 8180TIP3    H245956   1.240   5.250  13.133  1.0015  0.6895 -0.8957
 8181TIP3   OH245957   2.262   4.634  12.261  0.4666 -0.7762 -0.2537
 8181TIP3    H145958   2.287   4.554  12.215 -0.4525 -0.6134 -1.0518
 8181TIP3    H245959   2.205   4.605  12.332 -0.5112 -0.7661 -1.0267
 8182TIP3   OH245960   3.001   2.917  13.356  0.3446 -0.4723 -0.0128
 8182TIP3    H145961   3.057   2.852  13.399  0.7168 -0.6695 -0.7772
 8182TIP3    H245962   3.044   3.001  13.373  0.8249 -0.6124 -0.5096
 8183TIP3   OH245963   5.159   4.767   4.285 -0.4440 -0.3062  0.1786
 8183TIP3    H145964   5.120   4.715   4.356 -1.5587 -1.2683 -1.0763
 8183TIP3    H245965   5.246   4.729   4.272 -0.6374 -0.8197  0.3422
 8184TIP3   OH245966   3.420   0.211   4.928  0.4416 -0.4549  0.1416
 8184TIP3    H145967   3.356   0.282   4.924  2.0600  1.0281 -0.5083
 8184TIP3    H245968   3.417   0.170   4.842  1.9697  1.1236 -0.7060
 8185TIP3   OH245969   6.711   6.594   0.102  0.0086 -0.3575 -0.6324
 8185TIP3    H145970   6.799   6.617   0.131  0.2172 -0.9733 -0.7653
 8185TIP3    H245971   6.653   6.645   0.159  0.3852 -2.1176  1.4395
 8186TIP3   OH245972   3.037   3.506  14.476 -0.2965 -0.6325 -0.0507
 8186TIP3    H145973   2.987   3.424  14.468 -0.4067 -0.6011  0.2860
 8186TIP3    H245974   2.984   3.571  14.430 -1.6353 -0.1425  2.0100
 8187TIP3   OH245975   2.946   2.830  16.501 -0.8537  0.5904 -0.2483
 8187TIP3    H145976   2.968   2.900  16.564  2.6154 -0.1056 -0.5177
 8187TIP3    H245977   2.914   2.758  16.556 -0.5939  0.9881  0.4460
 8188TIP3   OH245978   1.060   1.295  12.813  0.0325  0.2097  0.1165
 8188TIP3    H145979   0.994   1.250  12.761  1.0918 -0.8433 -0.3676
 8188TIP3    H245980   1.143   1.257  12.784  0.6982 -0.1552  2.3005
 8189TIP3   OH245981   0.143   4.516   2.548  0.1581  0.2471 -0.0562
 8189TIP3    H145982   0.098   4.443   2.592 -0.0848 -0.2230 -1.0368
 8189TIP3    H245983   0.088   4.592   2.564  0.4448  0.2402  1.0346
 8190TIP3   OH245984   5.052   6.400   2.847  0.2497  0.0793 -0.0083
 8190TIP3    H145985   4.972   6.388   2.898 -0.4448  0.1839 -1.0596
 8190TIP3    H245986   5.083   6.488   2.871 -0.3799  0.3526 -0.1740
 8191TIP3   OH245987   4.610   6.369   1.055  0.4481 -0.2579  0.0947
 8191TIP3    H145988   4.641   6.420   1.130  0.4511 -0.1514  0.0210
 8191TIP3    H245989   4.607   6.432   0.983  2.4671 -0.7948 -0.5367
 8192TIP3   OH245990   4.333   5.793   3.928 -0.3681 -0.2552 -0.3465
 8192TIP3    H145991   4.259   5.762   3.875 -0.8705 -0.7293  0.6092
 8192TIP3    H245992   4.295   5.814   4.013  0.5350 -0.1108  0.0361
 8193TIP3   OH245993   3.037   0.555   2.685 -0.5319  0.2680  0.4378
 8193TIP3    H145994   3.045   0.643   2.721 -0.7700  0.8230 -0.7833
 8193TIP3    H245995   2.945   0.547   2.660 -0.5351 -0.3704  0.6151
 8194TIP3   OH245996   0.807   1.925   6.041 -0.0492 -0.3392 -0.1075
 8194TIP3    H145997   0.838   1.860   5.977 -0.1900 -0.7834  0.2769
 8194TIP3    H245998   0.717   1.944   6.014  0.2970  0.4342 -0.8040
 8195TIP3   OH245999   3.433   6.152  15.511  0.3011 -0.3880  0.4967
 8195TIP3    H146000   3.411   6.112  15.427  1.0494  1.0364 -0.4165
 8195TIP3    H246001   3.349   6.178  15.549  0.0631  0.8806 -0.8261
 8196TIP3   OH246002   4.259   2.537  13.248  0.4561  0.5042  0.2561
 8196TIP3    H146003   4.223   2.556  13.161  0.5955  0.7661  0.2529
 8196TIP3    H246004   4.203   2.469  13.283  0.3724  0.4269 -0.0248
 8197TIP3   OH246005   1.784   2.282  11.536  0.0863 -0.1257 -0.5072
 8197TIP3    H146006   1.834   2.294  11.617 -0.4604 -0.4286 -0.1157
 8197TIP3    H246007   1.847   2.246  11.474  1.2869  2.7787 -1.1361
 8198TIP3   OH246008   2.542   2.377  13.448  0.5041 -0.1978 -0.2290
 8198TIP3    H146009   2.477   2.392  13.516  0.7633 -1.1168  0.2401
 8198TIP3    H246010   2.525   2.288  13.417  2.4257 -1.0459  0.9398
 8199TIP3   OH246011   0.099   3.832   0.135 -0.5548 -0.1079 -0.0543
 8199TIP3    H146012   0.035   3.848   0.205 -0.6949  1.1307 -0.4472
 8199TIP3    H246013   0.152   3.759   0.168 -1.8512 -0.8414  0.4828
 8200TIP3   OH246014   3.478   2.994  13.564 -0.2903  0.6912  0.1064
 8200TIP3    H146015   3.465   3.084  13.594  0.7453  0.3771  1.6037
 8200TIP3    H246016   3.559   2.966  13.607  0.3874 -0.3809 -1.7360
 8201TIP3   OH246017   4.484   3.246  10.813  0.3155 -0.4044 -0.1802
 8201TIP3    H146018   4.393   3.257  10.839  0.1720 -0.7860 -0.5030
 8201TIP3    H246019   4.531   3.230  10.894  0.0757 -0.3027 -0.0212
 8202TIP3   OH246020   1.572   4.447   4.883  0.8147  0.3317  0.3458
 8202TIP3    H146021   1.625   4.387   4.830  0.8013  1.3086 -0.8150
 8202TIP3    H246022   1.534   4.391   4.950  0.8137 -0.9716 -0.6866
 8203TIP3   OH246023   5.937   0.347   5.228  0.0098  0.7070 -0.0628
 8203TIP3    H146024   5.906   0.300   5.151 -2.9846  0.5500  1.1080
 8203TIP3    H246025   5.939   0.439   5.202  0.8539  0.4764 -0.8457
 8204TIP3   OH246026   1.956   3.882  12.342 -0.3234 -0.0410 -0.3981
 8204TIP3    H146027   2.042   3.900  12.303 -0.6758 -1.1640 -1.8022
 8204TIP3    H246028   1.894   3.908  12.274 -1.1263  1.1449  0.7627
 8205TIP3   OH246029   1.281   1.594   3.661  0.1590  0.4098  0.3515
 8205TIP3    H146030   1.249   1.514   3.702  0.0498  0.1593 -0.2043
 8205TIP3    H246031   1.285   1.573   3.568 -0.0120  1.0998  0.1812
 8206TIP3   OH246032   3.796   2.389  14.232 -0.1120  0.1966 -0.1440
 8206TIP3    H146033   3.792   2.420  14.141  0.1367 -1.7395 -0.8473
 8206TIP3    H246034   3.880   2.343  14.238  1.4593  3.0176  2.0399
 8207TIP3   OH246035   1.746   1.606  11.555 -0.0405  0.2193 -0.7108
 8207TIP3    H146036   1.733   1.661  11.478  0.0113  0.2768 -0.6793
 8207TIP3    H246037   1.658   1.595  11.592  0.1136  1.4668  0.0831
 8208TIP3   OH246038   3.254   2.771   4.472 -0.1551  0.1399 -0.1945
 8208TIP3    H146039   3.274   2.852   4.427  0.7596 -0.0981 -0.2326
 8208TIP3    H246040   3.338   2.741   4.507 -0.4981 -0.7291 -0.0826
 8209TIP3   OH246041   5.136   0.229  12.071  0.0840 -0.1852 -0.0853
 8209TIP3    H146042   5.117   0.189  11.986 -0.7209 -0.9910  0.4521
 8209TIP3    H246043   5.192   0.165  12.115  0.7930  0.3909 -0.1264
 8210TIP3   OH246044   2.308   6.509  15.650 -0.0386 -1.0265 -0.0645
 8210TIP3    H146045   2.312   6.451  15.574 -0.5049 -2.6980  1.1274
 8210TIP3    H246046   2.374   6.474  15.710  0.0775  0.0480  0.4564
 8211TIP3   OH246047   5.629   4.275   0.305 -0.3501  0.1663 -0.4097
 8211TIP3    H146048   5.601   4.265   0.214 -1.1603 -0.8410 -0.0744
 8211TIP3    H246049   5.725   4.274   0.301 -0.3351 -2.1286 -1.0801
 8212TIP3   OH246050   2.234   1.279  12.094  0.8171 -0.0084 -0.1574
 8212TIP3    H146051   2.275   1.342  12.152  2.1094 -0.7758 -0.1889
 8212TIP3    H246052   2.240   1.196  12.140 -1.3020 -0.0646  0.0984
 8213TIP3   OH246053   0.257   3.323   2.019 -0.7107  0.2108  0.1228
 8213TIP3    H146054   0.305   3.268   1.957  1.7132  1.0848  1.0922
 8213TIP3    H246055   0.228   3.262   2.087 -0.8008 -0.3030 -0.3607
 8214TIP3   OH246056   2.520   1.709   4.491  0.7663  0.1165  0.0647
 8214TIP3    H146057   2.601   1.751   4.519 -0.2617  2.5994 -0.4244
 8214TIP3    H246058   2.452   1.774   4.508 -0.9344 -1.3160 -0.9092
 8215TIP3   OH246059   2.963   6.114  11.253  0.1671 -0.0705  0.1638
 8215TIP3    H146060   2.921   6.046  11.306 -1.2536 -2.0329 -3.1550
 8215TIP3    H246061   3.053   6.085  11.243  0.2022 -0.1682  0.7199
 8216TIP3   OH246062   1.765   3.387   5.611  0.0593  0.2289  0.6172
 8216TIP3    H146063   1.807   3.365   5.694  0.3939  0.1192  0.4204
 8216TIP3    H246064   1.695   3.448   5.635 -0.3901 -0.4536  1.0852
 8217TIP3   OH246065   0.396   6.172   1.979 -0.2323  0.4078 -0.0881
 8217TIP3    H146066   0.387   6.148   2.071 -1.1288  1.3988  0.1096
 8217TIP3    H246067   0.306   6.168   1.945  0.3789 -2.6656 -1.6686
 8218TIP3   OH246068   1.753   4.539  12.132 -0.7393  0.4416  0.6080
 8218TIP3    H146069   1.661   4.533  12.154 -0.2025 -0.9781  2.7596
 8218TIP3    H246070   1.798   4.541  12.216  1.1983  1.5254 -0.3762
 8219TIP3   OH246071   3.084   1.748  11.777 -0.0601 -0.1320  0.3492
 8219TIP3    H146072   3.120   1.821  11.828 -1.7071 -0.2665  1.7947
 8219TIP3    H246073   3.135   1.672  11.805  0.7106  0.2136 -0.0934
 8220TIP3   OH246074   0.537   3.883   2.934 -0.1063  0.3948  0.0813
 8220TIP3    H146075   0.625   3.918   2.949  0.2238  0.2043 -1.2620
 8220TIP3    H246076   0.546   3.789   2.946  0.4344  0.0897 -2.2019
 8221TIP3   OH246077   4.827   3.121  14.171  0.8876 -0.1591 -0.4133
 8221TIP3    H146078   4.773   3.129  14.093  0.4283  0.6004 -0.0179
 8221TIP3    H246079   4.802   3.036  14.208  0.1946  0.0476 -0.4002
 8222TIP3   OH246080   2.377   1.182  14.759 -0.3127  0.2956 -0.0346
 8222TIP3    H146081   2.424   1.132  14.826 -1.6618  2.1461  2.4651
 8222TIP3    H246082   2.375   1.124  14.683  0.6854 -2.2467  1.7347
 8223TIP3   OH246083   4.577   0.159   0.877  0.3693  0.0200 -0.3020
 8223TIP3    H146084   4.518   0.130   0.946  0.4009 -2.2477 -1.1113
 8223TIP3    H246085   4.618   0.238   0.911 -0.9217 -0.0258  1.5007
 8224TIP3   OH246086   1.795   5.336   1.664  0.6107 -0.1358  0.2445
 8224TIP3    H146087   1.733   5.384   1.718  1.0717  0.9847 -0.1980
 8224TIP3    H246088   1.781   5.244   1.687  0.2013  0.2546  1.6115
 8225TIP3   OH246089   5.290   6.257   5.279  0.2218  0.0949 -1.0896
 8225TIP3    H146090   5.323   6.200   5.210  0.5178  0.3091 -1.1307
 8225TIP3    H246091   5.277   6.341   5.236  0.3335  0.2081 -0.9047
 8226TIP3   OH246092   1.289   2.783  15.103 -0.0629  0.3115  0.8032
 8226TIP3    H146093   1.326   2.698  15.125  0.0107  0.1783  0.1988
 8226TIP3    H246094   1.364   2.843  15.102  0.0747  0.1444  0.0898
 8227TIP3   OH246095   5.224   3.726   2.786 -0.2496 -0.0646 -0.0976
 8227TIP3    H146096   5.258   3.645   2.822 -0.9570 -0.9222 -1.2959
 8227TIP3    H246097   5.295   3.759   2.731 -0.5294 -0.7212 -0.8734
 8228TIP3   OH246098   3.761   3.896  16.796  0.3530 -0.2152 -0.4371
 8228TIP3    H146099   3.701   3.836  16.752 -1.1957  0.0958  1.1310
 8228TIP3    H246100   3.776   3.966  16.732 -1.6839  0.1417 -0.5940
 8229TIP3   OH246101   1.193   5.147  12.964  0.3500  0.1627 -0.4286
 8229TIP3    H146102   1.206   5.080  13.031  0.1480  0.4622 -0.0843
 8229TIP3    H246103   1.279   5.187  12.952  0.3035  0.3858 -0.0446
 8230TIP3   OH246104   3.865   0.068   0.955 -0.2581 -0.3440 -0.0600
 8230TIP3    H146105   3.782   0.116   0.960  0.3725  0.7167  0.8403
 8230TIP3    H246106   3.853  -0.007   1.013 -0.6115 -0.2247  0.0212
 8231TIP3   OH246107   2.408   4.904  15.803 -0.7672 -0.7789  0.5525
 8231TIP3    H146108   2.330   4.953  15.831  0.5492  1.8193 -0.0137
 8231TIP3    H246109   2.481   4.947  15.848  0.5827 -1.6742 -0.7006
 8232TIP3   OH246110   1.545   0.432   0.003  0.2915  0.1444 -0.3624
 8232TIP3    H146111   1.480   0.473   0.060  0.1699 -1.3344  0.6068
 8232TIP3    H246112   1.629   0.463   0.037  0.1797  2.9692 -2.3079
 8233TIP3   OH246113   1.438   3.867   4.720  0.5083  0.2392  0.2075
 8233TIP3    H146114   1.520   3.872   4.671  0.9145  0.9044  0.9382
 8233TIP3    H246115   1.376   3.920   4.670  1.2088  1.8080  0.9478
 8234TIP3   OH246116   0.113   4.718   1.018  0.1059  0.0919 -0.0518
 8234TIP3    H146117   0.075   4.673   1.093 -0.6908  1.1296  0.1962
 8234TIP3    H246118   0.040   4.769   0.982  0.3434 -0.7012 -1.7965
 8235TIP3   OH246119   2.210   5.363   4.564 -0.3121  0.1331  0.9617
 8235TIP3    H146120   2.173   5.415   4.493  1.6994  0.1781 -0.1309
 8235TIP3    H246121   2.192   5.272   4.538  2.1091  0.0378 -0.7376
 8236TIP3   OH246122   4.675   4.012  15.473  0.0052 -0.0437 -0.1666
 8236TIP3    H146123   4.727   3.981  15.399 -0.6774 -0.9094 -0.2923
 8236TIP3    H246124   4.679   4.107  15.467  1.6321 -0.0786 -0.1290
 8237TIP3   OH246125   3.358   0.904   3.116  0.1134 -0.0171  0.2594
 8237TIP3    H146126   3.341   0.973   3.052 -0.3525 -1.7493 -1.5934
 8237TIP3    H246127   3.453   0.888   3.109  0.4035  1.0619  1.4134
 8238TIP3   OH246128   3.839   3.520   4.514  0.3393 -0.8037  0.5297
 8238TIP3    H146129   3.927   3.526   4.479 -0.4093  1.1835 -1.2733
 8238TIP3    H246130   3.847   3.548   4.605  1.3741  0.9106 -0.0506
 8239TIP3   OH246131   2.336   1.164   3.269  0.3447 -0.0399 -0.4216
 8239TIP3    H146132   2.263   1.122   3.225  0.2598 -1.2033  0.7781
 8239TIP3    H246133   2.300   1.246   3.303  0.0371  0.1656 -1.2256
 8240TIP3   OH246134   5.468   0.775  15.191 -0.2414 -0.5334 -0.1684
 8240TIP3    H146135   5.489   0.781  15.285 -0.4995  1.6242 -0.1996
 8240TIP3    H246136   5.482   0.683  15.170  1.4142 -0.7774  1.6226
 8241TIP3   OH246137   3.621   1.500   1.211 -0.1604 -0.4362  0.5507
 8241TIP3    H146138   3.638   1.450   1.131  0.6476 -0.4393  0.7133
 8241TIP3    H246139   3.554   1.564   1.186 -0.0163 -0.5277 -0.0928
 8242TIP3   OH246140   0.177   2.920   1.002  0.0818  0.3077 -0.3191
 8242TIP3    H146141   0.129   2.842   1.031  2.5082 -0.2744  2.6555
 8242TIP3    H246142   0.219   2.893   0.921 -1.6403 -0.3309 -1.0585
 8243TIP3   OH246143   3.391   1.791   3.838  0.1542 -0.0122  0.1397
 8243TIP3    H146144   3.348   1.862   3.886  0.5635  1.2128 -1.2376
 8243TIP3    H246145   3.407   1.827   3.751  3.2747 -0.6183  0.3237
 8244TIP3   OH246146   0.637   3.217   1.048  0.2693 -0.6075  0.0244
 8244TIP3    H146147   0.677   3.253   1.127  0.8831 -2.6884  0.7246
 8244TIP3    H246148   0.710   3.179   0.999 -0.0755  0.7177 -1.6547
 8245TIP3   OH246149   1.352   2.371  11.411  0.6208 -0.1014 -0.5070
 8245TIP3    H146150   1.338   2.321  11.331 -2.1356  0.1429 -0.2884
 8245TIP3    H246151   1.299   2.325  11.477  0.7566  1.1831  0.5283
 8246TIP3   OH246152   2.512   0.998  14.926  0.0670 -0.9449 -0.4520
 8246TIP3    H146153   2.556   0.943  14.862  0.2711  1.2722 -2.3864
 8246TIP3    H246154   2.580   1.021  14.989 -0.0443 -2.8860  0.4155
 8247TIP3   OH246155   0.744   5.717   1.305  0.6390 -0.0494 -0.0293
 8247TIP3    H146156   0.787   5.643   1.349  1.0825  0.8539  1.1174
 8247TIP3    H246157   0.675   5.677   1.253  0.9210 -1.2863  0.5015
 8248TIP3   OH246158   3.329   4.182   6.241 -0.0585 -0.3085 -0.5906
 8248TIP3    H146159   3.382   4.259   6.223 -0.1207  0.4050  1.9198
 8248TIP3    H246160   3.239   4.210   6.223  0.0800 -0.4888 -1.6623
 8249TIP3   OH246161   1.047   5.772   2.210  0.1767 -0.5291  0.0593
 8249TIP3    H146162   1.126   5.746   2.258  1.0344 -0.0052 -1.0450
 8249TIP3    H246163   1.066   5.860   2.178 -0.3421 -0.8985 -1.3171
 8250TIP3   OH246164   2.136   5.748   4.582  0.1255  0.0927 -0.3086
 8250TIP3    H146165   2.196   5.786   4.647 -0.2347  1.6541 -0.8582
 8250TIP3    H246166   2.141   5.807   4.507 -1.9660  0.1773 -0.4395
 8251TIP3   OH246167   3.582   5.442   2.716 -0.3229  0.0202  0.0888
 8251TIP3    H146168   3.517   5.506   2.688  0.6452  0.0876 -2.2231
 8251TIP3    H246169   3.660   5.495   2.737  0.0403 -0.2901 -0.4582
 8252TIP3   OH246170   3.132   6.074   5.404 -0.3682 -0.1791  0.4165
 8252TIP3    H146171   3.037   6.073   5.406 -0.3883  0.1252 -0.1238
 8252TIP3    H246172   3.158   6.118   5.485 -0.7028  0.1544  0.3457
 8253TIP3   OH246173   2.706   5.869  14.623 -0.9188  0.1820  0.3628
 8253TIP3    H146174   2.640   5.800  14.618 -0.2280 -0.4816  0.1586
 8253TIP3    H246175   2.656   5.950  14.631 -1.8322 -0.1379 -1.4515
 8254TIP3   OH246176   0.142   6.354  16.441 -0.3516 -0.6821  0.1871
 8254TIP3    H146177   0.057   6.373  16.402  0.1532 -0.5550 -0.8846
 8254TIP3    H246178   0.146   6.259  16.446 -0.3569 -0.7057 -0.2275
 8255TIP3   OH246179   2.688   0.552   3.430 -0.4417 -0.3513 -0.3278
 8255TIP3    H146180   2.656   0.462   3.429 -0.0074 -0.7094  3.3466
 8255TIP3    H246181   2.764   0.550   3.488 -1.2701  2.5840  1.0730
 8256TIP3   OH246182   0.638   1.810  10.790 -0.3762 -0.0222  0.1070
 8256TIP3    H146183   0.554   1.850  10.811 -1.6812 -1.9479 -1.0551
 8256TIP3    H246184   0.624   1.717  10.807  1.6880 -0.3249  0.3115
 8257TIP3   OH246185   3.090   3.160  11.606 -0.1890 -0.2604 -0.7798
 8257TIP3    H146186   3.063   3.099  11.537 -2.4796 -0.4658  0.1965
 8257TIP3    H246187   3.165   3.207  11.569  1.5634 -3.4562 -1.6610
 8258TIP3   OH246188   4.605   2.402  12.542 -0.3114 -0.0331  0.1116
 8258TIP3    H146189   4.566   2.436  12.462  1.0382 -0.0085 -0.5776
 8258TIP3    H246190   4.668   2.336  12.512  1.4399  1.1626  0.9945
 8259TIP3   OH246191   5.977   0.358  16.678 -0.2758 -0.1016 -0.3401
 8259TIP3    H146192   5.977   0.274  16.631  0.8989 -0.8267  0.8766
 8259TIP3    H246193   5.989   0.424  16.610 -0.7521 -0.9588 -1.2722
 8260TIP3   OH246194   3.924   4.887   0.710 -0.3145  0.1487 -0.0629
 8260TIP3    H146195   3.911   4.982   0.702 -1.2977 -0.0022 -0.3649
 8260TIP3    H246196   4.017   4.875   0.690  0.1035  1.1585  1.1014
 8261TIP3   OH246197   4.347   3.047   1.624 -0.0377  0.6110  0.1263
 8261TIP3    H146198   4.363   3.142   1.617 -0.9877  0.8733  1.1447
 8261TIP3    H246199   4.349   3.016   1.534  0.6248  1.5349 -0.2039
 8262TIP3   OH246200   3.559   0.804  12.809 -0.4613 -0.4680  0.5709
 8262TIP3    H146201   3.553   0.710  12.794  2.2388 -0.4905 -1.2058
 8262TIP3    H246202   3.623   0.813  12.879  1.1704  0.0143 -0.9098
 8263TIP3   OH246203   3.771   1.511  11.810 -0.5023 -0.2751 -0.2672
 8263TIP3    H146204   3.824   1.542  11.883 -3.2142  1.6753  1.0729
 8263TIP3    H246205   3.742   1.424  11.836  1.9887 -1.4480 -1.1031
 8264TIP3   OH246206   5.191   5.929   2.120 -0.1490 -0.1435  0.0567
 8264TIP3    H146207   5.103   5.968   2.127  0.4583  1.2685  0.1849
 8264TIP3    H246208   5.213   5.903   2.210 -0.3416 -0.2834  0.0636
 8265TIP3   OH246209   6.279   0.525   2.765  0.0081  0.2018  0.4664
 8265TIP3    H146210   6.339   0.471   2.816 -0.5031  0.3495  1.2365
 8265TIP3    H246211   6.193   0.484   2.778 -0.3902  1.1951  1.0813
 8266TIP3   OH246212   1.040   1.467   3.195 -0.0394 -0.0640 -0.4124
 8266TIP3    H146213   1.131   1.457   3.167  0.8188 -0.5743  2.2911
 8266TIP3    H246214   1.024   1.393   3.252 -2.6973 -0.8073 -1.9222
 8267TIP3   OH246215   3.766   5.827  17.171 -0.3761  0.2196 -0.2157
 8267TIP3    H146216   3.736   5.915  17.191  0.5878  0.5586 -0.1906
 8267TIP3    H246217   3.693   5.785  17.126  0.0059  1.8952 -2.5734
 8268TIP3   OH246218   4.292   1.889   5.799  0.4362 -0.2990  0.4864
 8268TIP3    H146219   4.283   1.875   5.894  0.5629  0.9465  0.7007
 8268TIP3    H246220   4.203   1.894   5.767  0.3838  0.0556  0.6774
 8269TIP3   OH246221   6.252   1.702  13.051  0.1326 -0.2740 -0.1902
 8269TIP3    H146222   6.257   1.797  13.037 -0.9625 -0.2045 -0.2191
 8269TIP3    H246223   6.248   1.665  12.963 -2.3934 -0.1173 -0.2401
 8270TIP3   OH246224   0.177   1.775  13.912  0.3530  0.0533 -0.3173
 8270TIP3    H146225   0.232   1.705  13.875  0.7606 -0.5882  1.3857
 8270TIP3    H246226   0.237   1.824  13.969 -0.6791 -0.2804  1.0973
 8271TIP3   OH246227   4.794   0.953   5.440  0.1421 -0.0992 -0.5796
 8271TIP3    H146228   4.786   1.016   5.368  0.8338 -1.1012 -1.5673
 8271TIP3    H246229   4.767   1.002   5.518  1.5840  1.7208 -1.1591
 8272TIP3   OH246230   2.364   5.720  15.654  0.2239  0.1188  0.4768
 8272TIP3    H146231   2.328   5.651  15.709  0.8503 -0.3530  0.3187
 8272TIP3    H246232   2.349   5.801  15.703  0.3497 -0.2406  1.1254
 8273TIP3   OH246233   0.760   0.013   3.226  0.2683  0.3043 -0.9593
 8273TIP3    H146234   0.765  -0.041   3.148  2.3416 -0.0021 -0.6753
 8273TIP3    H246235   0.778   0.102   3.195  2.3666  0.0139 -0.7302
 8274TIP3   OH246236   2.200   2.454  13.440 -0.1270 -0.3426  0.1321
 8274TIP3    H146237   2.278   2.496  13.403  0.2267  0.5177  1.7569
 8274TIP3    H246238   2.219   2.447  13.533 -2.2661  0.5136  0.6913
 8275TIP3   OH246239   0.293   4.692  11.827 -0.4497  0.7143  0.0249
 8275TIP3    H146240   0.249   4.736  11.755 -3.3648 -0.6412  0.8240
 8275TIP3    H246241   0.257   4.603  11.826  0.6802  0.1589  2.1435
 8276TIP3   OH246242   1.992   2.183   1.669 -0.1555 -0.6846 -0.0053
 8276TIP3    H146243   1.998   2.167   1.575 -1.4414 -1.0051 -0.0503
 8276TIP3    H246244   1.921   2.247   1.678  3.1049  3.3358  0.3754
 8277TIP3   OH246245   1.975   3.182  14.062 -0.6155  0.3092  0.1775
 8277TIP3    H146246   1.951   3.274  14.075  0.2608  0.4285  1.1345
 8277TIP3    H246247   2.066   3.177  14.092  0.0581 -0.4432 -1.8487
 8278TIP3   OH246248   0.677   2.680   4.434 -0.1300 -1.0315  0.1942
 8278TIP3    H146249   0.676   2.773   4.459 -3.3699 -1.4118  2.1338
 8278TIP3    H246250   0.640   2.679   4.346 -1.6532 -0.5020  0.7849
 8279TIP3   OH246251   6.228   3.916   3.895  0.0006  0.0680 -0.3805
 8279TIP3    H146252   6.144   3.873   3.880  0.5692 -1.4869  0.6810
 8279TIP3    H246253   6.290   3.867   3.840  0.3783  0.6341 -0.4658
 8280TIP3   OH246254   6.295   2.501  13.135 -0.0485  0.0308 -0.3189
 8280TIP3    H146255   6.336   2.419  13.162  1.0938  0.3157 -1.1031
 8280TIP3    H246256   6.359   2.568  13.155 -1.1478  0.8107  0.7148
 8281TIP3   OH246257   2.386   3.859   0.592 -0.5353 -0.1374  0.0331
 8281TIP3    H146258   2.401   3.802   0.667  0.5740 -0.4038 -0.3742
 8281TIP3    H246259   2.350   3.802   0.524 -0.4402 -0.1410 -0.0155
 8282TIP3   OH246260   4.695   4.182   1.562  0.2182  0.0664 -0.3547
 8282TIP3    H146261   4.627   4.246   1.543  0.4584  0.8610  1.3143
 8282TIP3    H246262   4.775   4.234   1.572  0.6776 -0.6349 -0.2775
 8283TIP3   OH246263   6.625   3.585  13.666 -0.0208 -0.0186  0.0883
 8283TIP3    H146264   6.614   3.509  13.723 -1.4482  0.6858  0.8161
 8283TIP3    H246265   6.702   3.630  13.700  0.6069 -0.9377 -0.1101
 8284TIP3   OH246266   6.258   6.541   6.532 -0.0590  0.7501  0.1394
 8284TIP3    H146267   6.250   6.457   6.577 -0.6664  0.6767 -0.1053
 8284TIP3    H246268   6.342   6.535   6.485 -0.0665  0.3140  0.1778
 8285TIP3   OH246269   5.766   2.490  13.163 -0.5197 -0.3747  0.6810
 8285TIP3    H146270   5.859   2.505  13.174 -0.5803  0.3016  0.3265
 8285TIP3    H246271   5.760   2.413  13.105 -0.1612  0.6022 -0.6887
 8286TIP3   OH246272   1.863   5.023  12.491  0.2839 -0.2883  0.2744
 8286TIP3    H146273   1.943   4.977  12.467  0.6931 -0.3244  1.6207
 8286TIP3    H246274   1.848   5.086  12.420 -0.0994 -2.2127 -1.4500
 8287TIP3   OH246275   2.729   2.842   5.920 -0.1210 -0.3556 -0.2697
 8287TIP3    H146276   2.678   2.894   5.982 -0.6096  0.8404 -1.6283
 8287TIP3    H246277   2.810   2.890   5.907  0.1982 -0.8588 -0.1804
 8288TIP3   OH246278   6.409   4.426   3.903  0.0735 -0.2699  0.5182
 8288TIP3    H146279   6.456   4.507   3.923  1.3061 -0.0220 -2.7056
 8288TIP3    H246280   6.333   4.454   3.853  0.3821 -1.0239 -0.4167
 8289TIP3   OH246281   6.065   3.715  13.633  0.2123 -0.3453  0.1239
 8289TIP3    H146282   6.043   3.685  13.721 -0.0012  0.8699  0.4981
 8289TIP3    H246283   6.030   3.804  13.628  1.7452  0.2514 -0.5847
 8290TIP3   OH246284   0.883   5.216  14.546  0.1220  0.6427 -0.3639
 8290TIP3    H146285   0.864   5.252  14.633 -0.1094  2.0745 -0.9718
 8290TIP3    H246286   0.895   5.122  14.561 -0.6897  0.7385  1.0843
 8291TIP3   OH246287   0.828   1.154   0.263 -0.0731  0.4843  0.0576
 8291TIP3    H146288   0.912   1.152   0.218 -0.1359  1.3507 -0.1097
 8291TIP3    H246289   0.764   1.127   0.197  0.0289  0.1076  0.1066
 8292TIP3   OH246290   2.717   3.853   3.284  0.4286  0.6005 -0.2654
 8292TIP3    H146291   2.810   3.859   3.265  0.3354  1.0391 -0.6045
 8292TIP3    H246292   2.676   3.837   3.198  0.2919 -0.8521  0.0343
 8293TIP3   OH246293   5.729   0.288   0.322 -0.3489  0.5243  0.3313
 8293TIP3    H146294   5.682   0.370   0.337  1.4306  1.9176 -1.2539
 8293TIP3    H246295   5.725   0.275   0.227  0.6323 -0.4818  0.4100
 8294TIP3   OH246296   5.328   6.230   1.360 -0.0619 -0.5003  0.2722
 8294TIP3    H146297   5.389   6.269   1.423 -2.9781  2.3536  1.6709
 8294TIP3    H246298   5.351   6.271   1.277  1.2352 -1.1176  0.3036
 8295TIP3   OH246299   0.747   4.769  15.353  0.0254 -0.0791  0.2659
 8295TIP3    H146300   0.740   4.785  15.447 -0.4363  1.9354 -0.0550
 8295TIP3    H246301   0.762   4.856  15.315 -2.2828 -0.4408 -1.7294
 8296TIP3   OH246302   6.501   4.005  11.854 -1.0525 -0.0455 -1.0008
 8296TIP3    H146303   6.424   3.991  11.800 -0.1559 -0.0602 -2.3351
 8296TIP3    H246304   6.575   3.984  11.797 -0.0682 -3.2400  1.1479
 8297TIP3   OH246305   1.831   3.581  14.375 -0.2138  0.2366  0.1694
 8297TIP3    H146306   1.765   3.552  14.438  0.4199 -1.3785  0.1307
 8297TIP3    H246307   1.907   3.603  14.428  0.6812 -2.1102 -0.0031
 8298TIP3   OH246308   0.614   2.573   1.403  0.1208 -0.2146  0.3250
 8298TIP3    H146309   0.602   2.495   1.349 -0.0261 -0.1494  0.2612
 8298TIP3    H246310   0.686   2.551   1.463 -0.6722 -0.8059  1.0738
 8299TIP3   OH246311   3.810   1.328   5.196  0.3304 -0.0493  0.4841
 8299TIP3    H146312   3.808   1.366   5.108 -0.8024  0.7493  0.8411
 8299TIP3    H246313   3.731   1.275   5.202  0.3345 -0.0025  1.0678
 8300TIP3   OH246314   0.858   4.540   5.224  0.8569 -0.1896 -0.2815
 8300TIP3    H146315   0.920   4.576   5.287 -1.1111 -0.5432  1.9943
 8300TIP3    H246316   0.839   4.452   5.257  0.1266 -0.5780 -1.6768
 8301TIP3   OH246317   0.217   1.607  14.512  0.3379 -0.1630  0.3268
 8301TIP3    H146318   0.193   1.589  14.603 -1.2272 -4.1752 -0.6595
 8301TIP3    H246319   0.133   1.610  14.466  1.1568  0.5909 -1.1951
 8302TIP3   OH246320   4.888   6.664   3.134 -0.5296  0.6737  0.4266
 8302TIP3    H146321   4.889   6.757   3.111  0.5900  0.2823 -1.2972
 8302TIP3    H246322   4.825   6.624   3.074  0.6387 -0.0013 -0.3927
 8303TIP3   OH246323   5.745   2.064   4.776 -0.4375  0.2548  0.4644
 8303TIP3    H146324   5.672   2.099   4.827  1.2228  1.6531  2.0430
 8303TIP3    H246325   5.820   2.071   4.835  0.6556 -2.9692 -0.3725
 8304TIP3   OH246326   1.346   0.884  14.477  0.6257  0.8882  0.0140
 8304TIP3    H146327   1.288   0.823  14.431  1.1092  0.1535  0.3667
 8304TIP3    H246328   1.356   0.846  14.564  0.0292  2.0578  0.6317
 8305TIP3   OH246329   4.374   6.526   4.079  0.0074  0.0262  0.0140
 8305TIP3    H146330   4.403   6.445   4.037 -0.3181 -0.4481  0.6737
 8305TIP3    H246331   4.439   6.591   4.054 -0.1211 -0.2687 -1.1118
 8306TIP3   OH246332   1.036   1.351  16.710  0.1570  0.6252 -0.1582
 8306TIP3    H146333   1.045   1.434  16.663  0.7706 -0.4477 -2.0732
 8306TIP3    H246334   1.012   1.288  16.642  2.5979 -1.3385  0.6475
 8307TIP3   OH246335   1.362   2.521  15.126  0.1582  0.4854 -0.2819
 8307TIP3    H146336   1.431   2.524  15.193 -0.0225  1.9712 -0.1143
 8307TIP3    H246337   1.344   2.428  15.113  0.6263  0.1464  1.2952
 8308TIP3   OH246338   5.763   5.688  11.432  0.0742 -0.5391 -0.4392
 8308TIP3    H146339   5.826   5.758  11.450 -1.6636  0.8499  0.4789
 8308TIP3    H246340   5.683   5.733  11.404 -0.1496 -2.3075 -3.0737
 8309TIP3   OH246341   2.410   1.598  16.214 -0.3670 -0.1089  0.2653
 8309TIP3    H146342   2.484   1.636  16.165 -1.6742  1.2695 -0.7332
 8309TIP3    H246343   2.334   1.616  16.159 -1.4911 -1.3925  1.3319
 8310TIP3   OH246344   4.328   4.154  10.919  0.2992  0.3989 -0.2321
 8310TIP3    H146345   4.291   4.237  10.949 -0.2998 -0.0515  0.3074
 8310TIP3    H246346   4.310   4.152  10.825 -0.0153  0.7181 -0.1814
 8311TIP3   OH246347   5.960   4.595  11.133 -0.0536 -0.5498  0.4338
 8311TIP3    H146348   6.036   4.633  11.090  0.0473 -2.3659 -1.1206
 8311TIP3    H246349   5.945   4.651  11.210 -0.3372  2.9786 -1.9287
 8312TIP3   OH246350   2.925   2.679  16.962 -0.3074  0.3585 -0.3517
 8312TIP3    H146351   2.925   2.654  17.054 -2.0040  0.5847 -0.2533
 8312TIP3    H246352   2.964   2.766  16.960  1.9765 -0.5862 -0.1972
 8313TIP3   OH246353   1.811   1.164  13.334 -0.4788 -0.0123  0.4060
 8313TIP3    H146354   1.813   1.254  13.366  0.2887 -0.0001  0.3410
 8313TIP3    H246355   1.895   1.152  13.290 -0.6963 -0.6670  0.1530
 8314TIP3   OH246356   5.243   2.573  15.929  0.1806  0.4543  0.4161
 8314TIP3    H146357   5.210   2.569  15.839 -0.7638 -1.2793  0.7865
 8314TIP3    H246358   5.300   2.649  15.930 -0.2177  0.8419 -1.5067
 8315TIP3   OH246359   6.062   1.220  12.183 -0.5074  0.2061 -0.6608
 8315TIP3    H146360   6.156   1.207  12.179 -0.3585  0.9480  0.0655
 8315TIP3    H246361   6.047   1.306  12.143 -0.7026  0.7051  0.4411
 8316TIP3   OH246362   6.506   2.861  11.940 -0.2647  0.0346  0.1307
 8316TIP3    H146363   6.564   2.885  12.012  1.9757 -0.1517 -1.4846
 8316TIP3    H246364   6.485   2.769  11.956  1.6082 -0.5058 -0.2666
 8317TIP3   OH246365   1.245   5.038  14.951 -0.7096  0.2359  0.5112
 8317TIP3    H146366   1.272   4.998  15.033 -1.2453  1.4915  1.3439
 8317TIP3    H246367   1.325   5.075  14.914 -0.6130  0.4852  0.9610
 8318TIP3   OH246368   1.854   3.671  15.911 -0.4650  0.2294  0.3690
 8318TIP3    H146369   1.916   3.727  15.865 -0.2391  0.4771  0.9612
 8318TIP3    H246370   1.769   3.712  15.895 -0.5134 -0.2742 -0.6827
 8319TIP3   OH246371   2.888   0.312  15.979  0.4583  0.3837 -0.5140
 8319TIP3    H146372   2.943   0.242  16.013  0.0564 -0.5749 -1.7660
 8319TIP3    H246373   2.949   0.381  15.952  1.0116 -0.3391 -1.1446
 8320TIP3   OH246374   4.079   6.120   0.364 -0.6247 -0.0200  0.3638
 8320TIP3    H146375   4.111   6.030   0.365  0.7082  0.4192  2.2084
 8320TIP3    H246376   4.137   6.165   0.302 -2.2209 -0.6629 -1.7227
 8321TIP3   OH246377   4.286   3.540  12.511 -0.4532  0.6238 -0.1693
 8321TIP3    H146378   4.251   3.469  12.566 -0.3610  0.5479 -0.2077
 8321TIP3    H246379   4.287   3.503  12.423 -0.6607  0.7683 -0.2323
 8322TIP3   OH246380   0.832   0.911  11.762  0.1418  0.2334  0.3867
 8322TIP3    H146381   0.918   0.937  11.727  0.3147  0.5079  0.9931
 8322TIP3    H246382   0.771   0.931  11.691  0.4381  1.1138  0.3563
 8323TIP3   OH246383   3.498   2.124  13.282 -0.3524 -0.1593  0.1646
 8323TIP3    H146384   3.513   2.191  13.349 -1.1774 -0.9236  1.1408
 8323TIP3    H246385   3.444   2.058  13.325  0.1714 -1.3117 -0.8716
 8324TIP3   OH246386   2.263   0.697  13.240 -0.3011  0.1761 -0.1959
 8324TIP3    H146387   2.289   0.712  13.331 -1.0589 -2.0154  0.4508
 8324TIP3    H246388   2.172   0.726  13.236  0.0974  1.4395 -0.6282
 8325TIP3   OH246389   5.735   1.731   2.008  0.3427  0.2863  0.0558
 8325TIP3    H146390   5.695   1.708   1.924 -1.1885  0.5868  0.6788
 8325TIP3    H246391   5.758   1.647   2.048  1.7878  0.1587 -0.9595
 8326TIP3   OH246392   2.621   5.283   5.438  0.2032 -0.0138 -0.2134
 8326TIP3    H146393   2.676   5.206   5.452 -1.6572 -1.1297  1.3386
 8326TIP3    H246394   2.683   5.356   5.434  1.8509 -1.3133  0.5521
 8327TIP3   OH246395   0.762   2.662  17.127 -0.5140  0.2485  0.2730
 8327TIP3    H146396   0.706   2.672  17.204 -2.4137  0.6489 -1.0841
 8327TIP3    H246397   0.829   2.730  17.137 -0.3017 -0.1818  1.9081
 8328TIP3   OH246398   2.456   2.440   1.071  0.2575 -0.8197 -0.6832
 8328TIP3    H146399   2.378   2.432   1.126  1.9589  0.4143  2.1107
 8328TIP3    H246400   2.447   2.526   1.030  1.3594  0.6006  1.8565
 8329TIP3   OH246401   1.177   0.987  12.010  0.5739  0.2050  0.1219
 8329TIP3    H146402   1.081   0.987  12.016  0.3127 -1.7533 -2.4537
 8329TIP3    H246403   1.200   1.076  11.986 -0.7865  0.3237 -0.8598
 8330TIP3   OH246404   5.439   1.671  14.394 -0.2465 -0.1412  0.1691
 8330TIP3    H146405   5.518   1.618  14.382 -1.3654 -1.4311 -1.8784
 8330TIP3    H246406   5.367   1.609  14.392 -1.4965  1.2745 -0.4981
 8331TIP3   OH246407   0.734   5.528  15.907 -0.4138  0.6620 -0.1901
 8331TIP3    H146408   0.643   5.530  15.938 -0.2425  0.7427  0.3172
 8331TIP3    H246409   0.730   5.559  15.817 -1.0339 -0.3277 -0.5151
 8332TIP3   OH246410   1.796   2.974  11.082 -0.4781  0.9305  0.5021
 8332TIP3    H146411   1.801   3.040  11.013  0.8162  0.6745  0.3267
 8332TIP3    H246412   1.713   2.929  11.067 -0.0053  0.5615 -1.1916
 8333TIP3   OH246413   4.291   5.235  14.582 -0.1838 -0.2272 -0.0041
 8333TIP3    H146414   4.351   5.308  14.564  1.0667 -0.5273  2.5032
 8333TIP3    H246415   4.322   5.165  14.525 -1.0050  0.9284 -1.9884
 8334TIP3   OH246416   2.411   2.750  12.784  0.1550 -0.0088  0.4004
 8334TIP3    H146417   2.481   2.689  12.807  0.8197 -0.2519 -2.0724
 8334TIP3    H246418   2.350   2.745  12.858  0.7836 -2.7208  0.8205
 8335TIP3   OH246419   3.475   5.543   1.074  0.2212  0.1360 -0.3288
 8335TIP3    H146420   3.495   5.634   1.054  2.0201  0.5758  2.7164
 8335TIP3    H246421   3.409   5.518   1.010  1.2467  2.8622 -2.6842
 8336TIP3   OH246422   5.099   2.048   3.922 -0.7552  0.0705 -0.1134
 8336TIP3    H146423   5.123   2.134   3.887 -0.5045 -0.7999 -2.2458
 8336TIP3    H246424   5.136   2.046   4.010  0.1365  1.7392 -0.4199
 8337TIP3   OH246425   2.738   6.094  12.839 -0.1829 -0.7249 -0.2100
 8337TIP3    H146426   2.671   6.144  12.793  1.7488 -0.0945 -2.5765
 8337TIP3    H246427   2.691   6.020  12.877 -2.3991  0.3957 -0.6136
 8338TIP3   OH246428   3.673   2.100   3.051  0.2663  0.4455 -0.7310
 8338TIP3    H146429   3.767   2.097   3.034  0.1381 -1.1451 -1.2774
 8338TIP3    H246430   3.639   2.019   3.015 -0.7701 -0.8886  2.8018
 8339TIP3   OH246431   0.705   6.057  13.686 -0.3409  0.1854  0.2719
 8339TIP3    H146432   0.778   6.054  13.625 -0.8834 -0.9920 -0.3687
 8339TIP3    H246433   0.745   6.059  13.773  0.4587 -0.3358 -0.0745
 8340TIP3   OH246434   5.338   4.566  13.515  0.8894 -0.5855 -0.2242
 8340TIP3    H146435   5.303   4.576  13.427  1.6468 -2.1693 -0.7223
 8340TIP3    H246436   5.355   4.473  13.525  1.2879 -0.3812  1.4256
 8341TIP3   OH246437   5.204   0.513  14.025 -0.3836  0.5846 -0.0904
 8341TIP3    H146438   5.242   0.566  13.955  0.2512  0.0508 -0.1545
 8341TIP3    H246439   5.190   0.427  13.985  0.1517  0.2242  0.4793
 8342TIP3   OH246440   3.029   6.722   3.852 -0.2841  0.0819 -0.2505
 8342TIP3    H146441   3.076   6.648   3.813 -1.1729 -0.3968 -0.4599
 8342TIP3    H246442   2.940   6.715   3.815 -0.2207  1.6297 -0.7702
 8343TIP3   OH246443   4.569   2.640   4.482 -0.2032 -0.2625 -0.1077
 8343TIP3    H146444   4.480   2.661   4.511 -0.4035 -0.5345 -0.5341
 8343TIP3    H246445   4.616   2.620   4.563 -1.1361 -2.4574 -0.0543
 8344TIP3   OH246446   5.224   0.877  13.084 -0.0026  0.4018  0.4899
 8344TIP3    H146447   5.183   0.952  13.127  0.2226  0.8446 -0.0500
 8344TIP3    H246448   5.169   0.803  13.108  1.0076  0.3397  2.8409
 8345TIP3   OH246449   3.406   0.658   4.888 -0.0034  0.3396  0.3369
 8345TIP3    H146450   3.409   0.745   4.847  0.6199  0.3308  0.3478
 8345TIP3    H246451   3.384   0.676   4.980  1.1747  0.5908  0.5889
 8346TIP3   OH246452   6.670   2.767  12.516 -0.1971 -0.0067 -0.2852
 8346TIP3    H146453   6.624   2.738  12.594  1.9739 -0.3194  0.9544
 8346TIP3    H246454   6.647   2.860  12.507  2.2254  1.1069  2.9273
 8347TIP3   OH246455   4.740   0.153   3.033  0.0949 -0.1345  0.4310
 8347TIP3    H146456   4.654   0.174   2.997  1.1466  1.2850 -1.4028
 8347TIP3    H246457   4.731   0.168   3.127 -1.7411 -0.3994  0.3393
 8348TIP3   OH246458   6.543   3.283   0.146  0.2083 -0.3295  0.4581
 8348TIP3    H146459   6.614   3.241   0.098 -0.9181  0.0611 -1.6855
 8348TIP3    H246460   6.463   3.244   0.109 -0.7327 -0.0524  2.0997
 8349TIP3   OH246461   0.432   0.681   3.367 -0.1502 -0.0835 -0.3788
 8349TIP3    H146462   0.526   0.686   3.354 -0.2108  0.3999 -0.6857
 8349TIP3    H246463   0.421   0.663   3.460  0.2347  0.9943 -0.1025
 8350TIP3   OH246464   1.363   0.673   6.139 -0.4685 -0.7724 -0.0464
 8350TIP3    H146465   1.411   0.654   6.220  0.7557 -0.0036 -0.5531
 8350TIP3    H246466   1.431   0.681   6.072 -1.4437 -1.1938 -1.1247
 8351TIP3   OH246467   2.723   5.453  14.031 -0.7865 -0.2141 -0.2264
 8351TIP3    H146468   2.799   5.491  14.074 -0.1659 -0.4743 -1.0756
 8351TIP3    H246469   2.650   5.471  14.091  0.2041 -1.4818  1.4684
 8352TIP3   OH246470   1.878   6.128  11.766 -0.5002  0.2274 -0.2171
 8352TIP3    H146471   1.894   6.050  11.819 -1.1673  0.8558  0.9513
 8352TIP3    H246472   1.788   6.153  11.786  0.4733  2.7926  1.4896
 8353TIP3   OH246473   6.585   3.802   2.583  0.9234 -0.0373  0.3084
 8353TIP3    H146474   6.637   3.742   2.529 -0.3679 -2.5105  1.6001
 8353TIP3    H246475   6.501   3.808   2.537  0.6390 -0.2338  0.7909
 8354TIP3   OH246476   5.544   5.830   4.996  0.3721  0.3085 -0.1499
 8354TIP3    H146477   5.571   5.868   4.912  1.6522  1.3357  0.6777
 8354TIP3    H246478   5.539   5.736   4.980  1.0634  0.4451 -1.2586
 8355TIP3   OH246479   4.811   0.048   1.319  0.2381  0.4259  0.2224
 8355TIP3    H146480   4.718   0.066   1.330  0.8086  2.7121  2.0057
 8355TIP3    H246481   4.842   0.025   1.407  1.2710 -0.8880 -0.4502
 8356TIP3   OH246482   1.591   4.515  13.726  0.3628  0.0660 -0.3968
 8356TIP3    H146483   1.606   4.559  13.643 -1.2542 -0.2166 -0.8723
 8356TIP3    H246484   1.625   4.575  13.793  0.5413  0.8432 -1.1782
 8357TIP3   OH246485   0.452   5.609  16.822  0.1084 -0.2484  0.2657
 8357TIP3    H146486   0.424   5.583  16.734  0.6502 -2.2825  0.6366
 8357TIP3    H246487   0.373   5.641  16.865 -0.5502 -0.9607 -0.3839
 8358TIP3   OH246488   6.447   4.132  12.321  0.0126 -0.6030 -0.1587
 8358TIP3    H146489   6.538   4.102  12.310  0.3133  0.2428 -0.0792
 8358TIP3    H246490   6.396   4.051  12.327  0.9560 -1.1414  1.4059
 8359TIP3   OH246491   0.659   4.243  13.094  0.2437  0.0340  0.0945
 8359TIP3    H146492   0.589   4.251  13.030  0.5595 -1.1634 -0.4299
 8359TIP3    H246493   0.620   4.272  13.176 -0.4153  0.7859 -0.4690
 8360TIP3   OH246494   3.535   6.311   4.455 -0.0335 -0.3752 -0.6055
 8360TIP3    H146495   3.570   6.242   4.398  0.8234 -1.4962  1.1633
 8360TIP3    H246496   3.525   6.269   4.540 -2.2793  0.9481 -0.1307
 8361TIP3   OH246497   6.750   5.657   1.533 -0.8758  0.4876  0.0084
 8361TIP3    H146498   6.748   5.569   1.569 -0.2696  0.9175  1.1570
 8361TIP3    H246499   6.729   5.646   1.440  0.0862 -0.9588 -0.0708
 8362TIP3   OH246500   1.555   3.875  15.211  0.0629  0.5171  0.1288
 8362TIP3    H146501   1.463   3.850  15.205  0.4600 -0.5615 -2.5810
 8362TIP3    H246502   1.600   3.797  15.244  0.2428  0.3721 -0.4462
 8363TIP3   OH246503   3.447   4.108   6.631 -0.1471 -0.4168 -0.1591
 8363TIP3    H146504   3.506   4.136   6.561 -0.6785  3.0510  0.5515
 8363TIP3    H246505   3.504   4.095   6.707 -0.0569  2.2166  0.3361
 8364TIP3   OH246506   1.382   5.851  15.016 -0.6806 -0.2163  0.0054
 8364TIP3    H146507   1.418   5.867  15.104  0.3907  0.9998 -0.6216
 8364TIP3    H246508   1.321   5.924  15.002  0.8720  0.9237 -1.1260
 8365TIP3   OH246509   4.783   1.268   5.156  0.4111 -0.2393 -0.3366
 8365TIP3    H146510   4.841   1.217   5.100  0.7755  2.1183 -2.2607
 8365TIP3    H246511   4.838   1.338   5.192 -0.1236 -0.9255  2.0027
 8366TIP3   OH246512   1.863   3.715  13.172  0.3767  0.1934  0.0693
 8366TIP3    H146513   1.866   3.761  13.256 -1.3858  1.0435 -0.2942
 8366TIP3    H246514   1.906   3.775  13.110 -0.9984  0.9218 -0.2020
 8367TIP3   OH246515   1.287   0.197   1.063 -0.7705  0.1417  0.2053
 8367TIP3    H146516   1.381   0.198   1.084 -0.1593  0.2450 -2.2812
 8367TIP3    H246517   1.257   0.113   1.098  1.1061 -1.6080 -2.0439
 8368TIP3   OH246518   5.595   4.996   6.026 -0.2159 -0.0226 -0.0955
 8368TIP3    H146519   5.650   5.026   6.098 -0.1306 -0.8451  0.2002
 8368TIP3    H246520   5.573   5.075   5.977  1.0570  0.3467 -0.0992
 8369TIP3   OH246521   4.700   0.739   5.853  0.2622 -0.1847 -0.2924
 8369TIP3    H146522   4.739   0.681   5.918  0.6669 -0.4318 -0.7467
 8369TIP3    H246523   4.766   0.807   5.838 -0.1769  0.3569  0.1783
 8370TIP3   OH246524   6.265   1.246   1.734  0.1630 -0.3956  0.1329
 8370TIP3    H146525   6.308   1.329   1.754 -0.0727 -0.2421  0.0126
 8370TIP3    H246526   6.277   1.235   1.640 -0.5665 -0.0547 -0.0088
 8371TIP3   OH246527   6.381   4.155  12.044 -0.2570 -0.0330  0.5370
 8371TIP3    H146528   6.432   4.088  12.000 -0.1333  0.3288  0.1197
 8371TIP3    H246529   6.415   4.156  12.134 -1.7348 -2.0230  1.1736
 8372TIP3   OH246530   0.570   3.800   5.469 -0.3894  0.6714 -0.0257
 8372TIP3    H146531   0.495   3.756   5.509 -0.1183  1.9694  2.0481
 8372TIP3    H246532   0.645   3.772   5.520  0.2014  1.2234 -0.5691
 8373TIP3   OH246533   6.022   6.643  16.302  0.1245  0.5307  0.1421
 8373TIP3    H146534   6.049   6.694  16.226 -0.4165  0.8086  0.1299
 8373TIP3    H246535   6.104   6.610  16.339  0.3060 -0.7364 -1.3200
 8374TIP3   OH246536   5.281   1.749   6.274 -0.5983  0.4597  0.5448
 8374TIP3    H146537   5.327   1.806   6.212  1.6764 -0.7130  1.0486
 8374TIP3    H246538   5.338   1.673   6.283 -1.7603 -0.2319  2.7030
 8375TIP3   OH246539   3.790   5.830   5.757  0.4150  0.4552  0.3537
 8375TIP3    H146540   3.814   5.806   5.847 -2.3227 -1.1616  0.7460
 8375TIP3    H246541   3.695   5.827   5.756  0.1848  3.8899 -1.7575
 8376TIP3   OH246542   3.130   4.710   3.468  0.1708  0.1248  1.0597
 8376TIP3    H146543   3.071   4.641   3.499 -3.1359  3.0223  1.9044
 8376TIP3    H246544   3.170   4.674   3.389 -2.7492 -2.1328  0.4277
 8377TIP3   OH246545   6.255   2.606   1.297  0.4647  0.2960 -0.4968
 8377TIP3    H146546   6.221   2.690   1.328  1.0024  0.0558  0.7981
 8377TIP3    H246547   6.350   2.617   1.296  0.5765 -0.4520  0.2267
 8378TIP3   OH246548   6.311   1.481  13.899  0.2954 -0.3290 -0.1307
 8378TIP3    H146549   6.293   1.545  13.830 -2.1411 -0.3183  0.4072
 8378TIP3    H246550   6.260   1.403  13.873 -1.5208  0.0164  2.0716
 8379TIP3   OH246551   5.220   1.157  17.169  0.3072 -0.0814 -0.3731
 8379TIP3    H146552   5.220   1.249  17.143 -3.2568  0.1741 -0.0201
 8379TIP3    H246553   5.177   1.112  17.097 -4.1216 -0.2728  2.0388
 8380TIP3   OH246554   3.068   3.841   0.980  0.4221  0.2836  0.4056
 8380TIP3    H146555   3.002   3.823   0.913  1.9253 -1.0852 -0.7910
 8380TIP3    H246556   3.041   3.924   1.018 -2.0911 -0.3034  0.1298
 8381TIP3   OH246557   5.024   2.649   3.579  0.0040 -0.3944  0.0055
 8381TIP3    H146558   4.943   2.693   3.551 -0.1888 -1.3787 -1.0230
 8381TIP3    H246559   5.076   2.720   3.618 -0.5145  0.6527 -1.1295
 8382TIP3   OH246560   6.461   5.322  16.959  0.2745  0.3035  0.1416
 8382TIP3    H146561   6.504   5.243  16.927  0.3459  1.0846 -1.8216
 8382TIP3    H246562   6.531   5.375  16.998  0.8055  0.7448 -1.3594
 8383TIP3   OH246563   6.723   4.470  12.006 -0.2897  0.2241  0.6144
 8383TIP3    H146564   6.721   4.391  12.060 -0.8995  0.1883  0.5385
 8383TIP3    H246565   6.700   4.440  11.918  1.4469  0.1474  0.1492
 8384TIP3   OH246566   1.918   5.912   2.714 -0.5023 -0.5512  0.1022
 8384TIP3    H146567   1.871   5.981   2.762 -1.3771 -0.9699 -0.1197
 8384TIP3    H246568   1.948   5.956   2.634  1.0552  0.1732  1.0412
 8385TIP3   OH246569   2.161   5.806  12.680  0.6173 -0.2887  0.3630
 8385TIP3    H146570   2.124   5.723  12.651 -1.6982 -0.0003  2.1379
 8385TIP3    H246571   2.247   5.785  12.714  0.0388 -1.9854  0.8442
 8386TIP3   OH246572   5.723   4.649  12.490 -0.0091 -0.4792  0.3568
 8386TIP3    H146573   5.768   4.731  12.514  1.4198 -0.6641 -1.4670
 8386TIP3    H246574   5.792   4.593  12.456 -1.0948 -2.2066  0.8681
 8387TIP3   OH246575   0.458   1.706   4.032 -0.1089  0.0331 -0.6043
 8387TIP3    H146576   0.388   1.688   3.970 -1.5216  0.1741  0.8985
 8387TIP3    H246577   0.426   1.777   4.087  0.4275 -1.0701  1.2642
 8388TIP3   OH246578   5.360   1.059  12.604 -0.0531 -0.4034  0.0680
 8388TIP3    H146579   5.369   1.142  12.558  2.2054  0.6599  2.2167
 8388TIP3    H246580   5.291   1.074  12.668 -0.1063 -0.4101  0.0127
 8389TIP3   OH246581   4.042   5.097  12.571  0.2531  0.0939  0.4204
 8389TIP3    H146582   3.974   5.031  12.583  0.2118 -0.4413 -2.1847
 8389TIP3    H246583   4.111   5.072  12.633 -1.1074 -0.4120  1.8098
 8390TIP3   OH246584   4.175   3.590  13.012 -0.0175 -0.2307  0.6875
 8390TIP3    H146585   4.155   3.575  12.919 -0.8760  0.9303  0.6711
 8390TIP3    H246586   4.095   3.565  13.058 -0.3864  1.2707  0.9110
 8391TIP3   OH246587   4.609   2.308   3.899 -0.3315  0.6500 -0.1798
 8391TIP3    H146588   4.608   2.299   3.803  1.6435  0.4162 -0.2054
 8391TIP3    H246589   4.666   2.237   3.929 -0.6334  0.9481  1.1644
 8392TIP3   OH246590   0.533   5.903  10.798 -0.4655  0.0367  0.1721
 8392TIP3    H146591   0.617   5.862  10.819 -1.5445 -2.1658  0.4957
 8392TIP3    H246592   0.502   5.856  10.720 -2.4793 -0.9124  1.4716
 8393TIP3   OH246593   0.440   5.224  15.174  0.2941  0.2340 -0.8221
 8393TIP3    H146594   0.475   5.211  15.086 -0.5635  1.2662 -1.3204
 8393TIP3    H246595   0.374   5.292  15.165 -0.6103 -0.4355  0.4238
 8394TIP3   OH246596   3.138   4.688  14.618  0.4884 -0.1172  0.2571
 8394TIP3    H146597   3.230   4.711  14.603 -0.2380  1.6974 -1.9948
 8394TIP3    H246598   3.129   4.601  14.578  1.0628  0.0076 -0.1659
 8395TIP3   OH246599   6.449   6.048  17.159 -0.0252  0.0208 -0.0426
 8395TIP3    H146600   6.477   5.957  17.160  0.9005  0.2888 -0.5514
 8395TIP3    H246601   6.360   6.046  17.193 -0.5233 -1.2385 -1.3437
 8396TIP3   OH246602   1.837   1.309  16.272  0.6177  0.9436  0.0493
 8396TIP3    H146603   1.797   1.362  16.204  0.7117 -0.5022 -1.2013
 8396TIP3    H246604   1.791   1.332  16.353 -1.0130  1.1219 -0.9048
 8397TIP3   OH246605   0.636   0.193  14.308  0.1354 -0.0001  0.1397
 8397TIP3    H146606   0.725   0.177  14.338  0.8692  1.2521 -1.2730
 8397TIP3    H246607   0.642   0.272  14.255 -2.1412  1.1379  1.4427
 8398TIP3   OH246608   0.696   6.554   6.731 -0.2733 -0.2823 -0.1003
 8398TIP3    H146609   0.613   6.521   6.699 -1.3278 -1.2609  3.2287
 8398TIP3    H246610   0.745   6.476   6.756  0.2629  0.3884  1.0197
 8399TIP3   OH246611   4.223   1.027  15.196  0.0405  0.1116 -0.0198
 8399TIP3    H146612   4.239   1.121  15.205 -0.0918  0.0804  0.5211
 8399TIP3    H246613   4.141   1.021  15.147 -1.8457  0.3176  2.9294
 8400TIP3   OH246614   1.602   0.120  11.055 -0.2118 -0.8606  0.4834
 8400TIP3    H146615   1.550   0.180  11.001 -2.3343  0.0903  3.3638
 8400TIP3    H246616   1.693   0.146  11.039 -0.9977  2.4670  0.7551
 8401TIP3   OH246617   5.889   2.275  11.284 -0.0558 -0.1346  0.2483
 8401TIP3    H146618   5.910   2.337  11.214 -0.1623  0.3943  0.6728
 8401TIP3    H246619   5.794   2.282  11.295 -0.0599 -0.3290  0.3417
 8402TIP3   OH246620   5.526   3.754   1.906  0.0077 -0.2439  0.5438
 8402TIP3    H146621   5.550   3.759   1.813  0.3004  2.0600  0.6959
 8402TIP3    H246622   5.433   3.775   1.908 -0.4612 -2.1294  0.6470
 8403TIP3   OH246623   2.855   5.697   0.158  0.1602 -0.1470 -0.2689
 8403TIP3    H146624   2.899   5.692   0.073  0.1588  0.1645 -0.2895
 8403TIP3    H246625   2.837   5.606   0.181  3.4136 -0.5777  1.0865
 8404TIP3   OH246626   4.179   6.703   6.432  0.1344  0.3445 -0.6079
 8404TIP3    H146627   4.167   6.700   6.527  2.5166  0.4006 -0.2377
 8404TIP3    H246628   4.099   6.742   6.398 -0.9842 -0.1631  1.3232
 8405TIP3   OH246629   3.666   2.375  11.820 -0.0035  0.0261  0.4148
 8405TIP3    H146630   3.663   2.412  11.732  1.6463  0.7452  0.6223
 8405TIP3    H246631   3.671   2.451  11.877 -0.1395 -0.4590  1.0844
 8406TIP3   OH246632   2.769   0.786  14.153 -0.2831  0.1721 -0.2312
 8406TIP3    H146633   2.794   0.798  14.245  1.0291  2.3117 -0.7972
 8406TIP3    H246634   2.756   0.875  14.120 -1.6326 -0.5882 -1.9173
 8407TIP3   OH246635   4.573   1.296  16.968 -0.2494 -0.6119 -0.2716
 8407TIP3    H146636   4.577   1.391  16.979  1.1863 -0.6967  0.1228
 8407TIP3    H246637   4.639   1.277  16.902  1.0869 -1.5565  1.2803
 8408TIP3   OH246638   4.216   2.164   4.747 -0.5721  0.0663 -0.3665
 8408TIP3    H146639   4.257   2.245   4.718  0.4673  0.0545  0.9607
 8408TIP3    H246640   4.231   2.162   4.841 -0.2858 -1.8101 -0.4146
 8409TIP3   OH246641   6.367   0.957  14.321 -0.0082 -0.1753  0.0961
 8409TIP3    H146642   6.359   0.976  14.228 -0.5916 -0.2899  0.1160
 8409TIP3    H246643   6.392   0.865  14.325 -0.2236 -0.2379  0.0513
 8410TIP3   OH246644   6.447   0.800  16.386 -0.2933  0.1796 -0.8293
 8410TIP3    H146645   6.531   0.789  16.342 -0.2591  0.9157 -0.9543
 8410TIP3    H246646   6.412   0.711  16.393  0.8485 -0.2436 -0.0626
 8411TIP3   OH246647   5.520   3.781   1.369 -0.0264 -0.9151  0.1540
 8411TIP3    H146648   5.612   3.801   1.350 -0.3529  0.1882 -0.3374
 8411TIP3    H246649   5.490   3.733   1.291 -0.8375  1.9341 -1.4170
 8412TIP3   OH246650   4.884   4.585   0.550 -0.7095 -0.2468  0.0861
 8412TIP3    H146651   4.931   4.593   0.467 -0.2152  0.2066  0.4030
 8412TIP3    H246652   4.845   4.498   0.547  2.6494 -1.9685  1.0723
 8413TIP3   OH246653   6.261   1.528   3.127  0.0204 -0.2499 -0.1027
 8413TIP3    H146654   6.207   1.596   3.167 -0.4197 -0.0894 -0.9369
 8413TIP3    H246655   6.198   1.472   3.081  0.4671 -0.6653 -0.2124
 8414TIP3   OH246656   5.094   5.579   5.373  0.2467  0.6014 -0.8961
 8414TIP3    H146657   5.155   5.543   5.309 -1.1721  0.3230 -2.1663
 8414TIP3    H246658   5.029   5.626   5.320  0.1308  2.0967  0.4868
 8415TIP3   OH246659   2.674   4.931  10.512  0.2582 -0.0305  0.3734
 8415TIP3    H146660   2.596   4.911  10.461  0.6596  1.9266 -1.1347
 8415TIP3    H246661   2.641   4.962  10.596 -0.5337 -0.4487  0.2200
 8416TIP3   OH246662   5.697   5.105   0.646 -0.5360 -0.4415  0.5756
 8416TIP3    H146663   5.756   5.083   0.718 -0.6412  0.2623  0.8790
 8416TIP3    H246664   5.734   5.059   0.570 -0.5064 -1.2956  1.0992
 8417TIP3   OH246665   1.259   0.763  11.859 -0.1605 -0.0004  0.0834
 8417TIP3    H146666   1.354   0.778  11.865  0.0290 -0.3192 -1.5777
 8417TIP3    H246667   1.221   0.836  11.907  0.9276 -0.0170  1.0238
 8418TIP3   OH246668   2.945   0.671   1.723 -0.1115  0.2192  0.0011
 8418TIP3    H146669   2.957   0.704   1.812  0.5724 -2.2938  0.9236
 8418TIP3    H246670   2.923   0.578   1.734  0.3428 -0.2595 -2.4516
 8419TIP3   OH246671   5.909   5.700   4.249 -0.5552 -0.0506  0.5128
 8419TIP3    H146672   5.941   5.714   4.338  1.9289 -1.6776 -0.0265
 8419TIP3    H246673   5.973   5.641   4.209 -1.9156  0.1300 -2.1798
 8420TIP3   OH246674   0.936   0.087   0.134  0.0567 -0.3103  0.3484
 8420TIP3    H146675   0.913   0.131   0.053  1.7232  0.6524  0.3615
 8420TIP3    H246676   0.875   0.013   0.140 -0.6383  0.0994 -1.3278
 8421TIP3   OH246677   0.349   0.800  11.563 -0.4566 -0.0232 -0.0208
 8421TIP3    H146678   0.273   0.835  11.609 -0.8683  1.0290 -1.4302
 8421TIP3    H246679   0.339   0.705  11.568 -2.1843  0.0955 -0.6488
 8422TIP3   OH246680   1.065   0.881   1.479 -0.6508 -0.5656  0.4476
 8422TIP3    H146681   1.057   0.969   1.444  2.7508 -0.5063 -0.4621
 8422TIP3    H246682   1.064   0.824   1.401  2.7724 -0.7626  0.3948
 8423TIP3   OH246683   0.187   4.067   2.725 -0.0825  0.6550 -0.1536
 8423TIP3    H146684   0.195   4.154   2.762  1.0066  0.1496  0.8591
 8423TIP3    H246685   0.119   4.075   2.658 -0.5621  2.0812  0.4795
 8424TIP3   OH246686   4.362   2.736   4.676  0.1149 -0.8667 -0.2306
 8424TIP3    H146687   4.384   2.695   4.759 -0.3584  1.9659  1.4126
 8424TIP3    H246688   4.267   2.740   4.676  0.1583  1.9592  0.6707
 8425TIP3   OH246689   0.129   6.271   5.364 -1.0556  0.1902 -0.3714
 8425TIP3    H146690   0.103   6.360   5.340  1.4053  1.1723  0.2859
 8425TIP3    H246691   0.080   6.251   5.444 -2.1523  0.6514 -0.9171
 8426TIP3   OH246692   3.775   5.398  12.343 -0.2924  0.5978 -0.1261
 8426TIP3    H146693   3.859   5.379  12.384 -1.0829 -4.4384 -0.1601
 8426TIP3    H246694   3.711   5.390  12.414 -1.0719 -0.9738 -0.9524
 8427TIP3   OH246695   1.001   6.582  14.738  0.0475  0.0502  0.2335
 8427TIP3    H146696   0.920   6.538  14.710  0.7632 -0.4253 -1.1594
 8427TIP3    H246697   0.976   6.627  14.819 -1.8233  0.5579 -0.5670
 8428TIP3   OH246698   3.951   0.616  12.183 -0.0583  0.7481  0.5837
 8428TIP3    H146699   3.919   0.691  12.232  0.0731  0.9624  0.3385
 8428TIP3    H246700   3.876   0.557  12.178  0.1458  0.3516  1.7594
 8429TIP3   OH246701   4.370   0.025  16.025 -0.2996  0.4449  0.4148
 8429TIP3    H146702   4.463   0.001  16.029 -0.2821  0.1950 -1.1111
 8429TIP3    H246703   4.369   0.111  15.984 -0.8641 -0.7198 -2.1953
 8430TIP3   OH246704   1.718   0.744   2.998  0.4972 -0.0868 -0.2477
 8430TIP3    H146705   1.723   0.745   2.903  3.8394  2.1014 -0.2040
 8430TIP3    H246706   1.768   0.667   3.025 -0.0328 -0.4300 -0.2290
 8431TIP3   OH246707   0.570   0.410   6.040  0.8116  0.4999 -0.0432
 8431TIP3    H146708   0.601   0.320   6.030  2.2076  0.8755  0.7029
 8431TIP3    H246709   0.511   0.406   6.115  1.6703  0.3808  0.6410
 8432TIP3   OH246710   2.000   6.073  14.394 -0.7919  0.4790  0.3953
 8432TIP3    H146711   1.950   6.021  14.456 -1.2874  1.3445  0.7401
 8432TIP3    H246712   1.935   6.129  14.351 -0.7987 -1.4150 -2.3168
 8433TIP3   OH246713   3.354   6.000   6.139  0.0098 -0.5810 -0.6408
 8433TIP3    H146714   3.287   6.039   6.195  1.9327 -0.7031  1.9310
 8433TIP3    H246715   3.352   5.907   6.160  2.4812 -0.2864  1.3509
 8434TIP3   OH246716   6.631   6.140  15.094  0.3824  0.1189  0.1222
 8434TIP3    H146717   6.720   6.109  15.113  0.2386  0.1035  0.7723
 8434TIP3    H246718   6.574   6.079  15.140  0.0869  1.1782  1.1767
 8435TIP3   OH246719   5.541   3.264   2.678  0.5818 -0.2284  0.0695
 8435TIP3    H146720   5.486   3.241   2.603 -1.2782  1.5413  0.8054
 8435TIP3    H246721   5.529   3.191   2.739 -0.8023  0.0035  0.1122
 8436TIP3   OH246722   1.557   4.139  15.098 -0.1518  0.1551 -0.0481
 8436TIP3    H146723   1.530   4.049  15.117  1.4287 -0.2933  0.2172
 8436TIP3    H246724   1.564   4.180  15.184  0.0932  0.2336 -0.1044
 8437TIP3   OH246725   3.963   1.749  14.086  0.6828  0.1668 -0.2781
 8437TIP3    H146726   3.925   1.672  14.129  2.9934 -1.7175 -1.3899
 8437TIP3    H246727   4.035   1.714  14.033  2.9991  3.3029  0.5161
 8438TIP3   OH246728   5.908   4.233  14.364  0.0881 -0.0633  0.0193
 8438TIP3    H146729   5.980   4.265  14.310 -0.0374  2.5410  1.2808
 8438TIP3    H246730   5.907   4.290  14.441 -3.3807  0.1129  0.0062
 8439TIP3   OH246731   5.744   3.000  12.200 -0.7707 -0.2117 -0.5578
 8439TIP3    H146732   5.756   3.094  12.185 -2.6795  0.5861  2.0234
 8439TIP3    H246733   5.688   2.971  12.128 -2.7038  1.4278  0.1783
 8440TIP3   OH246734   4.630   0.661  12.048  0.3656  0.0335  0.3234
 8440TIP3    H146735   4.658   0.621  12.131 -0.4657  0.0250  0.6176
 8440TIP3    H246736   4.560   0.603  12.017  1.0116 -0.2371 -0.6492
 8441TIP3   OH246737   2.085   2.211  13.258 -0.1539 -0.2149 -0.0863
 8441TIP3    H146738   2.040   2.271  13.316 -0.5151 -0.3861 -0.1861
 8441TIP3    H246739   2.052   2.232  13.171 -1.0027 -1.1884 -0.0140
 8442TIP3   OH246740   1.324   3.036   5.687 -0.7059 -0.3537  0.3159
 8442TIP3    H146741   1.304   3.006   5.598  1.0563  0.6356 -0.4721
 8442TIP3    H246742   1.239   3.041   5.731 -1.7909  0.4289 -1.7288
 8443TIP3   OH246743   2.886   5.734  14.861  0.3172  0.4279 -0.1760
 8443TIP3    H146744   2.949   5.776  14.801 -0.4383  1.7721 -0.0725
 8443TIP3    H246745   2.809   5.717  14.807  0.3402 -0.1648 -0.0309
 8444TIP3   OH246746   3.013   5.773  11.134 -0.3550  0.1899  0.3689
 8444TIP3    H146747   2.980   5.720  11.207  1.0557  1.7198  2.2074
 8444TIP3    H246748   3.063   5.843  11.176 -1.9086  2.8613 -1.9313
 8445TIP3   OH246749   4.423   1.863   5.259  0.2315  0.5769 -0.2252
 8445TIP3    H146750   4.390   1.799   5.197  0.6656  0.2893 -0.1652
 8445TIP3    H246751   4.508   1.889   5.224  1.1352 -0.6422  0.9558
 8446TIP3   OH246752   4.779   5.839   1.682  0.3697 -0.2695 -0.0517
 8446TIP3    H146753   4.732   5.767   1.724 -0.0218 -0.6921 -1.1593
 8446TIP3    H246754   4.870   5.811   1.683  0.3011 -0.4948  0.0784
 8447TIP3   OH246755   4.860   0.430   1.718 -0.1627  0.0142  0.4862
 8447TIP3    H146756   4.785   0.372   1.708 -1.0293  0.9713  1.1822
 8447TIP3    H246757   4.925   0.396   1.656 -0.4981 -1.8645  1.0961
 8448TIP3   OH246758   1.783   2.217   5.478 -0.3087 -0.4414  0.8261
 8448TIP3    H146759   1.705   2.252   5.521  0.3490  1.1142  0.8303
 8448TIP3    H246760   1.845   2.200   5.550 -0.2403 -0.5848  0.7340
 8449TIP3   OH246761   1.764   0.189  14.328  0.6867  0.1681 -0.2621
 8449TIP3    H146762   1.785   0.176  14.421 -1.5133 -2.8697 -0.0595
 8449TIP3    H246763   1.693   0.252  14.328  0.9726  0.4980  0.0620
 8450TIP3   OH246764   2.696   4.303  11.216  0.0126 -0.0452 -0.5606
 8450TIP3    H146765   2.682   4.382  11.164  0.8724  1.1355  0.9222
 8450TIP3    H246766   2.609   4.283  11.252  0.2361  1.8846  1.2573
 8451TIP3   OH246767   1.915   2.207   3.073 -0.1712 -0.4310 -0.3389
 8451TIP3    H146768   1.915   2.139   3.006 -0.9921 -1.8814  1.0694
 8451TIP3    H246769   1.853   2.176   3.139 -0.2628  1.4978  0.5569
 8452TIP3   OH246770   3.457   4.299   1.727 -0.1611  0.4529  0.0974
 8452TIP3    H146771   3.428   4.272   1.639 -0.1538  1.6698 -0.3028
 8452TIP3    H246772   3.478   4.392   1.717  0.3689  0.4679  1.2696
 8453TIP3   OH246773   4.641   5.580   5.273 -0.1490  0.2443 -0.1383
 8453TIP3    H146774   4.717   5.632   5.298 -0.5531  1.1277 -0.6998
 8453TIP3    H246775   4.606   5.625   5.196  1.1166 -2.4292 -2.4355
 8454TIP3   OH246776   3.953   3.947  15.145  0.5840 -0.3392  0.4226
 8454TIP3    H146777   3.917   4.022  15.098  0.6499 -0.9129 -0.5731
 8454TIP3    H246778   4.022   3.913  15.087 -1.0203 -2.5967 -0.2878
 8455TIP3   OH246779   1.242   3.821  12.186  0.0675 -0.2134  0.6048
 8455TIP3    H146780   1.183   3.836  12.112  1.9842 -2.4594 -1.5483
 8455TIP3    H246781   1.314   3.882  12.173 -1.0513  1.7269  2.6136
 8456TIP3   OH246782   3.612   2.668  15.824 -0.0709 -0.5285 -0.3769
 8456TIP3    H146783   3.612   2.653  15.730 -2.9394  1.2670 -0.7531
 8456TIP3    H246784   3.671   2.743  15.837  0.0095 -0.5246 -0.7640
 8457TIP3   OH246785   2.770   3.837   5.103 -0.5574 -0.0902  0.0907
 8457TIP3    H146786   2.809   3.808   5.186 -2.0604  1.1112  1.2953
 8457TIP3    H246787   2.703   3.772   5.085 -0.8964  0.1731  0.3744
 8458TIP3   OH246788   0.326   3.638   4.045  0.3772 -0.5116  0.7718
 8458TIP3    H146789   0.273   3.583   3.986 -0.1528  0.8849 -0.1125
 8458TIP3    H246790   0.270   3.652   4.121 -0.7276  1.1756 -0.2718
 8459TIP3   OH246791   3.606   0.469   5.699  0.4443 -0.2224  0.4878
 8459TIP3    H146792   3.592   0.379   5.731  1.1554 -0.5594 -0.1170
 8459TIP3    H246793   3.694   0.492   5.731  1.1037 -0.5069 -1.0398
 8460TIP3   OH246794   0.366   1.238  16.781 -0.3599 -0.3208  0.0416
 8460TIP3    H146795   0.377   1.243  16.876 -3.0120 -1.3706  0.5018
 8460TIP3    H246796   0.305   1.309  16.760  0.8882  0.4799 -1.0649
 8461TIP3   OH246797   1.393   2.084  14.682 -0.4970  0.1883  0.0887
 8461TIP3    H146798   1.338   2.070  14.759 -1.0306  0.3143 -0.2591
 8461TIP3    H246799   1.402   1.997  14.643  0.6026 -0.0507  0.8246
 8462TIP3   OH246800   4.782   0.094   1.891  0.1769  0.0775  0.3954
 8462TIP3    H146801   4.689   0.105   1.912 -0.3276  1.7184 -2.2007
 8462TIP3    H246802   4.816   0.184   1.892 -0.0398  0.5933 -5.3874
 8463TIP3   OH246803   6.012   4.638  17.077  0.0683 -0.5205 -0.0232
 8463TIP3    H146804   5.943   4.617  17.014 -0.8978 -1.6732  1.3637
 8463TIP3    H246805   6.012   4.734  17.082 -2.0358 -0.5205  0.5846
 8464TIP3   OH246806   1.838   1.711   2.408 -0.2185 -0.7156 -0.2487
 8464TIP3    H146807   1.915   1.655   2.402  1.3722  1.4845 -1.3584
 8464TIP3    H246808   1.787   1.690   2.330  0.5790 -0.3230 -0.8816
 8465TIP3   OH246809   2.431   6.240   4.990  0.6631 -0.2465 -0.2921
 8465TIP3    H146810   2.436   6.162   5.046  0.5432  0.2533  0.4186
 8465TIP3    H246811   2.518   6.246   4.950  0.8000 -0.5236 -0.0455
 8466TIP3   OH246812   3.648   3.003  14.051 -0.5144 -0.0030 -0.2510
 8466TIP3    H146813   3.623   3.088  14.087  1.2933  0.0709  1.0083
 8466TIP3    H246814   3.639   2.942  14.125 -0.1102 -0.5438 -0.6374
 8467TIP3   OH246815   2.601   2.802  14.236 -0.2638  1.2123  0.3998
 8467TIP3    H146816   2.673   2.812  14.299 -0.0863  1.3275  0.1804
 8467TIP3    H246817   2.571   2.712  14.249  2.1545 -0.0390 -1.8326
 8468TIP3   OH246818   4.973   1.792   1.382  0.1274 -0.7026  0.3669
 8468TIP3    H146819   4.993   1.855   1.312 -0.4293 -0.3129  0.5517
 8468TIP3    H246820   5.034   1.720   1.367 -0.4352 -0.9436 -0.9379
 8469TIP3   OH246821   3.881   0.930   3.567 -0.2947  0.7514 -0.1433
 8469TIP3    H146822   3.879   0.997   3.635 -1.4937  0.9349 -0.3341
 8469TIP3    H246823   3.892   0.979   3.485  0.9058  0.5489 -0.1262
 8470TIP3   OH246824   1.375   1.978   2.202 -0.1252 -0.2181  0.1493
 8470TIP3    H146825   1.354   2.062   2.241  0.5528 -1.0148  2.3770
 8470TIP3    H246826   1.290   1.934   2.193 -0.1419 -1.3795  4.1880
 8471TIP3   OH246827   3.042   1.747  11.253 -0.6876 -0.2244  0.1475
 8471TIP3    H146828   2.981   1.749  11.180 -0.6109 -2.1016 -0.0166
 8471TIP3    H246829   2.988   1.725  11.329 -0.3584 -1.0477  0.1503
 8472TIP3   OH246830   3.645   1.210  17.276  0.4481 -0.1805 -0.6336
 8472TIP3    H146831   3.628   1.165  17.358  1.4769  1.3089  0.4514
 8472TIP3    H246832   3.601   1.295  17.286  1.6472  0.5114 -1.0860
 8473TIP3   OH246833   5.335   1.750  14.079  0.1952 -0.8777  0.2232
 8473TIP3    H146834   5.356   1.785  13.992  0.5561 -1.2972  0.1399
 8473TIP3    H246835   5.395   1.796  14.138 -0.7916  0.2293  0.4199
 8474TIP3   OH246836   4.984   5.293  12.403  0.3022  0.2951  0.7499
 8474TIP3    H146837   4.921   5.225  12.425 -0.6498  0.0043 -2.4944
 8474TIP3    H246838   5.058   5.247  12.364  0.1261  1.0194 -0.4754
 8475TIP3   OH246839   4.001   6.092  13.924  0.3416  0.3276  0.1970
 8475TIP3    H146840   4.027   6.099  14.016 -2.2002 -0.0355  1.0046
 8475TIP3    H246841   4.001   6.182  13.893  1.0899  0.4694  0.5671
 8476TIP3   OH246842   2.507   6.397  13.113 -0.4244 -0.2446 -0.4135
 8476TIP3    H146843   2.572   6.438  13.056 -1.4922 -0.5925 -1.9112
 8476TIP3    H246844   2.549   6.315  13.141 -0.1233 -0.3595 -1.1840
 8477TIP3   OH246845   2.494   3.944  16.697 -0.1338 -0.6784 -0.0978
 8477TIP3    H146846   2.543   3.910  16.621 -0.5784 -2.3048  0.3092
 8477TIP3    H246847   2.508   3.878  16.765 -1.1880 -0.1188  0.6698
 8478TIP3   OH246848   1.663   1.821   1.009  0.2707  0.1527 -0.2258
 8478TIP3    H146849   1.695   1.784   0.927  0.6968 -0.1910  0.0911
 8478TIP3    H246850   1.646   1.913   0.990 -1.0665 -0.2555 -1.1105
 8479TIP3   OH246851   1.371   3.370   0.904  0.3372 -0.3283 -0.0688
 8479TIP3    H146852   1.441   3.306   0.888  1.3320  0.3425  1.3420
 8479TIP3    H246853   1.316   3.328   0.970  1.0833  0.2765  0.9817
 8480TIP3   OH246854   3.754   3.975  13.574 -0.3990  0.0664 -0.6788
 8480TIP3    H146855   3.841   3.959  13.538  0.3417  0.0599  0.9975
 8480TIP3    H246856   3.718   3.887  13.589 -0.1333  0.0563 -0.0993
 8481TIP3   OH246857   1.824   2.617  15.197  0.4078 -0.3252  0.2707
 8481TIP3    H146858   1.881   2.549  15.161 -0.6862 -1.3299  0.3520
 8481TIP3    H246859   1.883   2.687  15.225  1.3854 -0.0079 -2.3422
 8482TIP3   OH246860   5.034   2.843  12.589  0.0852 -0.5065  0.0359
 8482TIP3    H146861   5.009   2.892  12.668 -0.5313 -1.4101  0.4168
 8482TIP3    H246862   5.126   2.866  12.575 -0.5088  1.8468 -0.6135
 8483TIP3   OH246863   5.279   0.466   6.544  0.1247 -0.2495 -0.5101
 8483TIP3    H146864   5.215   0.431   6.606 -1.0634  1.3144 -0.7928
 8483TIP3    H246865   5.346   0.397   6.537 -0.8601 -1.3935  0.7670
 8484TIP3   OH246866   3.046   1.968  12.344  0.0211  0.6587  0.0100
 8484TIP3    H146867   3.013   1.881  12.364  1.4969 -0.4081 -1.8059
 8484TIP3    H246868   3.010   2.024  12.412 -1.1260 -1.3279  1.1287
 8485TIP3   OH246869   3.232   5.444   1.229 -0.1345 -0.4458 -0.5230
 8485TIP3    H146870   3.162   5.503   1.201 -0.5202  0.2335  1.6990
 8485TIP3    H246871   3.311   5.498   1.230  0.1049 -0.7678 -1.3780
 8486TIP3   OH246872   5.027   0.681  14.830 -0.0691 -0.0865 -0.4087
 8486TIP3    H146873   5.046   0.741  14.902  0.6342  0.0776 -0.7150
 8486TIP3    H246874   5.076   0.602  14.851  0.3568  0.0573 -0.8262
 8487TIP3   OH246875   4.567   2.668   5.711 -0.2577 -0.6341  0.1022
 8487TIP3    H146876   4.563   2.725   5.634  2.3719  0.0254  0.3569
 8487TIP3    H246877   4.501   2.601   5.694  0.2938 -0.5782 -2.7868
 8488TIP3   OH246878   2.228   1.563   1.587  0.2901 -0.0190 -0.7310
 8488TIP3    H146879   2.259   1.649   1.560  0.2239 -0.4230 -2.2082
 8488TIP3    H246880   2.285   1.501   1.542  0.2235 -0.7646  0.1625
 8489TIP3   OH246881   3.356   6.277   0.201 -0.1417  0.0379  0.3914
 8489TIP3    H146882   3.285   6.245   0.146 -0.4750  1.1357  0.1603
 8489TIP3    H246883   3.317   6.286   0.288  0.2759 -1.3027  0.7423
 8490TIP3   OH246884   6.720   2.650   6.134  0.3124  0.6086 -0.0062
 8490TIP3    H146885   6.664   2.687   6.202  1.7279  0.2797  1.4030
 8490TIP3    H246886   6.676   2.570   6.106 -0.5444  1.0217  0.1443
 8491TIP3   OH246887   2.859   4.981   1.974 -0.3316 -0.1846 -0.3310
 8491TIP3    H146888   2.814   4.990   2.058 -0.0854  1.2304 -0.3203
 8491TIP3    H246889   2.946   5.017   1.990 -0.6004  1.0327 -1.4234
 8492TIP3   OH246890   2.643   5.211   5.945 -0.5659  0.3016 -0.0499
 8492TIP3    H146891   2.572   5.151   5.922 -0.1722 -0.0327 -0.4063
 8492TIP3    H246892   2.635   5.283   5.882 -0.1119 -0.1180 -0.5898
 8493TIP3   OH246893   5.474   6.447   0.894  1.0235 -0.5228 -0.5497
 8493TIP3    H146894   5.548   6.503   0.918 -0.2552  1.0364 -0.0459
 8493TIP3    H246895   5.417   6.448   0.971 -0.5361  0.0990 -1.6579
 8494TIP3   OH246896   6.665   4.586   3.214  1.0635 -0.2803  0.2607
 8494TIP3    H146897   6.592   4.544   3.260  0.0567  0.5669 -0.5060
 8494TIP3    H246898   6.670   4.540   3.130  0.1673  0.8836 -0.4503
 8495TIP3   OH246899   0.343   0.489  14.431  0.5531 -0.6291  0.0307
 8495TIP3    H146900   0.416   0.536  14.390  1.2857 -1.2950  0.5566
 8495TIP3    H246901   0.277   0.482  14.361  0.7427  0.4776 -0.2797
 8496TIP3   OH246902   6.190   1.634   0.025  0.7563 -0.6968 -0.8732
 8496TIP3    H146903   6.197   1.539   0.037 -1.0972 -0.5996  2.4541
 8496TIP3    H246904   6.175   1.668   0.114  2.1300  2.8328 -1.8131
 8497TIP3   OH246905   2.618   3.336   1.753 -0.4548  0.2013 -0.1009
 8497TIP3    H146906   2.549   3.272   1.771  0.2002 -0.3718  0.4738
 8497TIP3    H246907   2.573   3.420   1.747 -1.2648 -0.2348 -0.3226
 8498TIP3   OH246908   6.499   5.454   5.500  0.8312  0.1151 -0.2531
 8498TIP3    H146909   6.487   5.363   5.473 -0.5242  0.7509 -1.9662
 8498TIP3    H246910   6.589   5.474   5.475  1.8269 -1.2652  1.9108
 8499TIP3   OH246911   4.274   1.889  13.071  0.1433 -0.2583 -0.3706
 8499TIP3    H146912   4.259   1.795  13.077 -2.2980 -0.0435 -1.7351
 8499TIP3    H246913   4.194   1.923  13.030  1.0836  2.3735 -0.1885
 8500TIP3   OH246914   0.502   3.826   1.896  0.4457  0.2848 -0.8063
 8500TIP3    H146915   0.458   3.880   1.831 -2.6781  1.2663  1.8903
 8500TIP3    H246916   0.471   3.737   1.879 -1.5736  0.7549  0.1470
 8501TIP3   OH246917   4.551   3.447  13.515  0.4081  0.1746  0.3004
 8501TIP3    H146918   4.523   3.510  13.581 -2.1963  0.1382 -0.6531
 8501TIP3    H246919   4.563   3.365  13.564  1.1272  0.7398  1.1044
 8502TIP3   OH246920   0.453   3.408   4.751  0.0520 -0.0975  0.3592
 8502TIP3    H146921   0.479   3.319   4.728  0.2365  0.1336 -0.3664
 8502TIP3    H246922   0.527   3.462   4.724 -0.6748  0.4329 -0.6521
 8503TIP3   OH246923   4.917   4.626   2.353 -0.0805  0.1389  0.0780
 8503TIP3    H146924   4.824   4.615   2.373 -0.0704 -0.7835 -0.3331
 8503TIP3    H246925   4.919   4.692   2.284 -0.3404  0.9401  0.8113
 8504TIP3   OH246926   2.342   1.369  10.542 -0.3006  0.0120 -0.3277
 8504TIP3    H146927   2.386   1.451  10.520 -0.3708 -0.1905 -1.2866
 8504TIP3    H246928   2.255   1.376  10.503 -0.1321 -0.7116 -0.8674
 8505TIP3   OH246929   0.722   2.300  13.649 -0.5329 -0.2925 -0.1878
 8505TIP3    H146930   0.714   2.384  13.604 -2.1086 -0.1046  0.3683
 8505TIP3    H246931   0.634   2.283  13.682 -0.2137 -2.1118 -0.1849
 8506TIP3   OH246932   6.544   3.947   5.645  0.1896 -0.2252 -0.2063
 8506TIP3    H146933   6.534   4.041   5.661  1.6255  0.1110 -1.1114
 8506TIP3    H246934   6.464   3.921   5.599 -0.1884  0.5691 -0.0068
 8507TIP3   OH246935   6.757   2.144   5.387 -0.0787  0.2137  0.1558
 8507TIP3    H146936   6.734   2.107   5.301  0.0332 -1.7252  0.9220
 8507TIP3    H246937   6.804   2.225   5.366 -0.0758 -0.2027 -1.6116
 8508TIP3   OH246938   0.568   1.711  12.343  0.0009 -0.3873 -0.4817
 8508TIP3    H146939   0.574   1.754  12.428  1.3591  0.4921 -0.9789
 8508TIP3    H246940   0.572   1.617  12.363  0.6203 -0.1819  0.4089
 8509TIP3   OH246941   5.983   6.526   0.636  0.8196  0.0376 -0.1487
 8509TIP3    H146942   6.057   6.517   0.576  2.3215  0.1824  1.5796
 8509TIP3    H246943   6.018   6.578   0.709 -1.1357  0.5080  0.5080
 8510TIP3   OH246944   6.288   3.514  15.356  0.0102  1.2328 -0.2982
 8510TIP3    H146945   6.255   3.514  15.446  0.5050  0.0655 -0.0913
 8510TIP3    H246946   6.236   3.448  15.311  0.5039  1.0195 -0.5678
 8511TIP3   OH246947   4.667   4.305  14.562 -0.7030  0.0293 -0.1744
 8511TIP3    H146948   4.704   4.223  14.529 -0.2051  0.2266 -0.1077
 8511TIP3    H246949   4.621   4.342  14.487  0.2969  0.4020 -0.6217
 8512TIP3   OH246950   4.197   2.565  16.995  0.0738  0.4895 -0.3610
 8512TIP3    H146951   4.183   2.518  16.913  0.9895  1.1573 -0.9190
 8512TIP3    H246952   4.165   2.505  17.062 -3.6028  1.1396 -1.3348
 8513TIP3   OH246953   6.657   2.109   3.547 -0.3187 -0.0807 -0.0690
 8513TIP3    H146954   6.681   2.017   3.552 -0.9134 -0.1815  1.9909
 8513TIP3    H246955   6.707   2.151   3.617 -1.2127  0.8796  0.0302
 8514TIP3   OH246956   2.438   3.443  15.887 -0.0501  0.0987  0.2206
 8514TIP3    H146957   2.507   3.394  15.843 -0.4371  0.5375 -0.9194
 8514TIP3    H246958   2.361   3.428  15.832 -0.4245  1.0806  0.4760
 8515TIP3   OH246959   0.896   1.673   5.962  0.0137  0.3936 -0.4802
 8515TIP3    H146960   0.837   1.637   5.896 -0.5397 -0.2595  0.3520
 8515TIP3    H246961   0.957   1.601   5.980  1.8710  1.4397 -2.2106
 8516TIP3   OH246962   0.189   0.184  10.574 -0.2320  0.4955  0.0200
 8516TIP3    H146963   0.196   0.145  10.661  2.2233  1.0819  0.1481
 8516TIP3    H246964   0.185   0.110  10.514  0.5713  0.0669  0.4914
 8517TIP3   OH246965   4.590   5.230  11.903  0.2562  0.0971 -0.2558
 8517TIP3    H146966   4.519   5.291  11.880  1.1288  1.4086  0.4445
 8517TIP3    H246967   4.548   5.167  11.962 -0.1219  1.4493  0.9656
 8518TIP3   OH246968   6.316   1.486   5.444  0.0377 -0.0145 -0.1414
 8518TIP3    H146969   6.404   1.469   5.476  0.4262 -0.7336 -1.4893
 8518TIP3    H246970   6.271   1.527   5.517  0.9107 -1.3936  1.2251
 8519TIP3   OH246971   4.460   6.563  12.224 -0.2614 -0.0880  0.2236
 8519TIP3    H146972   4.441   6.655  12.243  0.6322  0.4448 -1.3015
 8519TIP3    H246973   4.373   6.523  12.212 -0.6295  0.8401 -0.3314
 8520TIP3   OH246974   2.871   2.336  15.300 -0.1088 -0.8172 -0.3953
 8520TIP3    H146975   2.943   2.287  15.260  1.3588  1.5521 -0.9032
 8520TIP3    H246976   2.914   2.412  15.340 -2.3239  0.6793 -0.6806
 8521TIP3   OH246977   5.730   6.210   1.482 -0.4425  0.2678  0.1315
 8521TIP3    H146978   5.667   6.139   1.475 -0.5645  0.4041 -0.1724
 8521TIP3    H246979   5.783   6.187   1.558 -0.4784 -0.1482  0.0338
 8522TIP3   OH246980   1.528   1.471   5.093  0.3297 -0.5749  0.4402
 8522TIP3    H146981   1.609   1.469   5.144  0.0060  1.0298  1.0938
 8522TIP3    H246982   1.553   1.442   5.006  1.4259 -0.9046  0.8501
 8523TIP3   OH246983   4.269   2.232   4.294  0.4652  0.2278 -0.0937
 8523TIP3    H146984   4.345   2.190   4.254  0.1313 -0.2322 -0.2407
 8523TIP3    H246985   4.278   2.213   4.388 -0.2199 -1.0347 -0.2717
 8524TIP3   OH246986   2.455   1.510   0.727 -0.8119  0.0326  0.7240
 8524TIP3    H146987   2.481   1.427   0.687  1.0768  0.7377  0.3687
 8524TIP3    H246988   2.437   1.568   0.653  0.8137  0.7772  0.8640
 8525TIP3   OH246989   2.455   4.305   5.936 -0.1256  0.2518  0.0537
 8525TIP3    H146990   2.447   4.289   6.030 -1.2519 -0.9031 -0.2081
 8525TIP3    H246991   2.366   4.323   5.907  0.2485  0.8538 -0.7599
 8526TIP3   OH246992   2.556   6.669  11.274  0.3946  0.3304 -0.7063
 8526TIP3    H146993   2.650   6.685  11.268  1.3776 -2.3620  3.4173
 8526TIP3    H246994   2.544   6.583  11.234 -0.0315  0.0302  0.0533
 8527TIP3   OH246995   3.258   5.044  13.900 -0.3714 -0.1148  0.4052
 8527TIP3    H146996   3.187   4.993  13.938 -0.9389  0.2154 -0.1780
 8527TIP3    H246997   3.259   5.017  13.808 -0.4771  0.6867  0.1633
 8528TIP3   OH246998   0.853   2.472   3.259 -0.1530 -0.3434  0.1971
 8528TIP3    H146999   0.881   2.445   3.171 -2.5518 -1.9457 -0.1613
 8528TIP3    H247000   0.848   2.390   3.308 -0.0040  0.4004  1.5064
 8529TIP3   OH247001   1.399   1.421  17.183 -0.1054  0.8971  0.1494
 8529TIP3    H147002   1.463   1.480  17.223  0.3823  0.8061 -0.4823
 8529TIP3    H247003   1.330   1.480  17.152  1.1485  1.3577 -1.9524
 8530TIP3   OH247004   2.450   5.009   5.843 -0.4794 -0.2372 -0.2691
 8530TIP3    H147005   2.394   5.086   5.857 -0.3585 -0.0464 -0.8189
 8530TIP3    H247006   2.436   4.986   5.751  0.2098 -0.2935 -0.3642
 8531TIP3   OH247007   0.581   4.350   5.956 -0.1090  0.4404 -0.4611
 8531TIP3    H147008   0.502   4.360   5.903  0.0078  0.5807 -0.6050
 8531TIP3    H247009   0.595   4.436   5.994 -1.7410 -0.2439  1.9612
 8532TIP3   OH247010   2.871   1.685  14.771 -0.1010 -0.1992  0.1859
 8532TIP3    H147011   2.823   1.704  14.691  2.3076  0.8565 -1.0916
 8532TIP3    H247012   2.878   1.769  14.816  2.1574  0.1047 -0.6312
 8533TIP3   OH247013   4.712   2.909   5.848 -0.1160 -0.7482 -0.0678
 8533TIP3    H147014   4.654   2.922   5.923  1.6790 -0.0759  1.2741
 8533TIP3    H247015   4.679   2.829   5.806 -0.4662 -1.8530  2.1421
 8534TIP3   OH247016   5.965   2.300   0.156 -0.0856  0.4124 -0.2272
 8534TIP3    H147017   5.924   2.362   0.216 -0.4920 -0.1886  0.1280
 8534TIP3    H247018   6.005   2.355   0.089  0.9853  1.1403  0.9552
 8535TIP3   OH247019   4.281   0.404   0.924  0.1845 -0.7064  0.0966
 8535TIP3    H147020   4.374   0.421   0.942  0.4878 -1.3542 -0.7820
 8535TIP3    H247021   4.269   0.312   0.948  0.1870 -1.0980 -1.3105
 8536TIP3   OH247022   2.097   1.451  15.625 -0.5524  0.2723 -0.1099
 8536TIP3    H147023   2.006   1.458  15.597 -0.4663  0.9849 -0.2349
 8536TIP3    H247024   2.142   1.523  15.580  0.0490 -0.0101  0.0286
 8537TIP3   OH247025   0.104   4.110   3.631 -0.0186  0.3061 -0.0268
 8537TIP3    H147026   0.025   4.121   3.578 -0.1257 -0.7715 -0.1306
 8537TIP3    H247027   0.076   4.056   3.705  1.0114 -1.8872 -1.1336
 8538TIP3   OH247028   0.323   2.096   0.777  0.1810  0.0154  0.0607
 8538TIP3    H147029   0.362   2.017   0.739 -1.0256 -1.8599  2.4376
 8538TIP3    H247030   0.229   2.087   0.760 -0.2410 -0.2570  2.1932
 8539TIP3   OH247031   5.074   3.889  11.570  0.3432  0.1644  0.0650
 8539TIP3    H147032   5.107   3.801  11.590 -0.8315 -0.0680  1.1521
 8539TIP3    H247033   5.092   3.940  11.648  0.9873  0.8956 -0.5519
 8540TIP3   OH247034   6.450   3.003   3.079  0.1755  0.4173 -0.2787
 8540TIP3    H147035   6.504   2.995   3.158  1.4442 -0.3292 -1.1963
 8540TIP3    H247036   6.416   3.092   3.082  0.7793  0.6238  0.7460
 8541TIP3   OH247037   3.850   2.385   4.161 -0.2617 -0.2249  0.0468
 8541TIP3    H147038   3.921   2.378   4.096  0.1990 -1.6702  0.6771
 8541TIP3    H247039   3.831   2.479   4.164  1.7083  0.2378 -0.0588
 8542TIP3   OH247040   5.315   0.735   3.613  0.5912 -0.0370 -0.4828
 8542TIP3    H147041   5.362   0.696   3.688  0.0349 -3.1963 -1.6090
 8542TIP3    H247042   5.264   0.662   3.577 -0.6864  1.8688 -2.7796
 8543TIP3   OH247043   6.377   6.231   2.540 -0.3703  0.0491  0.3012
 8543TIP3    H147044   6.384   6.325   2.525 -1.7050  0.1488  0.2111
 8543TIP3    H247045   6.331   6.198   2.462  2.7742 -1.1880 -1.2247
 8544TIP3   OH247046   6.616   3.801  11.303  0.7475 -0.6535  0.8618
 8544TIP3    H147047   6.557   3.727  11.318 -0.4003 -0.0083 -0.2489
 8544TIP3    H247048   6.648   3.789  11.214  1.1148 -0.1988  0.9310
 8545TIP3   OH247049   0.290   0.986  16.706  0.0079  0.0128  0.4658
 8545TIP3    H147050   0.325   1.073  16.724 -0.4944  0.2158  0.4790
 8545TIP3    H247051   0.356   0.945  16.650  1.3185 -0.4297  2.2663
 8546TIP3   OH247052   0.763   3.174  17.245 -0.5453 -0.2435 -0.2613
 8546TIP3    H147053   0.720   3.177  17.160  2.0221  1.5880 -1.6531
 8546TIP3    H247054   0.853   3.149  17.224  0.1990  0.4439  1.8903
 8547TIP3   OH247055   3.937   1.048   0.711  0.4454  0.5244 -0.2021
 8547TIP3    H147056   3.940   0.968   0.763 -0.6590  0.6926  0.1633
 8547TIP3    H247057   4.018   1.048   0.660  0.0332 -1.3172 -0.9310
 8548TIP3   OH247058   1.091   1.061  15.628  0.5939 -0.0694  0.1674
 8548TIP3    H147059   1.148   1.091  15.699  0.3370  0.0400  0.3318
 8548TIP3    H247060   1.146   1.003  15.575  1.2194  1.0067 -0.3914
 8549TIP3   OH247061   6.070   1.847  14.282  0.1896 -0.1645  0.1314
 8549TIP3    H147062   6.047   1.823  14.372 -1.2050  1.5685  0.2724
 8549TIP3    H247063   6.042   1.772  14.230  1.6112 -1.4795  1.1640
 8550TIP3   OH247064   3.621   6.256  14.708 -0.4306  0.2593 -0.3271
 8550TIP3    H147065   3.658   6.236  14.622 -0.5298  0.1496 -0.3449
 8550TIP3    H247066   3.607   6.170  14.749 -0.3766  0.3111 -0.1990
 8551TIP3   OH247067   4.505   1.199   0.767  0.0626  0.2308  0.5714
 8551TIP3    H147068   4.421   1.161   0.795 -0.9418  2.2545  0.5160
 8551TIP3    H247069   4.481   1.282   0.726  2.1679  1.2651  1.2830
 8552TIP3   OH247070   4.609   4.355  15.627 -0.0653  0.4453  0.1361
 8552TIP3    H147071   4.615   4.294  15.553  1.0103  0.3382  0.2969
 8552TIP3    H247072   4.515   4.359  15.647 -0.2685 -0.2689 -0.6172
 8553TIP3   OH247073   4.344   4.047   8.388  0.2997  0.0054  0.2562
 8553TIP3    H147074   4.358   3.980   8.322  0.2827  0.2541 -0.0034
 8553TIP3    H247075   4.351   4.130   8.340 -0.3914  0.1771  0.4277
 8554TIP3   OH247076   2.550   6.682   5.786  0.3685 -1.1162 -0.1994
 8554TIP3    H147077   2.574   6.693   5.878  1.0062  0.4415 -0.5281
 8554TIP3    H247078   2.508   6.764   5.762 -1.0817 -2.0410 -0.9351
 8555TIP3   OH247079   6.551   1.097  15.623 -0.6197  0.2048 -0.4993
 8555TIP3    H147080   6.545   1.193  15.618 -1.5218  0.1143 -2.1491
 8555TIP3    H247081   6.636   1.080  15.663 -0.9626  1.6869  0.9621
 8556TIP3   OH247082   4.615   5.940  14.820 -0.4420 -0.3616 -0.3114
 8556TIP3    H147083   4.535   5.926  14.871 -0.2560 -2.1645 -0.4514
 8556TIP3    H247084   4.681   5.967  14.884 -1.3726  2.3502 -0.3487
 8557TIP3   OH247085   2.868   3.089  12.597 -0.2850 -0.1080 -0.7348
 8557TIP3    H147086   2.798   3.024  12.604  1.5116 -1.9567  1.3184
 8557TIP3    H247087   2.883   3.118  12.687  0.8986  1.0163 -1.2641
 8558TIP3   OH247088   1.299   3.154   1.795 -0.5854 -0.0666  0.6238
 8558TIP3    H147089   1.274   3.244   1.775 -3.0711 -0.7232  0.4379
 8558TIP3    H247090   1.382   3.162   1.843  1.1081  2.0586 -2.2881
 8559TIP3   OH247091   0.099   4.878  11.655 -0.1312 -0.1930  0.1597
 8559TIP3    H147092   0.082   4.881  11.749 -2.3800  0.4415 -0.2186
 8559TIP3    H247093   0.128   4.966  11.633 -0.4277 -0.1033  0.1255
 8560TIP3   OH247094   0.633   4.074   5.181  0.2521  0.3781  0.0316
 8560TIP3    H147095   0.632   4.033   5.095  0.5821 -1.1730  0.7303
 8560TIP3    H247096   0.569   4.024   5.232  0.8490  0.5597  0.9920
 8561TIP3   OH247097   5.317   0.909  13.609 -0.7555  0.1778  0.5664
 8561TIP3    H147098   5.370   0.883  13.685  0.6436 -1.4898 -0.8696
 8561TIP3    H247099   5.363   0.985  13.572  1.3118 -1.7262 -1.1310
 8562TIP3   OH247100   4.300   5.824  16.448  0.3241  0.2812  0.5369
 8562TIP3    H147101   4.306   5.917  16.427  1.1967 -0.2420 -1.7315
 8562TIP3    H247102   4.206   5.807  16.454  0.1192  1.0248 -0.4365
 8563TIP3   OH247103   0.924   1.842   2.208  0.3893  0.3460 -0.1309
 8563TIP3    H147104   0.908   1.804   2.122 -0.3464  1.8768 -0.6952
 8563TIP3    H247105   0.836   1.862   2.242  0.7512  1.5322  0.1442
 8564TIP3   OH247106   0.651   6.362   0.095 -0.3470  0.1255  0.2982
 8564TIP3    H147107   0.561   6.353   0.063 -0.2958 -0.4588  0.3115
 8564TIP3    H247108   0.696   6.283   0.063  0.3315  0.7223 -0.2705
 8565TIP3   OH247109   6.072   2.241   0.521  0.6328 -0.4212 -0.1120
 8565TIP3    H147110   6.035   2.227   0.434  0.8932 -0.5776 -0.2001
 8565TIP3    H247111   6.018   2.310   0.560  1.0131  0.2322 -0.7144
 8566TIP3   OH247112   1.833   5.048   1.222  0.2227  0.8536  0.6113
 8566TIP3    H147113   1.889   5.009   1.289  1.1272  0.0523 -0.5698
 8566TIP3    H247114   1.762   5.089   1.271  0.9302  0.4169  2.0574
 8567TIP3   OH247115   0.105   2.868   0.328 -0.2671  0.3849 -0.1904
 8567TIP3    H147116   0.187   2.819   0.314  0.1855  1.7601 -3.2190
 8567TIP3    H247117   0.129   2.959   0.312 -2.2340  0.9143 -0.3092
 8568TIP3   OH247118   6.167   3.261  13.344 -0.1233  0.0949 -0.0877
 8568TIP3    H147119   6.151   3.329  13.279  0.9092  0.9783  0.5489
 8568TIP3    H247120   6.171   3.308  13.428  3.3173 -0.2619  0.0973
 8569TIP3   OH247121   4.982   1.397   2.201 -0.5784  0.1272 -0.1568
 8569TIP3    H147122   5.044   1.331   2.231 -0.2137  0.7294  0.4493
 8569TIP3    H247123   4.896   1.362   2.225 -0.3008  0.5812  1.6317
 8570TIP3   OH247124   6.459   1.948  12.310 -0.2307  0.3509  0.0766
 8570TIP3    H147125   6.457   1.951  12.406 -0.7930 -1.7217  0.1784
 8570TIP3    H247126   6.546   1.915  12.288 -0.5052 -0.3087 -0.0527
 8571TIP3   OH247127   2.105   6.156   1.000 -0.6498 -0.1564  0.0240
 8571TIP3    H147128   2.141   6.148   0.912  1.3720 -2.7535  0.9720
 8571TIP3    H247129   2.011   6.139   0.989 -0.7069  1.0262 -1.7529
 8572TIP3   OH247130   0.658   0.433   3.467  0.2873  0.2028 -0.1342
 8572TIP3    H147131   0.704   0.504   3.422 -0.9456  1.2018  0.1239
 8572TIP3    H247132   0.615   0.475   3.541 -2.5517 -0.2794 -1.3805
 8573TIP3   OH247133   3.316   3.726   3.970  0.7858  0.0608 -0.3028
 8573TIP3    H147134   3.273   3.681   4.042 -1.3244 -0.0362 -1.5371
 8573TIP3    H247135   3.409   3.715   3.987  0.3483 -0.9368  1.7720
 8574TIP3   OH247136   1.533   1.426   5.458 -0.3291 -0.6934  0.0151
 8574TIP3    H147137   1.441   1.431   5.484 -0.8907 -1.9710 -1.5638
 8574TIP3    H247138   1.570   1.356   5.512 -0.3636 -0.3933  0.4292
 8575TIP3   OH247139   0.861   5.380  11.795  0.3423  0.0640 -0.4419
 8575TIP3    H147140   0.938   5.326  11.780  0.2316 -0.1705 -0.1690
 8575TIP3    H247141   0.835   5.409  11.708  0.3339 -0.4195 -0.6033
 8576TIP3   OH247142   4.688   6.612  11.561  0.2978  0.9768  0.3903
 8576TIP3    H147143   4.750   6.577  11.625  0.7830 -0.9237 -1.0188
 8576TIP3    H247144   4.743   6.657  11.497  0.0414  1.0382  0.2115
 8577TIP3   OH247145   5.176   1.478  17.201 -0.3080 -0.2106 -0.0084
 8577TIP3    H147146   5.131   1.540  17.258 -2.2975 -0.4373 -1.2045
 8577TIP3    H247147   5.146   1.501  17.113 -2.6742 -3.9263 -0.3965
 8578TIP3   OH247148   2.360   4.616  15.832 -0.2672  0.3286 -0.4584
 8578TIP3    H147149   2.327   4.705  15.819  0.4363  0.7039  0.1718
 8578TIP3    H247150   2.450   4.619  15.799 -0.4846 -0.3719 -1.1495
 8579TIP3   OH247151   1.429   3.402   2.588 -0.5822 -0.1164  0.1366
 8579TIP3    H147152   1.400   3.362   2.670 -0.5883 -0.1665  0.1095
 8579TIP3    H247153   1.347   3.422   2.541 -0.6108  0.5635  0.4529
 8580TIP3   OH247154   5.555   1.496  16.083 -0.2519  0.0067 -0.0990
 8580TIP3    H147155   5.619   1.462  16.020  0.2232  0.7317 -0.0235
 8580TIP3    H247156   5.541   1.424  16.144  2.4808  0.6203  1.4055
 8581TIP3   OH247157   5.328   2.347  11.969 -0.4944  0.0909  0.2392
 8581TIP3    H147158   5.387   2.391  12.030 -0.2262  1.2400 -0.8083
 8581TIP3    H247159   5.334   2.254  11.992  1.4840  0.2057  0.3734
 8582TIP3   OH247160   6.401   0.963  13.666  0.3912  0.2225 -0.0831
 8582TIP3    H147161   6.440   0.878  13.645  0.7262  0.4731 -0.4762
 8582TIP3    H247162   6.309   0.954  13.641 -0.0305 -0.6436  1.5923
 8583TIP3   OH247163   2.976   6.407   6.657 -0.1489  0.0998  0.4613
 8583TIP3    H147164   3.022   6.374   6.580 -1.4250 -1.0742  0.1827
 8583TIP3    H247165   3.047   6.429   6.718  0.9105  1.4780 -1.1570
 8584TIP3   OH247166   5.488   4.331   4.331  0.3317 -0.3832 -0.2617
 8584TIP3    H147167   5.427   4.348   4.259 -0.3852  0.8006  0.5895
 8584TIP3    H247168   5.441   4.358   4.410  1.7803  0.0918  0.4744
 8585TIP3   OH247169   6.421   5.993  12.313 -0.3672  0.0358 -0.0822
 8585TIP3    H147170   6.475   6.034  12.245 -0.9161  0.9113 -0.0079
 8585TIP3    H247171   6.355   5.943  12.264 -0.3224  0.0732 -0.1807
 8586TIP3   OH247172   2.709   2.691  13.512  0.7395 -0.4085 -0.4069
 8586TIP3    H147173   2.731   2.630  13.583  0.1581 -0.9358 -0.6690
 8586TIP3    H247174   2.646   2.643  13.458  1.2041 -0.0261 -1.3060
 8587TIP3   OH247175   6.603   0.393   2.442  0.4291  0.7775 -0.5442
 8587TIP3    H147176   6.616   0.332   2.514  1.1379  1.0986 -0.3929
 8587TIP3    H247177   6.614   0.480   2.481 -0.7815  1.0212 -0.7113
 8588TIP3   OH247178   2.211   3.024   4.173  0.1554  0.4894  0.1178
 8588TIP3    H147179   2.134   3.056   4.221 -1.1786 -1.0027 -0.9425
 8588TIP3    H247180   2.175   2.971   4.102  2.1421  0.7798 -1.1927
 8589TIP3   OH247181   4.343   6.487   1.883  1.1028 -0.5574 -0.0746
 8589TIP3    H147182   4.418   6.545   1.896 -0.0948  1.0780 -0.1575
 8589TIP3    H247183   4.289   6.500   1.961  0.7315 -1.4605 -0.1666
 8590TIP3   OH247184   1.697   1.450   0.074 -0.1381  0.5659 -0.3127
 8590TIP3    H147185   1.611   1.468   0.111 -0.5176 -2.2491  0.4299
 8590TIP3    H247186   1.703   1.507  -0.003 -3.5203 -0.5039 -1.5410
 8591TIP3   OH247187   0.072   5.916  14.800 -0.4030 -0.0013  0.2340
 8591TIP3    H147188   0.160   5.942  14.827 -0.6722  2.0379 -0.6754
 8591TIP3    H247189   0.014   5.983  14.837 -1.2691  0.1465 -1.2880
 8592TIP3   OH247190   1.591   0.347   3.974 -0.0708 -0.1648  0.4109
 8592TIP3    H147191   1.617   0.435   4.004  0.7253 -0.4938  0.7185
 8592TIP3    H247192   1.605   0.291   4.050 -3.2767 -0.1474  1.1698
 8593TIP3   OH247193   2.756   0.526   2.649  0.2142  0.2093  0.6552
 8593TIP3    H147194   2.744   0.432   2.662  2.0026  0.0496  1.5072
 8593TIP3    H247195   2.731   0.566   2.732  2.7685  0.0964  1.5683
 8594TIP3   OH247196   6.316   2.999  15.018 -0.0361 -0.1899  0.1728
 8594TIP3    H147197   6.359   2.932  14.965 -0.7556 -0.2282 -0.3806
 8594TIP3    H247198   6.227   2.966  15.031 -0.5384  0.8498 -0.4825
 8595TIP3   OH247199   1.915   6.226   3.558 -0.0409 -0.3729  0.2507
 8595TIP3    H147200   1.937   6.169   3.632  1.9085  0.4748  0.3873
 8595TIP3    H247201   1.936   6.314   3.589 -1.9054  0.3326 -0.3563
 8596TIP3   OH247202   1.603   0.594   3.204  0.1009 -0.1639 -0.0213
 8596TIP3    H147203   1.688   0.638   3.199 -0.7844  2.0615  2.4931
 8596TIP3    H247204   1.596   0.564   3.294 -1.0009 -2.1061 -0.6961
 8597TIP3   OH247205   1.012   3.549  17.116 -0.1055  0.1421 -0.1392
 8597TIP3    H147206   1.052   3.630  17.084 -0.4370  0.7767  0.9928
 8597TIP3    H247207   0.919   3.568  17.123 -0.3740 -0.7479 -1.0266
 8598TIP3   OH247208   4.363   1.558   2.072 -0.6384  0.0466  0.1104
 8598TIP3    H147209   4.328   1.544   2.160  0.2313 -0.2948  0.4056
 8598TIP3    H247210   4.397   1.648   2.074 -0.2669 -0.0983  0.2387
 8599TIP3   OH247211   2.526   2.652  11.941 -0.8886  0.1037  0.3070
 8599TIP3    H147212   2.445   2.639  11.989 -1.2539  2.5878  0.4811
 8599TIP3    H247213   2.501   2.649  11.848 -0.8102 -1.1034  0.3159
 8600TIP3   OH247214   5.606   0.533  15.918 -0.3871 -0.1369 -0.3790
 8600TIP3    H147215   5.673   0.585  15.874 -0.0964 -1.1173 -1.1240
 8600TIP3    H247216   5.528   0.588  15.918  0.0585  0.4938 -0.6878
 8601TIP3   OH247217   5.002   4.585  14.763 -0.1404 -0.3947  0.5102
 8601TIP3    H147218   4.935   4.518  14.775 -0.5535 -0.2977 -1.0739
 8601TIP3    H247219   4.953   4.666  14.751  0.2669 -0.2530 -0.2496
 8602TIP3   OH247220   6.431   2.412   5.391 -0.1193  0.4904 -0.0279
 8602TIP3    H147221   6.405   2.324   5.364  1.2930  0.4641 -1.4602
 8602TIP3    H247222   6.496   2.397   5.460 -1.7540  0.5140  1.6087
 8603TIP3   OH247223   5.968   5.948   0.594 -0.7279  0.1013 -0.0423
 8603TIP3    H147224   6.050   5.901   0.581 -1.3336 -1.0529  0.1208
 8603TIP3    H247225   5.927   5.904   0.668 -1.6534  0.4369 -0.3411
 8604TIP3   OH247226   0.730   1.804   3.965  0.4951 -0.5966 -0.4446
 8604TIP3    H147227   0.656   1.747   3.986 -0.1164  0.0970 -0.6576
 8604TIP3    H247228   0.750   1.848   4.048  0.7272 -0.8523 -0.3656
 8605TIP3   OH247229   6.361   3.971   4.751  0.0615  0.0846  0.4374
 8605TIP3    H147230   6.356   3.921   4.669  2.8120  1.3202 -0.5956
 8605TIP3    H247231   6.272   4.005   4.763 -0.4059  0.0039 -2.1309
 8606TIP3   OH247232   1.143   5.940   3.458  0.3478 -0.4577 -0.1475
 8606TIP3    H147233   1.099   6.025   3.463 -0.4869 -0.8424 -0.7802
 8606TIP3    H247234   1.080   5.883   3.415  1.9256 -0.7041 -2.3182
 8607TIP3   OH247235   1.109   6.675  12.926  0.0875  0.1914 -0.1974
 8607TIP3    H147236   1.131   6.592  12.967  1.3745 -0.1781 -1.5602
 8607TIP3    H247237   1.018   6.692  12.953  0.3359 -0.8406  1.3718
 8608TIP3   OH247238   0.978   1.534   4.820  0.2787  0.5068 -0.0666
 8608TIP3    H147239   0.997   1.496   4.734 -1.5910 -0.2939 -0.1914
 8608TIP3    H247240   1.061   1.570   4.850  1.6909 -1.9088 -0.8568
 8609TIP3   OH247241   6.060   2.949   1.739 -0.4178 -0.0796  0.2272
 8609TIP3    H147242   6.011   2.912   1.813 -0.0967 -1.6425 -0.3067
 8609TIP3    H247243   5.995   2.961   1.670 -0.0085 -3.0734 -0.8237
 8610TIP3   OH247244   5.979   6.612   4.420  0.5056  0.0990  0.0010
 8610TIP3    H147245   5.974   6.706   4.433  0.5143  0.0495  0.3766
 8610TIP3    H247246   5.995   6.601   4.326 -0.0314  0.4534 -0.1340
 8611TIP3   OH247247   0.553   3.004   3.515 -0.5071 -0.5426  0.7141
 8611TIP3    H147248   0.603   2.989   3.595 -1.1287  1.6520  1.6062
 8611TIP3    H247249   0.467   2.966   3.533 -0.7319  0.1764  1.2410
 8612TIP3   OH247250   2.225   5.699  15.417 -0.3628  0.3672  0.9237
 8612TIP3    H147251   2.153   5.654  15.460 -0.7268  0.0758  0.0152
 8612TIP3    H247252   2.292   5.708  15.486 -0.6146 -0.7895  1.3340
 8613TIP3   OH247253   5.529   0.275  16.006 -0.1922  0.0702 -0.0920
 8613TIP3    H147254   5.575   0.354  15.980  0.9264 -0.7188 -0.6115
 8613TIP3    H247255   5.463   0.261  15.937 -2.0271  1.7823  1.1980
 8614TIP3   OH247256   1.480   4.127  11.807 -0.0385 -0.3865 -0.3529
 8614TIP3    H147257   1.521   4.157  11.888 -0.4945  0.9485 -0.5938
 8614TIP3    H247258   1.551   4.084  11.759  0.8271  0.9047 -0.2762
 8615TIP3   OH247259   6.522   2.171  11.141 -0.0367  0.2709 -0.3609
 8615TIP3    H147260   6.527   2.095  11.198 -0.0583  0.4846 -0.0739
 8615TIP3    H247261   6.432   2.169  11.107 -0.1072  0.2992 -0.1753
 8616TIP3   OH247262   2.377   4.275   1.902  0.0620  0.2041  0.1204
 8616TIP3    H147263   2.460   4.284   1.856 -0.2630 -1.2745 -0.8278
 8616TIP3    H247264   2.398   4.293   1.994  1.7517 -1.4883  0.1299
 8617TIP3   OH247265   0.464   3.396  16.878 -1.2709 -0.1123  0.4016
 8617TIP3    H147266   0.459   3.301  16.879  1.6905 -0.3894 -1.2410
 8617TIP3    H247267   0.494   3.420  16.966 -1.4239 -0.7310  0.6258
 8618TIP3   OH247268   3.624   2.130  10.554  0.1720 -0.6576 -0.5744
 8618TIP3    H147269   3.632   2.052  10.499  3.0583  0.9357 -2.6942
 8618TIP3    H247270   3.712   2.141  10.591 -0.2548  1.4036 -0.0790
 8619TIP3   OH247271   1.176   4.312  15.884  0.4691 -0.0655 -0.3594
 8619TIP3    H147272   1.125   4.316  15.803 -1.2162 -0.5870  0.6288
 8619TIP3    H247273   1.114   4.337  15.953  2.2707  1.9581  0.6389
 8620TIP3   OH247274   3.075   0.598   0.845 -0.2189 -0.2617  0.2148
 8620TIP3    H147275   3.171   0.591   0.845 -0.0653  0.2531 -3.3640
 8620TIP3    H247276   3.058   0.690   0.864  0.1044 -0.0309 -0.5665
 8621TIP3   OH247277   2.432   6.102   2.228 -0.0267  0.8200  0.5871
 8621TIP3    H147278   2.376   6.110   2.150  0.1301 -1.2266  0.2191
 8621TIP3    H247279   2.516   6.137   2.200 -0.1052  0.5333 -0.0233
 8622TIP3   OH247280   6.323   3.608   3.442 -0.0951  0.2861  0.2527
 8622TIP3    H147281   6.320   3.517   3.413  1.1158 -0.1877  1.4675
 8622TIP3    H247282   6.405   3.642   3.405  0.0254  0.5322  0.7387
 8623TIP3   OH247283   4.350   2.223  15.249 -0.6595 -0.3524 -0.2743
 8623TIP3    H147284   4.436   2.262  15.264 -0.9508  0.1863  0.0219
 8623TIP3    H247285   4.359   2.132  15.276  0.1936 -0.6693 -1.5242
 8624TIP3   OH247286   2.220   6.631  14.181  0.2762 -0.0908 -0.1852
 8624TIP3    H147287   2.191   6.544  14.208  0.6820 -0.7179 -1.6963
 8624TIP3    H247288   2.151   6.664  14.125 -0.0622  0.7597  0.6873
 8625TIP3   OH247289   4.536   3.792   6.728  0.0014 -0.0256 -0.0809
 8625TIP3    H147290   4.521   3.885   6.707 -0.7164 -0.1822 -0.2867
 8625TIP3    H247291   4.625   3.775   6.696 -0.3655  0.2415 -1.2885
 8626TIP3   OH247292   1.671   6.742   1.170 -0.0523  0.9762 -0.5179
 8626TIP3    H147293   1.714   6.753   1.254  0.4166  1.6239 -0.8235
 8626TIP3    H247294   1.638   6.652   1.170 -0.2724  1.0491  0.4443
 8627TIP3   OH247295   5.580   5.225  17.164 -0.3426  0.6585  0.0516
 8627TIP3    H147296   5.544   5.138  17.142  0.1191  0.2915  0.7249
 8627TIP3    H247297   5.512   5.266  17.217 -1.1681  1.2802 -1.4154
 8628TIP3   OH247298   4.005   3.769   1.734 -0.1027  0.3830 -0.1945
 8628TIP3    H147299   4.017   3.823   1.656 -0.3652  1.0452  0.2071
 8628TIP3    H247300   3.943   3.819   1.788 -0.6254 -0.4892  0.0422
 8629TIP3   OH247301   3.411   0.703   3.771 -0.3126  0.3916 -0.6609
 8629TIP3    H147302   3.427   0.658   3.854 -2.2012  1.1065  0.1566
 8629TIP3    H247303   3.492   0.750   3.752  0.2573 -0.0415  0.6242
 8630TIP3   OH247304   1.131   3.496  15.884  0.0501  0.2458 -0.0590
 8630TIP3    H147305   1.078   3.575  15.874  2.3046  1.9118  0.4825
 8630TIP3    H247306   1.142   3.487  15.979 -0.9180 -1.3066 -0.0471
 8631TIP3   OH247307   4.981   0.754  11.294  0.5113 -0.5875  0.2275
 8631TIP3    H147308   4.988   0.660  11.307  1.1119 -0.4913  0.6085
 8631TIP3    H247309   4.989   0.766  11.199  0.2011 -0.9341  0.1547
 8632TIP3   OH247310   1.602   5.953  11.625 -0.4595 -0.5668  0.5774
 8632TIP3    H147311   1.601   6.018  11.695  0.3488  1.8310 -1.4767
 8632TIP3    H247312   1.694   5.944  11.601 -0.5958 -2.2538  0.5521
 8633TIP3   OH247313   6.293   0.307  14.573  0.5009 -0.4930 -0.5407
 8633TIP3    H147314   6.286   0.294  14.478  1.0917  0.8580 -0.7866
 8633TIP3    H247315   6.374   0.261  14.597  0.4234 -0.7227 -0.7151
 8634TIP3   OH247316   0.477   0.776   5.579  0.7984  0.3005  0.1081
 8634TIP3    H147317   0.565   0.739   5.586  1.2198  1.4460  1.2707
 8634TIP3    H247318   0.456   0.807   5.667 -1.6101 -1.6818  0.3662
 8635TIP3   OH247319   5.075   0.045   2.196  0.1424 -0.0972  0.0318
 8635TIP3    H147320   5.041  -0.044   2.207  1.4251 -0.8778 -1.7867
 8635TIP3    H247321   5.090   0.053   2.102  0.1898  2.0206  0.1746
 8636TIP3   OH247322   1.813   4.347   6.258  0.0243  0.0585  0.1178
 8636TIP3    H147323   1.791   4.317   6.169 -1.0441  1.4999 -0.1358
 8636TIP3    H247324   1.892   4.400   6.246  0.3367 -0.3855  0.1647
 8637TIP3   OH247325   3.897   4.686   1.949 -0.1633 -0.2282 -0.0155
 8637TIP3    H147326   3.892   4.779   1.928  1.4976 -0.1764 -0.2567
 8637TIP3    H247327   3.935   4.646   1.871 -1.1658 -1.1881 -0.0482
 8638TIP3   OH247328   5.684   5.280   3.401  0.0224  0.6340 -0.7570
 8638TIP3    H147329   5.626   5.351   3.376  0.9958  1.5496 -0.4954
 8638TIP3    H247330   5.675   5.273   3.496 -1.0448 -0.4844 -0.9231
 8639TIP3   OH247331   5.248   0.033  14.008 -0.0236  0.2265 -0.1177
 8639TIP3    H147332   5.174  -0.028  14.015 -0.7587  1.2297  1.5818
 8639TIP3    H247333   5.207   0.117  13.987  0.8940  0.3456 -1.5527
 8640TIP3   OH247334   3.988   6.409  13.847 -0.6578 -0.6577  0.1431
 8640TIP3    H147335   3.979   6.494  13.805 -0.2963 -0.4723  0.4336
 8640TIP3    H247336   4.017   6.429  13.936  1.8349 -1.1599 -0.4823
 8641TIP3   OH247337   4.691   2.588   6.440 -0.1652  0.1408 -0.2246
 8641TIP3    H147338   4.627   2.659   6.432  0.2511  0.5455 -0.0339
 8641TIP3    H247339   4.761   2.625   6.494  0.2201 -0.2971 -0.4147
 8642TIP3   OH247340   2.489   6.132  16.353  0.0295 -0.0804  0.1888
 8642TIP3    H147341   2.478   6.056  16.297  1.9101 -0.7395  0.6650
 8642TIP3    H247342   2.538   6.195  16.300  0.6026 -0.1658  0.6096
 8643TIP3   OH247343   3.062   6.713   2.064 -0.4115 -0.9267  0.2931
 8643TIP3    H147344   3.018   6.778   2.120 -2.7746 -1.6110 -0.6715
 8643TIP3    H247345   3.155   6.737   2.069 -1.0244  1.6174  1.1352
 8644TIP3   OH247346   5.451   5.422  14.371  0.3678 -0.9086  0.3095
 8644TIP3    H147347   5.546   5.429  14.362  0.3279 -1.2102 -0.4268
 8644TIP3    H247348   5.422   5.381  14.289 -0.3940 -0.8344  0.5329
 8645TIP3   OH247349   1.805   2.121  15.014  0.6039 -0.1171  0.0931
 8645TIP3    H147350   1.801   2.183  15.087  0.7577  0.5720 -0.4747
 8645TIP3    H247351   1.717   2.085  15.008  0.5650 -0.1092  0.5536
 8646TIP3   OH247352   0.709   2.620  11.569 -0.0358 -0.3509 -0.2163
 8646TIP3    H147353   0.751   2.548  11.615 -2.1901 -1.0290  0.8037
 8646TIP3    H247354   0.626   2.634  11.615 -0.5818  1.4729 -1.5991
 8647TIP3   OH247355   0.281   3.937   2.987  0.3427  0.0621  0.7421
 8647TIP3    H147356   0.246   3.957   2.900  0.6582 -0.5626  0.4626
 8647TIP3    H247357   0.371   3.907   2.970  0.6065  0.4839  1.3350
 8648TIP3   OH247358   3.695   5.853  11.772  0.6773 -0.2313 -0.1249
 8648TIP3    H147359   3.602   5.871  11.787  0.9273  3.0276 -1.6195
 8648TIP3    H247360   3.740   5.926  11.815  2.3783 -0.5148 -1.3339
 8649TIP3   OH247361   2.949   5.494   3.863 -0.6004 -0.3859  1.0004
 8649TIP3    H147362   2.961   5.415   3.915  0.2936 -0.7017  0.3296
 8649TIP3    H247363   3.023   5.495   3.803 -2.1743 -0.6282 -1.0619
 8650TIP3   OH247364   4.483   1.783   1.317 -1.0554 -0.0444 -0.2835
 8650TIP3    H147365   4.560   1.740   1.281  0.2720  1.2990  0.8068
 8650TIP3    H247366   4.409   1.743   1.271  0.3393 -0.5987 -2.1557
 8651TIP3   OH247367   3.815   4.126   3.185 -0.4055  0.2771  0.1716
 8651TIP3    H147368   3.789   4.167   3.103  0.3571  1.0477  0.2974
 8651TIP3    H247369   3.743   4.145   3.245 -1.6355 -1.4786 -0.6433
 8652TIP3   OH247370   0.235   2.939  14.686 -0.5139 -0.3792 -0.4018
 8652TIP3    H147371   0.226   3.013  14.625 -0.5006 -0.1453 -0.1220
 8652TIP3    H247372   0.316   2.958  14.734 -0.2831 -0.7911 -0.6189
 8653TIP3   OH247373   5.509   0.983   0.448 -0.1260  0.0345  0.4662
 8653TIP3    H147374   5.452   1.044   0.494 -0.3682 -0.2796  0.5872
 8653TIP3    H247375   5.597   1.007   0.477 -0.1042  1.1080 -0.4133
 8654TIP3   OH247376   6.591   0.838  10.949 -0.2771  0.0148 -0.5851
 8654TIP3    H147377   6.509   0.829  10.900 -0.2197 -0.7038 -0.5737
 8654TIP3    H247378   6.602   0.932  10.961 -0.3711  0.2034 -1.8152
 8655TIP3   OH247379   4.565   5.319   1.595  0.1239 -0.9738 -0.3621
 8655TIP3    H147380   4.513   5.243   1.570  0.4150 -1.0739 -0.6728
 8655TIP3    H247381   4.590   5.359   1.512 -0.0869 -0.4962 -0.1979
 8656TIP3   OH247382   1.001   2.609  14.829  0.0529  0.1422 -0.2592
 8656TIP3    H147383   1.026   2.518  14.816  0.2804  0.3625 -1.4502
 8656TIP3    H247384   0.917   2.618  14.784 -0.4895  0.2676  0.7523
 8657TIP3   OH247385   2.840   2.447   0.145 -0.1693 -0.1820 -0.0640
 8657TIP3    H147386   2.914   2.421   0.200 -0.1696 -1.8112 -0.7817
 8657TIP3    H247387   2.781   2.492   0.205  0.8283  0.0432  0.7879
 8658TIP3   OH247388   1.062   6.123   1.205 -0.1051  0.1585 -0.1533
 8658TIP3    H147389   0.992   6.059   1.220  0.3266 -0.5155 -0.9598
 8658TIP3    H247390   1.084   6.155   1.293 -0.0043 -1.1544  0.3201
 8659TIP3   OH247391   1.248   6.694  16.153  0.1496 -0.9178  0.0789
 8659TIP3    H147392   1.331   6.716  16.194 -0.2264 -1.9190  1.4343
 8659TIP3    H247393   1.212   6.623  16.206 -0.8920 -1.5129 -1.3346
 8660TIP3   OH247394   6.623   0.276   2.672  0.3962  0.0341 -0.4137
 8660TIP3    H147395   6.530   0.293   2.688  0.6556  1.2639 -0.1195
 8660TIP3    H247396   6.668   0.322   2.743  1.1175 -3.4959  1.6617
 8661TIP3   OH247397   3.448   0.291   0.851 -0.2547  0.3506  0.1239
 8661TIP3    H147398   3.355   0.271   0.863 -0.6511  1.1045 -1.3441
 8661TIP3    H247399   3.460   0.292   0.756  1.2369  0.3972  0.2820
 8662TIP3   OH247400   6.239   4.443  13.398  0.1181 -0.7061  0.0011
 8662TIP3    H147401   6.228   4.433  13.492  1.0789 -1.2848  0.0686
 8662TIP3    H247402   6.228   4.537  13.382  0.0199 -0.5936  0.6920
 8663TIP3   OH247403   1.530   2.114  16.494 -0.2201  0.7095  0.6451
 8663TIP3    H147404   1.463   2.046  16.505 -2.1330  2.6059  1.4895
 8663TIP3    H247405   1.562   2.101  16.405 -0.4280 -1.3480  0.8147
 8664TIP3   OH247406   4.887   5.138   0.312  0.7643 -0.2384 -0.4814
 8664TIP3    H147407   4.888   5.141   0.407  2.2233  1.3084 -0.5029
 8664TIP3    H247408   4.979   5.143   0.286  0.4006 -0.6447 -1.9705
 8665TIP3   OH247409   3.030   1.358   0.075 -0.0032 -0.5814  0.4512
 8665TIP3    H147410   3.066   1.446   0.066  0.8654 -1.0953 -1.9026
 8665TIP3    H247411   2.941   1.364   0.042  1.1893 -1.1785 -3.4065
 8666TIP3   OH247412   4.544   0.287  14.931 -0.1892  0.4969  0.6963
 8666TIP3    H147413   4.483   0.226  14.973  0.7388  0.0892  1.4742
 8666TIP3    H247414   4.544   0.364  14.988  0.8366  0.0634  1.3075
 8667TIP3   OH247415   4.433   4.048   2.025  0.1323  0.7985 -0.3837
 8667TIP3    H147416   4.478   3.967   2.002  1.0200  0.6592  1.6412
 8667TIP3    H247417   4.481   4.117   1.979 -0.8831  0.2106 -2.4631
 8668TIP3   OH247418   5.555   5.637   1.956  0.2539  0.0694  0.1505
 8668TIP3    H147419   5.604   5.558   1.933  0.5303  0.0101  0.9176
 8668TIP3    H247420   5.571   5.649   2.050 -1.6025 -0.2254  0.5448
 8669TIP3   OH247421   1.482   0.881  11.232  0.0836 -0.1162  0.1817
 8669TIP3    H147422   1.483   0.796  11.275  0.4451 -0.4339 -0.4336
 8669TIP3    H247423   1.563   0.923  11.260 -0.3246  0.2390  0.8741
 8670TIP3   OH247424   4.476   2.246   1.376 -0.1333  0.0513  0.2415
 8670TIP3    H147425   4.415   2.256   1.449 -1.3149  2.5779 -0.9435
 8670TIP3    H247426   4.440   2.173   1.325 -0.6628 -0.1788  0.9252
 8671TIP3   OH247427   5.030   1.547   1.650  0.2221  0.0322 -0.1944
 8671TIP3    H147428   5.105   1.551   1.709 -0.2739  1.1196  0.4107
 8671TIP3    H247429   5.065   1.567   1.564  0.5305  1.2668  0.1953
 8672TIP3   OH247430   6.683   5.811   2.143 -0.3402  0.2109  0.1466
 8672TIP3    H147431   6.597   5.835   2.110  0.0535  0.4585 -0.7334
 8672TIP3    H247432   6.744   5.860   2.089  0.3715 -0.1992  0.5550
 8673TIP3   OH247433   2.605   4.933  11.240  0.4215 -0.1998  0.5797
 8673TIP3    H147434   2.554   5.004  11.200 -0.2022 -1.1481 -0.3519
 8673TIP3    H247435   2.539   4.877  11.280  0.7998 -0.9286  0.1977
 8674TIP3   OH247436   0.855   1.135   1.236 -0.3945  0.5230  0.7024
 8674TIP3    H147437   0.815   1.221   1.231 -0.2539  0.5648  0.1769
 8674TIP3    H247438   0.929   1.146   1.295  0.8980  1.3035 -0.9755
 8675TIP3   OH247439   1.003   0.227  16.610 -0.1391 -0.1217 -0.3834
 8675TIP3    H147440   0.977   0.207  16.520  0.0494  0.5807 -0.6089
 8675TIP3    H247441   1.078   0.286  16.600  0.4539 -0.7529  0.2460
 8676TIP3   OH247442   6.686   6.391  12.807 -0.3787  0.2052 -0.2834
 8676TIP3    H147443   6.705   6.370  12.898  0.0145  1.7434  0.0218
 8676TIP3    H247444   6.690   6.307  12.761 -0.4948 -0.5745  1.0906
 8677TIP3   OH247445   2.864   0.393  15.075 -0.4189 -0.7245 -0.0257
 8677TIP3    H147446   2.935   0.328  15.068  0.1362 -0.3222  1.4675
 8677TIP3    H247447   2.861   0.434  14.989 -0.4844 -2.4124 -0.8677
 8678TIP3   OH247448   3.099   5.143  11.324 -0.3304 -0.1319 -0.1618
 8678TIP3    H147449   3.187   5.162  11.357 -0.7002  0.1044  0.7386
 8678TIP3    H247450   3.097   5.048  11.316 -0.2191 -0.1992  0.5163
 8679TIP3   OH247451   5.689   0.544  14.871 -0.4636 -0.1823 -0.0505
 8679TIP3    H147452   5.704   0.632  14.907 -0.1659  0.4314 -1.5979
 8679TIP3    H247453   5.593   0.536  14.867 -0.4890  0.1669 -0.1523
 8680TIP3   OH247454   1.877   4.956   5.868 -0.1052 -0.3139 -0.2693
 8680TIP3    H147455   1.831   4.876   5.893  2.8432 -2.1585 -0.3431
 8680TIP3    H247456   1.926   4.981   5.946  1.1203 -0.1555 -1.0708
 8681TIP3   OH247457   1.351   3.050  13.023  0.4402  0.1404  0.5221
 8681TIP3    H147458   1.307   2.970  13.051  2.1671 -1.6102 -1.4584
 8681TIP3    H247459   1.291   3.089  12.960  0.7595 -1.1672 -0.6482
 8682TIP3   OH247460   2.395   1.599  12.017  0.2931  0.2860 -0.9185
 8682TIP3    H147461   2.348   1.516  12.025 -0.3665  0.6662 -0.7902
 8682TIP3    H247462   2.327   1.666  12.017  0.8071  0.8230 -1.1960
 8683TIP3   OH247463   4.555   0.009  13.230 -0.2394 -0.2807  0.9452
 8683TIP3    H147464   4.624   0.071  13.254 -0.7452  0.1274  1.3655
 8683TIP3    H247465   4.495   0.010  13.305 -0.4010 -1.0683  0.8382
 8684TIP3   OH247466   1.199   4.527  16.988  0.3595  0.0219  0.6708
 8684TIP3    H147467   1.105   4.525  17.007  0.1033 -0.8178 -0.6073
 8684TIP3    H247468   1.208   4.592  16.918  0.7065 -0.0155  0.6787
 8685TIP3   OH247469   6.621   3.713  12.536  0.4031  0.3145 -0.2014
 8685TIP3    H147470   6.686   3.735  12.469  2.5795  1.1224  2.0315
 8685TIP3    H247471   6.664   3.647  12.591 -0.9622  0.3195  0.9317
 8686TIP3   OH247472   6.195   5.753   5.675  0.0001 -0.5881 -0.3028
 8686TIP3    H147473   6.214   5.660   5.688 -0.8761 -0.6531  0.5804
 8686TIP3    H247474   6.190   5.789   5.764 -0.1814  0.2070 -0.6266
 8687TIP3   OH247475   3.798   0.453  12.553  0.2606 -0.0261  0.3125
 8687TIP3    H147476   3.734   0.490  12.492 -1.1973 -0.0771  1.7510
 8687TIP3    H247477   3.845   0.529  12.588  0.2718  0.0986  0.0285
 8688TIP3   OH247478   5.449   0.334  16.248  0.7222 -0.4296 -0.4041
 8688TIP3    H147479   5.488   0.303  16.167  0.6548 -1.8969  0.0944
 8688TIP3    H247480   5.524   0.356  16.304  0.8447  3.1363 -1.6613
 8689TIP3   OH247481   0.321   3.507  13.580 -0.1878 -0.5817  0.2814
 8689TIP3    H147482   0.308   3.476  13.669  0.8885  1.0539  1.0295
 8689TIP3    H247483   0.314   3.602  13.585 -0.8146 -0.4873 -1.5137
 8690TIP3   OH247484   4.145   3.173   2.513 -0.1781 -0.6090 -1.0021
 8690TIP3    H147485   4.190   3.089   2.521  0.4088 -0.3071 -1.0827
 8690TIP3    H247486   4.062   3.152   2.471 -0.3247 -1.2390 -0.4086
 8691TIP3   OH247487   5.469   5.662   4.618  0.7169 -0.2039  0.0667
 8691TIP3    H147488   5.502   5.668   4.528  1.4612  2.2040  0.4146
 8691TIP3    H247489   5.507   5.582   4.653  3.0247  0.4200 -0.8296
 8692TIP3   OH247490   2.292   0.285  15.743  0.2804 -0.0704  0.3863
 8692TIP3    H147491   2.245   0.273  15.825 -0.8425  0.4438 -0.1670
 8692TIP3    H247492   2.359   0.216  15.744 -1.2553 -1.6127  0.6463
 8693TIP3   OH247493   1.618   1.286   3.435 -0.1781  0.0753 -0.4735
 8693TIP3    H147494   1.564   1.207   3.429 -0.8859  0.5115 -0.0786
 8693TIP3    H247495   1.629   1.316   3.345 -0.8425  0.1349 -0.5388
 8694TIP3   OH247496   1.049   4.029  14.394 -1.1703  0.1513 -0.0682
 8694TIP3    H147497   1.077   3.996  14.309 -2.6529 -0.1430 -0.4833
 8694TIP3    H247498   1.124   4.078  14.427  0.5471 -2.2392 -0.1527
 8695TIP3   OH247499   2.996   1.932  15.323 -0.2660 -0.7303 -0.3435
 8695TIP3    H147500   3.004   1.934  15.419 -1.0623 -2.6414 -0.2010
 8695TIP3    H247501   3.013   2.022  15.296 -0.3090 -0.0863  1.6173
 8696TIP3   OH247502   4.989   1.388   3.560  0.4171 -0.4080  0.4071
 8696TIP3    H147503   5.009   1.317   3.621  0.7571  0.4584  1.3380
 8696TIP3    H247504   4.932   1.348   3.494  1.4456 -1.7849  0.3202
 8697TIP3   OH247505   1.655   3.431   0.985  0.2542  0.9181 -0.8098
 8697TIP3    H147506   1.665   3.489   0.909  2.0562 -0.8850 -2.0626
 8697TIP3    H247507   1.645   3.344   0.947 -0.3539  0.1335  1.0383
 8698TIP3   OH247508   4.699   2.048  11.463 -0.7285  0.0518 -0.2844
 8698TIP3    H147509   4.785   2.076  11.429 -0.4614 -0.4541 -0.0307
 8698TIP3    H247510   4.688   2.099  11.543 -1.9582  2.2538 -1.7604
 8699TIP3   OH247511   3.153   1.032   4.427  0.1059  0.2494 -0.3897
 8699TIP3    H147512   3.213   1.057   4.356 -0.5269  1.1005 -0.6400
 8699TIP3    H247513   3.171   1.094   4.497  1.5370 -1.2817  0.7001
 8700TIP3   OH247514   3.012   5.156  13.695 -0.7005 -0.4479 -0.0498
 8700TIP3    H147515   3.094   5.149  13.745 -0.1098 -0.2867 -0.9752
 8700TIP3    H247516   2.963   5.226  13.739  0.7706  1.2599 -1.0094
 8701TIP3   OH247517   6.334   0.122   0.650  0.6429  0.2699  0.3259
 8701TIP3    H147518   6.395   0.077   0.708  0.1773 -1.1737 -0.2642
 8701TIP3    H247519   6.300   0.194   0.702  0.5275 -0.7531  1.7082
 8702TIP3   OH247520   3.408   0.161  15.854  0.1256  0.6375  0.0621
 8702TIP3    H147521   3.439   0.221  15.786  1.4090 -0.6370 -0.5391
 8702TIP3    H247522   3.421   0.074  15.817 -1.6813 -0.0395  0.9173
 8703TIP3   OH247523   0.683   1.300   3.433 -0.0914  0.0882  0.2305
 8703TIP3    H147524   0.717   1.289   3.344  0.0253  0.7113  0.1885
 8703TIP3    H247525   0.629   1.379   3.428  1.5002  1.3028  1.1335
 8704TIP3   OH247526   4.102   4.831  12.096 -0.0068  1.4400  0.7186
 8704TIP3    H147527   4.163   4.757  12.096  0.4133  1.7445  2.4199
 8704TIP3    H247528   4.032   4.804  12.037 -0.1403 -0.5734  1.7217
 8705TIP3   OH247529   3.622   5.243  14.456 -0.2620  0.4901  0.3287
 8705TIP3    H147530   3.620   5.152  14.426 -2.4250  0.2726  0.9261
 8705TIP3    H247531   3.560   5.289  14.399 -1.2354  0.9615  1.7004
 8706TIP3   OH247532   6.078   6.533  12.297 -0.2762  0.0425  0.0382
 8706TIP3    H147533   6.131   6.510  12.373 -1.0411 -0.2026  0.5196
 8706TIP3    H247534   6.076   6.629  12.297 -0.2265  0.0430  0.2945
 8707TIP3   OH247535   2.807   6.575  16.381  0.3955 -0.3038 -0.5532
 8707TIP3    H147536   2.769   6.489  16.404  0.0113 -0.2658 -1.0289
 8707TIP3    H247537   2.867   6.594  16.453 -2.0725  0.6446  1.4275
 8708TIP3   OH247538   0.812   5.603   3.764  0.3609 -0.3717 -0.5303
 8708TIP3    H147539   0.738   5.564   3.810 -0.7055  0.7915 -1.1876
 8708TIP3    H247540   0.869   5.529   3.742 -0.6565 -1.3054 -0.0947
 8709TIP3   OH247541   6.237   0.488   5.826 -0.0878 -0.3010 -0.4837
 8709TIP3    H147542   6.232   0.475   5.921 -1.9134  0.9988 -0.3483
 8709TIP3    H247543   6.312   0.546   5.814 -0.6722  0.6704  0.3357
 8710TIP3   OH247544   0.974   3.679   3.699  0.0927 -0.2027 -0.4511
 8710TIP3    H147545   0.982   3.735   3.776 -1.0991 -0.6565  0.0266
 8710TIP3    H247546   0.901   3.716   3.650  0.5095 -0.2284 -1.1134
 8711TIP3   OH247547   3.820   3.580   2.980 -0.1717 -0.5677  0.1622
 8711TIP3    H147548   3.773   3.587   2.897 -0.2082 -1.0625  0.1378
 8711TIP3    H247549   3.812   3.488   3.004  1.5500 -0.8707 -0.2838
 8712TIP3   OH247550   1.416   1.541  16.418  0.1393  0.1069  0.2532
 8712TIP3    H147551   1.372   1.457  16.403  1.4802 -0.3882 -1.1580
 8712TIP3    H247552   1.404   1.557  16.512 -1.2625 -0.9943  0.3070
 8713TIP3   OH247553   5.957   3.809   3.137 -0.3998 -0.4210 -0.3799
 8713TIP3    H147554   5.884   3.824   3.197  0.8707 -2.2458  1.7962
 8713TIP3    H247555   5.917   3.807   3.050 -2.5500  0.8626  0.4935
 8714TIP3   OH247556   2.229   2.054  15.136  0.4921  0.0746 -0.4159
 8714TIP3    H147557   2.252   2.069  15.045 -0.0384 -1.9863 -0.9558
 8714TIP3    H247558   2.308   2.015  15.175  1.3650  2.5970  0.5694
 8715TIP3   OH247559   5.016   5.500   5.870 -0.2220  0.6293  0.2030
 8715TIP3    H147560   4.966   5.558   5.927 -0.8525  0.6797 -0.3817
 8715TIP3    H247561   4.998   5.532   5.782  0.0303  0.0144 -0.0759
 8716TIP3   OH247562   0.320   5.075  14.891  0.3501 -0.4631  0.3211
 8716TIP3    H147563   0.341   5.071  14.984  0.4712 -1.9263  0.2569
 8716TIP3    H247564   0.338   4.987  14.858  1.2884  0.2916 -1.3056
 8717TIP3   OH247565   6.527   2.119   6.068 -0.6156 -0.3581  0.7434
 8717TIP3    H147566   6.547   2.206   6.033 -1.0589 -0.6033 -0.1449
 8717TIP3    H247567   6.431   2.117   6.076 -0.5396 -0.3409  1.9216
 8718TIP3   OH247568   1.634   5.667  11.207  0.3258 -0.3931  0.0445
 8718TIP3    H147569   1.593   5.735  11.259  0.1043 -1.2905  1.0837
 8718TIP3    H247570   1.693   5.622  11.267  1.7644 -0.0595 -1.0469
 8719TIP3   OH247571   4.858   0.442   4.518 -0.0937 -0.3913  0.3008
 8719TIP3    H147572   4.864   0.518   4.460 -2.1687 -1.7984 -1.9084
 8719TIP3    H247573   4.886   0.368   4.465 -2.0514 -1.7304  1.0395
 8720TIP3   OH247574   3.642   0.836   2.318  0.6755  0.0577  0.1688
 8720TIP3    H147575   3.573   0.845   2.253 -0.0485 -1.0867  0.7331
 8720TIP3    H247576   3.723   0.849   2.269  0.1553 -0.8046 -0.9794
 8721TIP3   OH247577   2.560   4.229   0.757 -0.2346 -0.1757 -0.4809
 8721TIP3    H147578   2.590   4.164   0.820  0.8139 -0.4817 -1.2614
 8721TIP3    H247579   2.517   4.178   0.689 -2.4702  0.2489  0.5403
 8722TIP3   OH247580   1.982   2.508  14.845 -0.6859  0.4091  0.2340
 8722TIP3    H147581   1.891   2.537  14.852 -0.6762  0.3182  0.8131
 8722TIP3    H247582   1.989   2.470  14.757 -0.8653  1.5909 -0.3096
 8723TIP3   OH247583   4.357   3.375  16.233 -0.0757 -0.3731 -0.5654
 8723TIP3    H147584   4.372   3.406  16.144 -0.6605  0.0861 -0.5062
 8723TIP3    H247585   4.306   3.445  16.275 -0.2479 -0.8160 -0.0286
 8724TIP3   OH247586   4.581   2.829  11.666 -0.5669 -0.4182  0.5642
 8724TIP3    H147587   4.514   2.852  11.601 -0.0869 -0.8261 -0.0853
 8724TIP3    H247588   4.531   2.812  11.746 -1.2228 -0.4782  0.1527
 8725TIP3   OH247589   6.130   6.064   2.753  0.1017 -0.3131  0.4127
 8725TIP3    H147590   6.087   5.992   2.708  0.0363  1.5622 -2.9082
 8725TIP3    H247591   6.066   6.095   2.817 -1.8347 -0.2679 -1.4318
 8726TIP3   OH247592   1.457   2.318   1.562 -0.4275 -0.8334 -0.0057
 8726TIP3    H147593   1.369   2.304   1.597 -0.1433  2.5799  2.6483
 8726TIP3    H247594   1.448   2.394   1.504  0.8451  0.3022  1.1992
 8727TIP3   OH247595   2.933   1.131  16.008  0.6547 -0.5072 -0.5511
 8727TIP3    H147596   2.953   1.077  16.084 -0.6510 -0.7102 -0.3416
 8727TIP3    H247597   3.007   1.115  15.948 -0.0293 -3.1159 -0.8132
 8728TIP3   OH247598   3.188   3.158  13.310 -0.1456  0.4450 -0.2679
 8728TIP3    H147599   3.274   3.199  13.325 -0.2248 -0.0227  1.8370
 8728TIP3    H247600   3.146   3.161  13.396 -1.7962 -0.3563 -1.0165
 8729TIP3   OH247601   0.384   2.038   5.554 -0.1303 -0.3563  0.0548
 8729TIP3    H147602   0.312   2.095   5.578 -0.8912 -0.7226 -1.2440
 8729TIP3    H247603   0.461   2.096   5.552 -0.3128 -0.0170  1.6658
 8730TIP3   OH247604   0.423   6.026   4.618  0.0313 -0.8651 -0.4378
 8730TIP3    H147605   0.455   6.104   4.574 -1.0738 -0.5081 -0.6360
 8730TIP3    H247606   0.468   6.025   4.702  0.5183 -0.3552 -0.6894
 8731TIP3   OH247607   6.300   0.464   3.425  0.3110 -0.1149  0.4935
 8731TIP3    H147608   6.212   0.471   3.389  0.1214  0.2338  1.0082
 8731TIP3    H247609   6.354   0.515   3.365  0.9103 -3.4414 -2.0748
 8732TIP3   OH247610   2.731   1.799   5.883 -0.8318  0.0711  0.1184
 8732TIP3    H147611   2.719   1.891   5.904 -0.6077 -0.0877  1.0159
 8732TIP3    H247612   2.758   1.798   5.791  0.1854  0.9801  0.3892
 8733TIP3   OH247613   0.620   6.728   0.346  0.3380  0.0565  0.1646
 8733TIP3    H147614   0.686   6.686   0.402  1.0216  1.1243  0.1814
 8733TIP3    H247615   0.658   6.726   0.258  0.6931  1.2210  0.2724
 8734TIP3   OH247616   4.730   1.198  11.364  0.7184  0.0959 -0.2396
 8734TIP3    H147617   4.758   1.116  11.324 -0.1778 -1.6344  2.3989
 8734TIP3    H247618   4.788   1.209  11.439 -1.8015 -0.5727  1.9947
 8735TIP3   OH247619   3.433   4.747  11.280  0.2472 -0.0363  1.0113
 8735TIP3    H147620   3.473   4.806  11.344  0.2427  1.2431 -0.1202
 8735TIP3    H247621   3.339   4.754  11.298  0.2584  0.1802  0.9970
 8736TIP3   OH247622   4.729   6.350  14.725 -0.1259  0.6718  0.0014
 8736TIP3    H147623   4.731   6.261  14.690  0.4743  0.0322  1.5662
 8736TIP3    H247624   4.646   6.386  14.695 -1.3206 -1.1303  0.9871
 8737TIP3   OH247625   0.601   6.080  15.442  0.2472 -0.3193  0.3769
 8737TIP3    H147626   0.515   6.038  15.442  0.3908 -0.6112  0.7150
 8737TIP3    H247627   0.664   6.008  15.439  0.4908 -0.1005 -1.7537
 8738TIP3   OH247628   4.326   3.860   1.751  0.2248 -0.0994 -0.0182
 8738TIP3    H147629   4.324   3.931   1.687 -0.9857 -1.1990 -1.2656
 8738TIP3    H247630   4.379   3.792   1.710  0.9099 -0.1490  0.9225
 8739TIP3   OH247631   5.250   5.929   3.315  0.1173 -0.0197  0.3879
 8739TIP3    H147632   5.299   5.896   3.240  1.2146 -0.3478  1.2244
 8739TIP3    H247633   5.215   5.851   3.357 -0.2688  0.1437  0.3695
 8740TIP3   OH247634   2.893   6.556   1.850  0.6208 -0.2092 -0.3970
 8740TIP3    H147635   2.944   6.573   1.771  0.8393 -0.6886 -0.3600
 8740TIP3    H247636   2.929   6.616   1.915  0.7607 -0.1518 -0.5259
 8741TIP3   OH247637   0.579   0.230  16.462 -0.0084  0.1810  0.2358
 8741TIP3    H147638   0.616   0.212  16.376 -1.1050 -2.5158  0.2438
 8741TIP3    H247639   0.491   0.263  16.444  1.3344  4.3390  0.2948
 8742TIP3   OH247640   4.909   1.328   5.507 -0.5162  0.3330 -0.0521
 8742TIP3    H147641   4.838   1.278   5.546 -0.4521 -0.3288 -0.7753
 8742TIP3    H247642   4.975   1.263   5.484  0.0138  0.8617 -0.0564
 8743TIP3   OH247643   0.559   1.380   1.255  0.5300 -0.0278  1.1269
 8743TIP3    H147644   0.602   1.379   1.170 -0.8642  0.8517  0.3669
 8743TIP3    H247645   0.562   1.289   1.285  0.5829 -0.4544 -0.1171
 8744TIP3   OH247646   3.927   4.544  12.632  0.4002  0.2230  0.2071
 8744TIP3    H147647   3.994   4.540  12.563  0.8110  0.2778  0.5978
 8744TIP3    H247648   3.872   4.619  12.607 -0.0919 -0.3947 -0.6216
 8745TIP3   OH247649   0.464   3.765   3.830  0.0737 -0.0552  0.3031
 8745TIP3    H147650   0.405   3.729   3.896  1.6793 -0.2635  1.6807
 8745TIP3    H247651   0.525   3.695   3.811  2.7285  1.4784  2.4058
 8746TIP3   OH247652   1.369   6.728   1.321  0.0548 -0.7013  0.4106
 8746TIP3    H147653   1.316   6.732   1.241  0.1548  1.2829  0.3887
 8746TIP3    H247654   1.445   6.677   1.296 -2.0754 -4.2903  0.6456
 8747TIP3   OH247655   6.273   0.706  15.828 -0.7558 -0.1125 -0.1840
 8747TIP3    H147656   6.184   0.731  15.853 -1.1870 -1.4919 -0.2597
 8747TIP3    H247657   6.309   0.784  15.786 -0.9955  1.3417  2.1439
 8748TIP3   OH247658   4.046   6.511  16.759 -0.2644  0.5898 -0.0983
 8748TIP3    H147659   4.116   6.456  16.723 -1.2384  0.1375 -1.3912
 8748TIP3    H247660   4.013   6.461  16.834  0.9850  0.9616  0.7248
 8749TIP3   OH247661   5.244   6.436   0.501  0.1198  0.6754 -0.2354
 8749TIP3    H147662   5.174   6.437   0.566 -1.2631 -0.0024 -1.6472
 8749TIP3    H247663   5.325   6.442   0.552 -0.9614  1.9385  1.4095
 8750TIP3   OH247664   4.408   2.303  11.093  0.6823  0.0691  0.3374
 8750TIP3    H147665   4.439   2.371  11.152  2.8938 -0.2054 -0.4023
 8750TIP3    H247666   4.425   2.221  11.139  1.9102 -0.1209 -0.4005
 8751TIP3   OH247667   1.546   3.127   0.661 -0.3388 -0.0216  0.6737
 8751TIP3    H147668   1.559   3.138   0.755  0.4577 -0.5786  0.6439
 8751TIP3    H247669   1.570   3.035   0.645  1.3852  0.5728 -0.3668
 8752TIP3   OH247670   1.932   2.838  14.243 -0.3169  0.0175  0.1520
 8752TIP3    H147671   1.973   2.847  14.157  0.5174  2.5749  0.7479
 8752TIP3    H247672   2.005   2.836  14.305 -0.9769  0.7892  0.9752
 8753TIP3   OH247673   2.135   4.494   2.710 -0.3702 -0.0304 -0.0824
 8753TIP3    H147674   2.088   4.504   2.793  0.8101 -0.1628  0.6336
 8753TIP3    H247675   2.216   4.449   2.734  0.7761  1.4146 -1.0189
 8754TIP3   OH247676   5.636   1.209  15.421 -0.4792 -0.7192  0.1364
 8754TIP3    H147677   5.557   1.155  15.428 -0.7537 -0.3549 -0.0637
 8754TIP3    H247678   5.604   1.298  15.436  0.1334 -0.7100  1.4936
 8755TIP3   OH247679   0.341   2.999   0.130  0.0530  0.5543 -0.4092
 8755TIP3    H147680   0.388   3.021   0.210  1.2820 -0.3978 -0.8456
 8755TIP3    H247681   0.294   3.079   0.107  0.5201  1.1559  0.6823
 8756TIP3   OH247682   3.172   1.098   5.073 -0.4077  0.0643  0.2409
 8756TIP3    H147683   3.105   1.160   5.102 -0.1901 -0.2625  1.4905
 8756TIP3    H247684   3.224   1.148   5.009 -0.4685  1.0545  0.9375
 8757TIP3   OH247685   1.110   0.987   4.881 -0.4244  1.1597  0.4558
 8757TIP3    H147686   1.088   0.894   4.870 -1.5891  1.4479  0.2256
 8757TIP3    H247687   1.204   0.987   4.895 -0.4723 -0.1010  0.9547
 8758TIP3   OH247688   4.384   1.586  14.434 -0.2928 -0.4052 -1.2806
 8758TIP3    H147689   4.370   1.495  14.409  0.2547 -0.9502  0.2678
 8758TIP3    H247690   4.478   1.591  14.455 -0.5564  0.1844 -0.1442
 8759TIP3   OH247691   0.934   1.432  12.492 -0.7270 -0.6543 -0.0039
 8759TIP3    H147692   0.917   1.345  12.453 -1.2763 -0.1719 -0.8845
 8759TIP3    H247693   0.900   1.494  12.427 -0.1693  0.2320  0.5342
 8760TIP3   OH247694   2.563   0.331  16.350  0.0972 -0.0958 -0.2736
 8760TIP3    H147695   2.581   0.237  16.353  0.4812 -0.0173 -0.1125
 8760TIP3    H247696   2.622   0.365  16.284 -0.3099 -0.0240 -0.6042
 8761TIP3   OH247697   2.722   3.887  11.336  0.1911  0.5083 -0.6037
 8761TIP3    H147698   2.731   3.914  11.244  0.3494  0.0731 -0.7205
 8761TIP3    H247699   2.643   3.931  11.367  0.5171  1.1967 -0.7505
 8762TIP3   OH247700   2.851   1.938  14.896  0.0754 -0.5058 -0.4362
 8762TIP3    H147701   2.789   1.997  14.940  1.3643  0.2189  0.4776
 8762TIP3    H247702   2.885   1.883  14.966  1.3551 -0.0686 -0.6845
 8763TIP3   OH247703   4.333   0.238   5.324  0.3887 -0.1994 -0.3195
 8763TIP3    H147704   4.255   0.185   5.308  0.4901  0.1612 -2.1856
 8763TIP3    H247705   4.306   0.327   5.303  0.6665  0.2853  1.2774
 8764TIP3   OH247706   5.232   6.615  15.881 -0.7970  0.1061 -0.3352
 8764TIP3    H147707   5.244   6.666  15.801  0.7219 -0.2259 -0.3484
 8764TIP3    H247708   5.139   6.626  15.903 -0.4590  3.3626 -0.0210
 8765TIP3   OH247709   1.891   1.974   2.475 -0.3155  0.4156 -0.0403
 8765TIP3    H147710   1.881   1.952   2.568 -0.8877 -1.6769 -0.5235
 8765TIP3    H247711   1.853   1.899   2.430  2.5936 -0.0367 -1.9959
 8766TIP3   OH247712   4.392   4.471   1.118  0.7648  0.7982  0.1406
 8766TIP3    H147713   4.315   4.459   1.061 -0.8109  0.5938  2.2146
 8766TIP3    H247714   4.355   4.490   1.204  3.0820  3.6327  0.6437
 8767TIP3   OH247715   1.202   3.740  15.276 -0.0626  0.4218 -0.1649
 8767TIP3    H147716   1.192   3.736  15.181  1.0013  1.5670 -0.3608
 8767TIP3    H247717   1.243   3.825  15.292  1.6293 -0.5712  1.1334
 8768TIP3   OH247718   1.316   0.317  13.728 -0.2997  0.2645  0.0888
 8768TIP3    H147719   1.295   0.382  13.660  0.3075 -0.6343 -0.9949
 8768TIP3    H247720   1.391   0.269  13.692  0.5492  0.2814  1.7657
 8769TIP3   OH247721   2.234   5.093   2.537  0.1913 -0.1369  0.2760
 8769TIP3    H147722   2.255   5.012   2.584  1.4601  0.4527  0.7856
 8769TIP3    H247723   2.176   5.065   2.466  0.1169 -1.3984  0.7995
 8770TIP3   OH247724   4.439   4.484   0.135 -0.5013 -0.2262  0.6301
 8770TIP3    H147725   4.398   4.399   0.145  2.1867 -1.7789 -0.3897
 8770TIP3    H247726   4.485   4.479   0.050 -0.0946  2.1596  0.6363
 8771TIP3   OH247727   5.704   1.546  14.033  0.1854  0.2015  0.3059
 8771TIP3    H147728   5.668   1.629  14.064 -1.9321 -0.2888 -0.6704
 8771TIP3    H247729   5.750   1.570  13.952 -0.6663  0.4025 -0.1307
 8772TIP3   OH247730   3.310   1.831  16.444 -0.0201 -0.3306  0.5636
 8772TIP3    H147731   3.317   1.916  16.487 -0.1477  0.4411 -0.8601
 8772TIP3    H247732   3.249   1.846  16.372  0.7749 -1.3582 -0.3653
 8773TIP3   OH247733   3.914   5.832   3.594  0.1167  0.2024  0.2201
 8773TIP3    H147734   3.945   5.833   3.685  0.1497  0.7617  0.2058
 8773TIP3    H247735   3.993   5.826   3.541  0.0617 -4.2952  0.2329
 8774TIP3   OH247736   0.129   6.754  17.104  0.4940  0.1424  0.3425
 8774TIP3    H147737   0.047   6.716  17.074  0.8475 -1.9291  1.8112
 8774TIP3    H247738   0.184   6.756  17.025  0.4476 -2.5199  0.1356
 8775TIP3   OH247739   1.549   2.827  15.200 -0.4087  0.7579 -0.2190
 8775TIP3    H147740   1.552   2.732  15.212 -2.6722  0.3974 -1.7709
 8775TIP3    H247741   1.632   2.849  15.158  1.3232 -0.0475  2.5650
 8776TIP3   OH247742   5.762   5.996  11.880 -0.0391 -0.5074 -0.3357
 8776TIP3    H147743   5.737   6.014  11.789  2.2933  1.1883 -0.7333
 8776TIP3    H247744   5.839   5.939  11.873  0.1986 -0.3189  0.5793
 8777TIP3   OH247745   2.201   1.675  15.532 -0.4185 -0.0973 -0.0811
 8777TIP3    H147746   2.190   1.705  15.442  0.1780 -0.5832 -0.3188
 8777TIP3    H247747   2.284   1.713  15.560 -0.3365 -0.3965  0.0837
 8778TIP3   OH247748   3.577   3.455  14.319 -0.4473 -0.1793 -0.1971
 8778TIP3    H147749   3.559   3.465  14.412  0.1524 -2.0113  0.1428
 8778TIP3    H247750   3.556   3.541  14.281 -1.2453  0.4156  1.5164
 8779TIP3   OH247751   5.258   0.784   2.813  0.8682  0.3169  0.0924
 8779TIP3    H147752   5.208   0.703   2.825 -0.6501  1.1433 -0.4937
 8779TIP3    H247753   5.214   0.830   2.742  1.4039  1.9007  0.7318
 8780TIP3   OH247754   4.318   4.249  14.550  0.1625  0.1674 -0.0187
 8780TIP3    H147755   4.337   4.314  14.484 -0.6243 -0.0957 -0.5124
 8780TIP3    H247756   4.367   4.278  14.628 -0.8201  1.7717  0.0234
 8781TIP3   OH247757   1.473   6.434   0.967 -0.1568  0.2189 -0.0720
 8781TIP3    H147758   1.488   6.518   0.925 -0.3877  0.3837  0.1725
 8781TIP3    H247759   1.507   6.445   1.056  0.9985 -0.3597 -0.4325
 8782TIP3   OH247760   6.266   5.821  13.663 -0.4805 -0.9002  0.7700
 8782TIP3    H147761   6.332   5.752  13.658 -0.3193 -0.6683 -0.6854
 8782TIP3    H247762   6.310   5.892  13.710  0.4007 -0.6788 -0.3296
 8783TIP3   OH247763   4.341   5.419  10.651 -0.2503  0.1168 -0.5655
 8783TIP3    H147764   4.345   5.513  10.671 -3.5557  0.3445 -0.4430
 8783TIP3    H247765   4.401   5.379  10.713  1.7826  2.1541 -1.0653
 8784TIP3   OH247766   6.144   2.290  13.813 -0.0236 -0.9531  0.7461
 8784TIP3    H147767   6.105   2.372  13.842  2.0316  0.0785  0.7841
 8784TIP3    H247768   6.073   2.243  13.769 -0.9737  1.3650 -0.3291
 8785TIP3   OH247769   2.934   0.774   4.113 -0.4735 -0.3180 -0.4900
 8785TIP3    H147770   2.921   0.735   4.026  0.5458 -1.9644  0.0502
 8785TIP3    H247771   2.888   0.715   4.172 -2.1847  1.4330  0.0266
 8786TIP3   OH247772   0.580   3.900   3.287  0.2177  0.3476 -0.1493
 8786TIP3    H147773   0.625   3.903   3.203  0.2103 -0.7794 -0.1991
 8786TIP3    H247774   0.628   3.963   3.341  1.2148 -0.0811 -0.5144
 8787TIP3   OH247775   5.970   6.669  14.666 -0.0239  0.5277 -0.4052
 8787TIP3    H147776   6.055   6.627  14.672  1.1638  2.4877 -2.0293
 8787TIP3    H247777   5.988   6.762  14.680 -2.3318  0.7700  1.7985
 8788TIP3   OH247778   6.687   6.524   1.998  0.0788  0.4398 -0.1404
 8788TIP3    H147779   6.747   6.556   1.930  0.5554  0.5497  0.3280
 8788TIP3    H247780   6.690   6.592   2.066  0.9364 -0.4814  0.7715
 8789TIP3   OH247781   0.247   4.494   3.263  0.6053  0.1805 -0.0986
 8789TIP3    H147782   0.184   4.431   3.297  2.9872 -1.2066  2.0730
 8789TIP3    H247783   0.258   4.470   3.171 -1.8579  0.4230 -0.5399
 8790TIP3   OH247784   1.809   1.045  14.476  0.3790 -0.2370  0.2530
 8790TIP3    H147785   1.879   1.101  14.442  0.4948 -0.1708  0.5947
 8790TIP3    H247786   1.738   1.055  14.413  0.5335  0.0089  0.1163
 8791TIP3   OH247787   5.499   0.981   0.957  0.6315 -0.2920  0.0016
 8791TIP3    H147788   5.452   0.955   1.036 -0.2787  0.7048 -0.1852
 8791TIP3    H247789   5.588   1.001   0.986 -0.0915  1.6299  1.1094
 8792TIP3   OH247790   2.808   5.960  12.076 -0.3275 -0.0282 -0.0035
 8792TIP3    H147791   2.836   6.033  12.132  0.0892  2.3456 -2.9890
 8792TIP3    H247792   2.809   5.997  11.988 -0.4496 -3.6268 -1.6867
 8793TIP3   OH247793   3.321   4.554  10.747 -0.1834 -0.1559 -0.3941
 8793TIP3    H147794   3.304   4.501  10.669 -1.3069 -1.4331  0.6905
 8793TIP3    H247795   3.238   4.557  10.793  0.2221  1.4025  0.3046
 8794TIP3   OH247796   6.454   3.387  16.024 -0.1607 -0.0184 -0.4087
 8794TIP3    H147797   6.527   3.448  16.014 -0.7761  0.5504 -1.6493
 8794TIP3    H247798   6.482   3.327  16.094  0.8327  1.1170  0.2039
 8795TIP3   OH247799   3.708   3.521   4.959 -0.0769  0.0989 -0.2146
 8795TIP3    H147800   3.715   3.494   4.868 -1.1191  1.6376 -0.7889
 8795TIP3    H247801   3.796   3.511   4.994  0.4343 -0.1269 -1.5070
 8796TIP3   OH247802   1.030   3.605  16.786 -0.3367 -0.0492  0.2623
 8796TIP3    H147803   1.091   3.652  16.843  0.7968 -0.1199 -0.8529
 8796TIP3    H247804   1.063   3.620  16.698  0.0456 -2.8773 -0.1663
 8797TIP3   OH247805   5.973   1.967   4.956  0.3156  0.0369 -0.0895
 8797TIP3    H147806   6.026   1.906   4.904  1.0630 -0.8758  1.6475
 8797TIP3    H247807   6.034   2.003   5.020 -0.8884 -0.1817  1.2429
 8798TIP3   OH247808   3.132   1.706  16.590  0.3854  0.0790 -0.2961
 8798TIP3    H147809   3.057   1.764  16.576 -0.0659 -0.1857  0.8814
 8798TIP3    H247810   3.208   1.756  16.559 -0.1592  0.7532 -0.5529
 8799TIP3   OH247811   1.040   1.511   1.718 -0.2044 -0.4525 -0.2904
 8799TIP3    H147812   1.077   1.423   1.728 -0.8958 -1.1228 -2.8086
 8799TIP3    H247813   1.094   1.553   1.651 -1.5290 -0.0022 -1.1259
 8800TIP3   OH247814   3.778   2.138   1.647  0.3151  0.1177  0.3934
 8800TIP3    H147815   3.773   2.048   1.678 -0.6629  0.4056  1.1065
 8800TIP3    H247816   3.828   2.184   1.715  0.8392  0.1114  0.0162
 8801TIP3   OH247817   4.045   1.016   1.467 -0.6184 -0.4227 -0.1617
 8801TIP3    H147818   3.979   1.073   1.429 -0.1898  0.1455 -0.0665
 8801TIP3    H247819   4.127   1.065   1.460 -0.2058 -1.1066 -0.2623
 8802TIP3   OH247820   4.718   6.777   5.661  0.2749 -0.3762  0.4240
 8802TIP3    H147821   4.813   6.781   5.666  0.5693 -3.1341 -1.1281
 8802TIP3    H247822   4.696   6.686   5.680 -1.9162 -0.2154 -0.9348
 8803TIP3   OH247823   5.921   6.031   3.706 -0.4118  0.6158 -0.7199
 8803TIP3    H147824   5.847   5.988   3.748  0.0973  0.7571  0.3702
 8803TIP3    H247825   5.940   6.106   3.762  1.8828 -0.5988  0.2950
 8804TIP3   OH247826   2.335   6.116  11.642  0.6297  0.1382  0.6923
 8804TIP3    H147827   2.267   6.168  11.684  0.6170  2.2945 -1.7267
 8804TIP3    H247828   2.288   6.060  11.580  0.8117 -1.4823  1.9402
 8805TIP3   OH247829   3.946   4.472   3.413 -0.6413  0.6501  0.4201
 8805TIP3    H147830   3.978   4.557   3.384  0.0532  0.4808  0.6775
 8805TIP3    H247831   3.944   4.419   3.333 -2.0864  1.1941  0.0555
 8806TIP3   OH247832   2.041   0.279   0.238 -0.3841 -0.0857 -0.1959
 8806TIP3    H147833   1.990   0.354   0.269  1.3058  0.9385  0.2534
 8806TIP3    H247834   2.064   0.300   0.147  0.4543  0.1707  0.0631
 8807TIP3   OH247835   3.939   5.072   3.580 -0.0074  0.2944  0.2092
 8807TIP3    H147836   4.007   5.024   3.629 -0.6008 -1.4980 -0.6478
 8807TIP3    H247837   3.988   5.119   3.513  0.6484  1.4252  1.4288
 8808TIP3   OH247838   4.078   4.607  16.386  0.4373  0.0818  0.3755
 8808TIP3    H147839   4.091   4.688  16.336 -0.1818 -0.7766 -1.2274
 8808TIP3    H247840   4.164   4.566  16.386  0.1209 -0.6595 -1.3848
 8809TIP3   OH247841   1.781   3.974   3.688 -0.5577  0.4078  0.3246
 8809TIP3    H147842   1.833   4.041   3.732 -1.6730  0.5970  1.3814
 8809TIP3    H247843   1.825   3.892   3.709 -0.6395  0.5736  1.1577
 8810TIP3   OH247844   1.900   4.092   2.232 -0.0898 -0.2923  0.6448
 8810TIP3    H147845   1.809   4.075   2.206 -0.7894  0.4821  2.4036
 8810TIP3    H247846   1.921   4.020   2.292  1.5550 -2.1594 -1.9760
 8811TIP3   OH247847   2.202   5.545   4.777 -0.2376  0.6975  0.5066
 8811TIP3    H147848   2.187   5.611   4.709  0.3268  0.6443  0.3223
 8811TIP3    H247849   2.211   5.463   4.728 -0.3340  0.5785  0.6874
 8812TIP3   OH247850   2.876   3.765  10.501  0.4583 -0.0244  0.1219
 8812TIP3    H147851   2.848   3.696  10.562 -1.2778  1.8720  1.6141
 8812TIP3    H247852   2.804   3.773  10.439  0.6689  0.3956 -0.0741
 8813TIP3   OH247853   6.062   0.611  16.811  0.9403  0.6963 -0.2288
 8813TIP3    H147854   6.027   0.522  16.809  1.0620  0.6537 -0.4160
 8813TIP3    H247855   6.108   0.616  16.895  3.9562 -0.5754 -1.6347
 8814TIP3   OH247856   5.469   1.552   4.034 -0.7443 -0.4149 -0.5769
 8814TIP3    H147857   5.498   1.637   4.066 -1.0335 -0.2900 -0.6410
 8814TIP3    H247858   5.396   1.572   3.975 -1.0588 -0.7303 -0.3059
 8815TIP3   OH247859   2.274   2.150  14.852  0.1130 -0.0852 -0.2643
 8815TIP3    H147860   2.197   2.108  14.815  1.0601 -1.5242 -0.6844
 8815TIP3    H247861   2.347   2.116  14.800  1.2319 -0.3294  1.3964
 8816TIP3   OH247862   6.571   4.834   5.508 -0.1666 -0.1505 -0.3244
 8816TIP3    H147863   6.588   4.926   5.489  1.0601 -0.2307  0.2584
 8816TIP3    H247864   6.477   4.829   5.524 -0.5487  0.6589 -2.0858
 8817TIP3   OH247865   2.931   5.985   3.497  0.6491 -0.1468  0.1094
 8817TIP3    H147866   3.013   5.937   3.486  1.1942  0.9323 -0.7553
 8817TIP3    H247867   2.958   6.073   3.526 -0.2470  0.0039  0.5186
 8818TIP3   OH247868   5.851   5.930  13.490  0.2953  0.2172 -0.8966
 8818TIP3    H147869   5.756   5.931  13.480  0.3653  1.1384 -1.5341
 8818TIP3    H247870   5.884   5.983  13.418  1.4017 -1.4013 -1.6476
 8819TIP3   OH247871   6.203   1.797   6.094  0.1468 -0.8056  0.5992
 8819TIP3    H147872   6.159   1.776   6.011 -0.2134 -0.4029  0.6785
 8819TIP3    H247873   6.136   1.782   6.161  0.2015 -0.4084  0.7453
 8820TIP3   OH247874   4.613   0.972   0.046 -0.0430  0.7833 -0.0819
 8820TIP3    H147875   4.641   1.012  -0.036 -0.4232  0.7343 -0.2369
 8820TIP3    H247876   4.680   0.906   0.065 -2.0819 -2.2729 -2.5890
 8821TIP3   OH247877   5.996   2.640   5.612 -0.2252  0.5511  0.1462
 8821TIP3    H147878   5.940   2.630   5.535 -0.6396 -0.0449  0.5189
 8821TIP3    H247879   6.051   2.561   5.612 -0.1521  0.5995  0.4024
 8822TIP3   OH247880   2.400   0.981  13.175 -0.2574  0.4687 -0.5112
 8822TIP3    H147881   2.408   1.074  13.153  1.7913  0.3975 -0.3115
 8822TIP3    H247882   2.461   0.937  13.116 -1.0404 -0.7435 -0.4607
 8823TIP3   OH247883   5.804   6.187   4.821  0.4002  0.2029 -0.5069
 8823TIP3    H147884   5.764   6.202   4.907  2.6475 -0.1542  0.6774
 8823TIP3    H247885   5.860   6.263   4.807  2.6404 -1.2367 -0.0129
 8824TIP3   OH247886   4.293   5.078   0.741  0.3615 -0.1189  0.3736
 8824TIP3    H147887   4.303   5.159   0.790  1.4329 -0.3830  0.6170
 8824TIP3    H247888   4.275   5.107   0.651  2.7327  0.4622  0.0228
 8825TIP3   OH247889   5.554   5.711  13.418 -0.0972 -0.5218  0.0683
 8825TIP3    H147890   5.615   5.674  13.353  0.0104 -2.2827  1.0982
 8825TIP3    H247891   5.582   5.802  13.427  0.6638 -0.5601 -1.4434
 8826TIP3   OH247892   4.823   3.047   3.571 -0.3228  1.4250 -0.0575
 8826TIP3    H147893   4.806   3.050   3.666 -0.4654 -1.8209  0.1043
 8826TIP3    H247894   4.749   3.094   3.533 -0.4876  2.4287  1.3821
 8827TIP3   OH247895   5.522   3.928  15.976  0.4330 -0.0268 -0.4887
 8827TIP3    H147896   5.456   3.963  15.916 -0.8870 -0.7113  0.5074
 8827TIP3    H247897   5.606   3.945  15.932 -0.3458  1.4182 -1.5107
 8828TIP3   OH247898   0.297   1.929   4.980  0.4621 -0.0886 -0.3478
 8828TIP3    H147899   0.337   2.010   5.011  0.6033 -0.4366  0.3887
 8828TIP3    H247900   0.205   1.935   5.007  0.8582 -0.9497  1.2976
 8829TIP3   OH247901   3.719   4.691  16.109 -0.2559 -0.3537 -0.3971
 8829TIP3    H147902   3.634   4.709  16.067 -0.8087  2.8333  1.7141
 8829TIP3    H247903   3.699   4.627  16.177 -0.5560 -1.1003 -1.1802
 8830TIP3   OH247904   3.557   0.791  16.456  0.0174 -0.0772 -0.6538
 8830TIP3    H147905   3.511   0.721  16.409 -1.5787  0.8429 -0.5288
 8830TIP3    H247906   3.540   0.870  16.404  2.1539  0.1920 -1.0303
 8831TIP3   OH247907   2.906   4.296  11.673 -0.0687 -0.5265 -0.1595
 8831TIP3    H147908   2.965   4.356  11.628 -0.0106 -0.3124  0.2052
 8831TIP3    H247909   2.823   4.343  11.678 -0.3315 -0.9033 -0.8496
 8832TIP3   OH247910   4.125   1.939  11.984  0.2020 -0.5390 -0.5971
 8832TIP3    H147911   4.068   1.934  11.908 -1.3372  0.0485  0.4712
 8832TIP3    H247912   4.109   1.857  12.032  2.2882 -1.6250 -1.5907
 8833TIP3   OH247913   0.504   2.767   6.161 -0.1014  0.1055 -0.4614
 8833TIP3    H147914   0.414   2.746   6.137 -0.6771 -0.1721  1.6976
 8833TIP3    H247915   0.496   2.808   6.248  1.9887 -2.1522  0.9290
 8834TIP3   OH247916   0.065   3.315   2.611  0.3111 -0.0756  0.5169
 8834TIP3    H147917  -0.004   3.253   2.634  0.0392 -0.3285 -0.8739
 8834TIP3    H247918   0.070   3.311   2.515  0.7469  1.5500  0.4306
 8835TIP3   OH247919   0.473   4.627   5.641  0.5251  0.0774  0.0990
 8835TIP3    H147920   0.472   4.534   5.664 -0.2208  0.0914  0.1418
 8835TIP3    H247921   0.483   4.671   5.726 -2.7989  0.1503  0.5956
 8836TIP3   OH247922   4.449   1.788   0.235 -0.1749 -0.0870  0.2078
 8836TIP3    H147923   4.407   1.784   0.149  1.7923  2.4149 -0.9977
 8836TIP3    H247924   4.542   1.799   0.217  0.4117 -0.2650  2.6817
 8837TIP3   OH247925   2.585   2.125   1.279 -0.4334  0.6412  0.3750
 8837TIP3    H147926   2.666   2.077   1.298 -0.3276  0.0385 -1.4037
 8837TIP3    H247927   2.586   2.199   1.340  0.9306  0.0672  1.0949
 8838TIP3   OH247928   5.104   2.361   5.913  0.0758  0.8123  0.4098
 8838TIP3    H147929   5.101   2.271   5.946 -0.3072  1.1735  1.4014
 8838TIP3    H247930   5.051   2.411   5.975 -0.4593  1.5768 -0.6290
 8839TIP3   OH247931   4.640   4.099  10.683  0.2182  0.4083 -0.2451
 8839TIP3    H147932   4.615   4.155  10.610  2.6688  2.3402  0.2638
 8839TIP3    H247933   4.724   4.061  10.657  0.5743  0.2161  1.0901
 8840TIP3   OH247934   5.953   1.068  13.487  0.0524  0.2167 -0.0159
 8840TIP3    H147935   6.022   1.015  13.527  0.2575  1.8227  1.8937
 8840TIP3    H247936   5.956   1.045  13.394 -0.1086 -3.3191  0.7380
 8841TIP3   OH247937   6.038   6.585   2.982 -0.1705  0.6914  0.2237
 8841TIP3    H147938   6.009   6.496   3.003 -0.7234  0.7605 -0.2378
 8841TIP3    H247939   6.093   6.574   2.904  1.0541  0.5647  1.0718
 8842TIP3   OH247940   2.450   5.987  12.422  0.0069 -0.0115 -0.1187
 8842TIP3    H147941   2.506   6.065  12.422  1.2579 -0.8810  0.5540
 8842TIP3    H247942   2.502   5.920  12.378 -0.9536 -0.5515 -0.4572
 8843TIP3   OH247943   3.605   1.900  16.888 -0.1262  0.0188  0.0482
 8843TIP3    H147944   3.682   1.929  16.840  0.6532  0.1589  1.3254
 8843TIP3    H247945   3.532   1.916  16.829  0.5836  1.9190 -0.3750
 8844TIP3   OH247946   2.903   3.075   2.328  0.1920  0.5703  0.1049
 8844TIP3    H147947   2.828   3.032   2.287  0.7447  0.5418 -0.9157
 8844TIP3    H247948   2.917   3.028   2.410 -1.3529  1.0436  0.6654
 8845TIP3   OH247949   2.333   3.918   1.950 -0.3900 -0.6231 -0.2378
 8845TIP3    H147950   2.407   3.965   1.988 -1.3448  0.7358  0.0161
 8845TIP3    H247951   2.257   3.951   1.998 -1.1658 -2.0435 -0.4386
 8846TIP3   OH247952   0.694   4.901   2.634 -0.1907  0.1499  0.3025
 8846TIP3    H147953   0.621   4.904   2.696 -1.4920  1.8616 -1.1974
 8846TIP3    H247954   0.707   4.808   2.618 -0.0261 -0.3505  2.8145
 8847TIP3   OH247955   2.195   1.357   4.906 -0.1854  0.4317  0.4518
 8847TIP3    H147956   2.220   1.442   4.943  2.1904  0.2387 -0.5206
 8847TIP3    H247957   2.197   1.297   4.981  0.4685  0.8122  0.7503
 8848TIP3   OH247958   4.050   1.666   1.507 -0.0386  0.3124 -0.0328
 8848TIP3    H147959   4.031   1.598   1.572  3.5612 -1.4974 -0.5865
 8848TIP3    H247960   3.985   1.653   1.439 -0.1167 -1.9188  0.3963
 8849TIP3   OH247961   1.473   4.005  15.501 -0.0266 -0.3408 -0.9562
 8849TIP3    H147962   1.504   4.049  15.422  2.0262 -0.2771 -0.1973
 8849TIP3    H247963   1.553   3.970  15.541 -0.7932  0.6993  1.7298
 8850TIP3   OH247964   4.715   5.349  12.539 -0.0837 -0.0725  0.3853
 8850TIP3    H147965   4.751   5.435  12.561 -0.0762 -0.2527  1.1015
 8850TIP3    H247966   4.772   5.317  12.469 -1.9909  1.8606 -2.2554
 8851TIP3   OH247967   0.848   3.917  10.614  0.2559  0.1479  0.2667
 8851TIP3    H147968   0.930   3.967  10.618 -0.0026  0.4715  2.1066
 8851TIP3    H247969   0.875   3.826  10.626  0.3640  0.2444  0.7864
 8852TIP3   OH247970   1.704   0.120   5.126 -0.4879  0.1566 -0.8825
 8852TIP3    H147971   1.618   0.146   5.158 -0.3469 -0.4763  0.0530
 8852TIP3    H247972   1.754   0.202   5.121 -0.4742  0.2684  0.6803
 8853TIP3   OH247973   2.634   5.311   3.293  0.5903 -0.3605 -0.1609
 8853TIP3    H147974   2.567   5.266   3.242  0.6893 -2.0348  1.1191
 8853TIP3    H247975   2.625   5.276   3.381  1.8893  0.8117  0.4827
 8854TIP3   OH247976   1.490   5.539   4.114  0.3465  0.1154 -0.3361
 8854TIP3    H147977   1.570   5.592   4.110  0.7557 -0.2473  1.8371
 8854TIP3    H247978   1.435   5.584   4.178 -0.9064 -0.0581 -1.2469
 8855TIP3   OH247979   1.865   0.504  15.233 -0.2069  0.2134 -0.3894
 8855TIP3    H147980   1.798   0.557  15.274 -1.3811 -0.5549 -1.2696
 8855TIP3    H247981   1.934   0.497  15.300 -1.0427  0.9060  0.5652
 8856TIP3   OH247982   6.562   0.963  11.900 -0.2647 -0.0889  0.0158
 8856TIP3    H147983   6.483   0.938  11.948 -0.4325 -6.0725 -2.5386
 8856TIP3    H247984   6.633   0.947  11.962 -0.7777 -0.5043  0.5102
 8857TIP3   OH247985   5.581   1.043  14.058 -0.6709 -0.0306  0.1299
 8857TIP3    H147986   5.627   1.127  14.054 -0.4513 -0.0499  1.5822
 8857TIP3    H247987   5.495   1.065  14.094 -0.5388 -0.4495  0.7035
 8858TIP3   OH247988   3.397   1.552  16.243  0.9108  0.1318  0.0231
 8858TIP3    H147989   3.321   1.528  16.191  0.4605  0.7077  0.3956
 8858TIP3    H247990   3.433   1.629  16.198 -0.3347  1.5446  1.3149
 8859TIP3   OH247991   4.169   6.064   5.330  0.0910 -0.5812  0.4681
 8859TIP3    H147992   4.101   6.042   5.267 -0.0841 -0.3344  0.5725
 8859TIP3    H247993   4.251   6.048   5.283  0.0110  2.1683 -0.7603
 8860TIP3   OH247994   2.604   3.164  13.731  0.1875 -0.0728  0.4684
 8860TIP3    H147995   2.532   3.190  13.674 -0.4663 -0.6388  1.0101
 8860TIP3    H247996   2.598   3.069  13.735  1.7018 -0.2275 -0.4072
 8861TIP3   OH247997   5.600   3.204  12.514  0.3385  0.4303  0.0867
 8861TIP3    H147998   5.627   3.113  12.505 -0.3407  0.2566 -0.2172
 8861TIP3    H247999   5.548   3.206  12.594  0.4351  0.5758  0.1479
 8862TIP3   OH248000   2.478   3.014  12.869 -0.2481 -0.4136  0.9237
 8862TIP3    H148001   2.417   3.063  12.813  0.1111 -2.4619 -1.3915
 8862TIP3    H248002   2.436   2.930  12.882  0.8002 -0.8333  1.7196
 8863TIP3   OH248003   1.324   2.141   4.751 -0.3048 -0.8349 -0.4769
 8863TIP3    H148004   1.388   2.205   4.779 -0.4015 -0.8838 -0.1422
 8863TIP3    H248005   1.372   2.058   4.747  0.0567 -0.5872 -1.8292
 8864TIP3   OH248006   5.282   3.845  15.268 -0.0074 -0.2929  0.5357
 8864TIP3    H148007   5.321   3.773  15.317 -0.0822  0.8951  2.4460
 8864TIP3    H248008   5.249   3.805  15.188 -0.2356 -2.4167  1.6220
 8865TIP3   OH248009   5.762   4.029   1.511  0.4914  0.0331 -0.2272
 8865TIP3    H148010   5.777   3.997   1.422 -0.4558 -1.6060  0.1445
 8865TIP3    H248011   5.674   3.998   1.532  0.1031  1.7285  0.7406
 8866TIP3   OH248012   0.497   5.593  10.584 -0.2457 -0.0046 -0.0797
 8866TIP3    H148013   0.456   5.588  10.498  0.3335 -0.5238 -0.3389
 8866TIP3    H248014   0.433   5.638  10.639 -0.1818  1.3422 -1.0471
 8867TIP3   OH248015   0.233   1.842   6.314  0.1489  0.3634  0.1640
 8867TIP3    H148016   0.221   1.937   6.311  1.0434  0.4874  0.1438
 8867TIP3    H248017   0.196   1.816   6.398  0.4710  0.8276  0.4564
 8868TIP3   OH248018   5.983   0.648  15.136  0.2099 -0.4664 -0.2273
 8868TIP3    H148019   5.943   0.707  15.200  0.5075 -0.3759 -0.1242
 8868TIP3    H248020   5.939   0.564  15.149 -0.1710 -0.2854 -0.3303
 8869TIP3   OH248021   4.160   3.073  15.103 -0.5332 -0.4423 -0.3612
 8869TIP3    H148022   4.162   3.168  15.091 -0.2158 -0.6283 -2.0490
 8869TIP3    H248023   4.214   3.057  15.180  0.0839  0.6956 -0.5386
 8870TIP3   OH248024   2.936   3.848  13.484 -0.0535 -0.4042  0.2947
 8870TIP3    H148025   2.895   3.809  13.561  1.1027  1.5230  2.0029
 8870TIP3    H248026   3.030   3.832  13.496  0.2108  0.6186 -0.2477
 8871TIP3   OH248027   0.735   2.769   2.077 -0.7069  0.1273 -0.0874
 8871TIP3    H148028   0.755   2.830   2.147 -1.1921  1.3480 -0.9881
 8871TIP3    H248029   0.798   2.790   2.008  0.3721 -1.6613  0.2663
 8872TIP3   OH248030   4.697   0.582  16.900 -0.4778  0.0253 -0.8087
 8872TIP3    H148031   4.641   0.543  16.967 -0.9759  0.2201 -1.1098
 8872TIP3    H248032   4.771   0.522  16.892 -0.8855 -0.4871 -0.7579
 8873TIP3   OH248033   2.510   3.369   4.561  0.0723  0.2607  0.0879
 8873TIP3    H148034   2.556   3.286   4.554 -0.0971  0.0960  0.8158
 8873TIP3    H248035   2.574   3.429   4.598 -0.0709  0.2221  0.4021
 8874TIP3   OH248036   0.747   6.094  13.967  0.3212  0.7309 -0.5993
 8874TIP3    H148037   0.775   6.117  14.056 -1.6421  1.2006 -0.0626
 8874TIP3    H248038   0.692   6.166  13.939  0.6336  0.4278 -2.1031
 8875TIP3   OH248039   1.806   2.462  14.352  0.3979 -0.4682 -0.0769
 8875TIP3    H148040   1.806   2.495  14.262 -1.3202 -0.4144 -0.0799
 8875TIP3    H248041   1.754   2.383  14.349  1.4910 -1.2503  0.6382
 8876TIP3   OH248042   2.895   3.239  15.321  0.0889  0.2536  0.2599
 8876TIP3    H148043   2.852   3.209  15.240 -1.4070  0.2737  1.0084
 8876TIP3    H248044   2.936   3.322  15.297 -0.2370  0.2016 -0.5211
 8877TIP3   OH248045   1.674   3.493   2.601  0.0241 -0.0419 -0.2031
 8877TIP3    H148046   1.579   3.483   2.604  0.0797 -0.6322 -0.2681
 8877TIP3    H248047   1.708   3.412   2.639  0.5134 -0.4644 -1.4634
 8878TIP3   OH248048   5.583   5.196  15.342  0.3749 -0.2452 -0.3135
 8878TIP3    H148049   5.673   5.175  15.367  1.2122 -0.8323 -3.4228
 8878TIP3    H248050   5.533   5.116  15.358  1.1788 -1.0553 -1.7026
 8879TIP3   OH248051   6.247   4.456   0.316 -0.2626 -0.3418 -0.0660
 8879TIP3    H148052   6.277   4.540   0.351 -0.2376 -0.6091  0.5623
 8879TIP3    H248053   6.166   4.438   0.364 -0.8109 -0.1890 -0.9194
 8880TIP3   OH248054   2.583   1.031   0.982  0.3147 -1.0773 -0.9069
 8880TIP3    H148055   2.605   1.039   1.075  1.3114 -1.4941 -1.1000
 8880TIP3    H248056   2.505   0.974   0.981  0.0274 -0.7042 -0.3063
 8881TIP3   OH248057   2.691   1.312  10.601 -0.2440  0.1168  1.0668
 8881TIP3    H148058   2.627   1.266  10.655  1.0157 -3.3278 -0.1037
 8881TIP3    H248059   2.767   1.254  10.598  0.7004  1.2435 -2.3359
 8882TIP3   OH248060   4.589   2.439  11.806  0.5097 -0.4676  0.5646
 8882TIP3    H148061   4.628   2.514  11.849 -0.0753  0.0209  0.2620
 8882TIP3    H248062   4.503   2.429  11.847  0.0117 -0.0949 -0.3555
 8883TIP3   OH248063   2.042   6.384   0.287 -0.0391 -0.2456  0.3967
 8883TIP3    H148064   2.064   6.381   0.380  1.3860  0.7392  0.1234
 8883TIP3    H248065   2.012   6.296   0.266 -0.7901 -0.3632  1.8761
 8884TIP3   OH248066   3.845   2.911  12.802 -0.4813 -0.2388  0.1390
 8884TIP3    H148067   3.811   2.825  12.778 -0.3066 -0.2263 -0.1477
 8884TIP3    H248068   3.860   2.955  12.719  2.4916 -1.1048  0.1171
 8885TIP3   OH248069   1.602   0.642   5.738  0.8217 -0.8286 -0.5636
 8885TIP3    H148070   1.666   0.655   5.669  0.8085 -0.2594 -0.4717
 8885TIP3    H248071   1.652   0.650   5.819  1.0152 -2.4052 -0.4953
 8886TIP3   OH248072   3.717   5.037   4.139  0.1975  0.2584  0.1496
 8886TIP3    H148073   3.752   5.125   4.153  0.0382  0.3065  0.2447
 8886TIP3    H248074   3.719   4.996   4.225  0.9731 -0.0901 -0.0236
 8887TIP3   OH248075   3.469   4.114   4.646 -0.1273  0.2394 -0.9953
 8887TIP3    H148076   3.481   4.020   4.633 -0.2049 -0.0772  0.8737
 8887TIP3    H248077   3.375   4.125   4.659  0.0547  0.2983  0.4467
 8888TIP3   OH248078   0.813   3.329   3.588  0.8854  0.4445  0.3693
 8888TIP3    H148079   0.767   3.357   3.667  1.3865  0.6332  0.6004
 8888TIP3    H248080   0.744   3.315   3.523  0.4133 -0.3652  1.0349
 8889TIP3   OH248081   6.193   6.661  11.890 -0.1237  0.0455 -0.2583
 8889TIP3    H148082   6.238   6.659  11.975  1.5554 -2.9410 -1.0588
 8889TIP3    H248083   6.107   6.625  11.909  0.4067 -1.0759  0.1774
 8890TIP3   OH248084   4.461   5.919   2.804 -0.3606  0.2993  0.4958
 8890TIP3    H148085   4.478   5.911   2.710 -2.1997  2.0753 -0.0642
 8890TIP3    H248086   4.548   5.932   2.843  0.3653  0.3041 -1.0385
 8891TIP3   OH248087   3.266   0.780  13.281  0.8209  0.5178 -0.2903
 8891TIP3    H148088   3.213   0.705  13.309  0.4571  0.0808 -2.0032
 8891TIP3    H248089   3.337   0.785  13.344  0.4441 -0.8337  0.2664
 8892TIP3   OH248090   1.541   1.622   5.683  0.0884  0.0839 -0.0204
 8892TIP3    H148091   1.573   1.534   5.702  1.5539  0.5867 -0.0523
 8892TIP3    H248092   1.620   1.673   5.662 -0.7759  1.2853 -0.4940
 8893TIP3   OH248093   4.886   1.969   2.496  0.5478 -0.2287 -0.4644
 8893TIP3    H148094   4.922   1.881   2.485 -0.3000 -0.3031 -3.8054
 8893TIP3    H248095   4.953   2.027   2.460  0.9063  0.5148  1.3027
 8894TIP3   OH248096   5.814   1.856  14.540 -1.1380 -0.1277  0.6938
 8894TIP3    H148097   5.832   1.950  14.548  0.3286 -0.2038 -1.1042
 8894TIP3    H248098   5.837   1.820  14.626  1.2169  0.7664  0.5021
 8895TIP3   OH248099   5.116   0.274  13.893 -0.6755 -0.0010 -0.2820
 8895TIP3    H148100   5.031   0.257  13.933 -0.5263 -2.7705 -0.8864
 8895TIP3    H248101   5.103   0.252  13.800  0.1675  1.7119 -0.8493
 8896TIP3   OH248102   6.223   5.176   1.668  0.2831 -0.7394  0.4630
 8896TIP3    H148103   6.159   5.227   1.718  0.4575  0.9005 -0.9270
 8896TIP3    H248104   6.194   5.085   1.680 -0.7284 -0.2634  2.0259
 8897TIP3   OH248105   5.165   6.483  12.494  0.2339 -0.1482 -0.0863
 8897TIP3    H148106   5.137   6.394  12.513  0.2080  0.0613  0.8920
 8897TIP3    H248107   5.136   6.534  12.569 -1.5375  1.0604 -1.5009
 8898TIP3   OH248108   6.311   5.948  15.912  0.1381 -0.6753  0.2107
 8898TIP3    H148109   6.356   5.878  15.865  0.9432  0.5259 -0.8572
 8898TIP3    H248110   6.380   5.994  15.960 -0.2531 -0.0764  0.2127
 8899TIP3   OH248111   1.299   3.015   2.269 -0.4256  0.8725 -0.1237
 8899TIP3    H148112   1.391   2.987   2.272 -0.7632 -0.2417  0.1177
 8899TIP3    H248113   1.287   3.069   2.347 -0.3227 -0.0731  0.5502
 8900TIP3   OH248114   5.065   5.377  11.124  0.5048 -0.3705  0.5532
 8900TIP3    H148115   5.151   5.337  11.113  0.6387 -0.0248  0.3093
 8900TIP3    H248116   5.067   5.453  11.065 -0.2042 -0.7301  0.0556
 8901TIP3   OH248117   1.333   6.337  13.749  0.3853 -0.0152  0.3106
 8901TIP3    H148118   1.301   6.308  13.835  0.7882  0.4425  0.6166
 8901TIP3    H248119   1.326   6.432  13.751  0.0653 -0.0200 -0.3032
 8902TIP3   OH248120   2.751   0.549   5.866  0.2289  0.3149  0.1891
 8902TIP3    H148121   2.663   0.585   5.870 -0.1071 -0.3996 -0.5386
 8902TIP3    H248122   2.794   0.582   5.945 -1.3699 -1.0700  1.6990
 8903TIP3   OH248123   3.924   0.743  15.859  0.2128 -1.0309 -0.2683
 8903TIP3    H148124   3.992   0.784  15.807 -1.0572  0.0757 -1.1210
 8903TIP3    H248125   3.910   0.802  15.933  0.4088 -1.4249  0.0882
 8904TIP3   OH248126   3.717   3.374   4.728 -0.2155 -0.3457  0.2959
 8904TIP3    H148127   3.659   3.298   4.725 -1.3003  0.4487  0.6415
 8904TIP3    H248128   3.730   3.398   4.637 -0.8274 -0.2411  0.2340
 8905TIP3   OH248129   6.255   4.787  16.719 -0.0715 -0.4002  0.8515
 8905TIP3    H148130   6.208   4.704  16.715 -1.0247  0.1627 -0.1739
 8905TIP3    H248131   6.188   4.853  16.699  1.1219  0.4421 -0.5387
 8906TIP3   OH248132   0.248   3.928  14.994 -0.1212  0.4453  0.0760
 8906TIP3    H148133   0.329   3.879  14.982 -1.6178 -2.7114  1.5881
 8906TIP3    H248134   0.245   3.946  15.088 -2.0320 -1.3482  0.4288
 8907TIP3   OH248135   1.394   3.565   0.703  0.0798 -0.9486 -0.3453
 8907TIP3    H148136   1.375   3.507   0.777 -0.4396 -1.5222 -0.9218
 8907TIP3    H248137   1.321   3.553   0.643 -1.3244  2.0583  0.5224
 8908TIP3   OH248138   3.926   1.593  12.539 -0.3465 -0.4914  0.5526
 8908TIP3    H148139   3.934   1.687  12.529 -0.7542 -0.3510  1.3851
 8908TIP3    H248140   4.014   1.559  12.523 -0.0934  0.0785  0.6902
 8909TIP3   OH248141   6.318   2.792   0.177  0.1614 -0.0467  0.8225
 8909TIP3    H148142   6.348   2.791   0.267  0.7619  4.4164  0.8858
 8909TIP3    H248143   6.229   2.827   0.181 -1.2943 -3.2005 -0.2012
 8910TIP3   OH248144   6.314   1.500   3.915  0.0050 -0.5316 -0.9974
 8910TIP3    H148145   6.224   1.478   3.937 -0.1977  0.2422 -1.0369
 8910TIP3    H248146   6.345   1.552   3.990  0.8529 -1.9110 -0.3566
 8911TIP3   OH248147   0.683   4.533  16.910 -0.0017  0.1813  0.0695
 8911TIP3    H148148   0.612   4.559  16.968  0.6415  0.3487  0.8008
 8911TIP3    H248149   0.664   4.442  16.888  0.0843 -0.0922  1.0663
 8912TIP3   OH248150   2.475   6.747   2.344  0.0444  0.4255 -0.2103
 8912TIP3    H148151   2.406   6.726   2.407 -0.6112 -3.5297 -1.9930
 8912TIP3    H248152   2.556   6.721   2.388 -0.4994 -3.3926 -1.1771
 8913TIP3   OH248153   5.039   6.587   1.857  0.1552  0.5289  0.6214
 8913TIP3    H148154   5.027   6.681   1.844 -0.0292  0.7447  2.1236
 8913TIP3    H248155   5.040   6.576   1.952 -1.4759 -1.1789  0.5185
 8914TIP3   OH248156   5.548   0.765  16.162  0.1688 -0.2039 -0.3061
 8914TIP3    H148157   5.623   0.709  16.145  0.2191 -0.7871  1.6131
 8914TIP3    H248158   5.541   0.820  16.084  2.2072 -0.5509 -0.7974
 8915TIP3   OH248159   5.484   3.510  12.463 -0.1907  0.2620 -0.1674
 8915TIP3    H148160   5.533   3.577  12.511 -0.1070  0.6542 -0.7776
 8915TIP3    H248161   5.532   3.429  12.478 -0.8560  0.1397  1.4026
 8916TIP3   OH248162   3.188   2.817   1.883  0.6456 -0.8068 -0.4226
 8916TIP3    H148163   3.188   2.727   1.850 -1.1687 -1.5682  1.4037
 8916TIP3    H248164   3.181   2.808   1.978  2.2084  1.2965 -0.0299
 8917TIP3   OH248165   2.723   1.185  13.223 -0.7477  0.1433  0.2392
 8917TIP3    H148166   2.782   1.123  13.179 -0.2773  1.4781 -1.0642
 8917TIP3    H248167   2.781   1.238  13.278 -1.0697 -0.1082  0.8398
 8918TIP3   OH248168   2.871   6.537   2.383 -0.4831 -0.4700  0.6035
 8918TIP3    H148169   2.859   6.527   2.289 -0.6764  0.1165  0.5633
 8918TIP3    H248170   2.783   6.537   2.420 -0.3858 -1.2882  0.8513
 8919TIP3   OH248171   1.341   1.659  14.921 -0.5390  0.1763 -0.2401
 8919TIP3    H148172   1.292   1.642  14.841 -0.5545 -1.4308  0.0682
 8919TIP3    H248173   1.422   1.701  14.892  0.1705 -1.7886 -1.3056
 8920TIP3   OH248174   6.285   2.757  12.674 -0.3178 -0.0294  0.1586
 8920TIP3    H148175   6.251   2.684  12.725 -1.8092  0.6210  0.1446
 8920TIP3    H248176   6.315   2.820  12.739  0.3809 -0.3801  0.1797
 8921TIP3   OH248177   0.384   5.466  13.752 -0.0738  0.7736  0.1919
 8921TIP3    H148178   0.378   5.376  13.721  0.1021  1.0486 -0.6894
 8921TIP3    H248179   0.293   5.491  13.771 -0.2527  0.7406 -0.5749
 8922TIP3   OH248180   4.723   4.257  15.379  0.0243  0.6176  0.7500
 8922TIP3    H148181   4.815   4.232  15.378  1.3189  4.2971  3.6809
 8922TIP3    H248182   4.724   4.353  15.376 -3.8443  0.7999 -0.4164
 8923TIP3   OH248183   4.490   2.118  11.264  0.1078  0.1760 -0.3012
 8923TIP3    H148184   4.407   2.070  11.260  0.9900 -1.4715 -5.0620
 8923TIP3    H248185   4.535   2.082  11.340 -1.9676 -1.7125  0.1504
 8924TIP3   OH248186   5.965   5.611  12.337  0.2062  0.3867  0.6699
 8924TIP3    H148187   5.955   5.611  12.242  0.6157 -1.1516  0.6024
 8924TIP3    H248188   5.915   5.687  12.366  0.8180  1.4176 -0.8437
 8925TIP3   OH248189   2.453   0.347  14.859 -0.2723  0.1681 -0.0319
 8925TIP3    H148190   2.495   0.369  14.942  1.8347  0.8850 -1.2245
 8925TIP3    H248191   2.493   0.405  14.795 -1.3455 -0.8318 -1.6912
 8926TIP3   OH248192   4.819   5.592   2.490 -0.5333 -0.0134  0.0375
 8926TIP3    H148193   4.757   5.595   2.417 -1.0479 -1.0532  0.4129
 8926TIP3    H248194   4.768   5.561   2.564  0.2399 -0.0290  0.5816
 8927TIP3   OH248195   4.586   5.182   4.918 -0.1516  0.2812  0.6720
 8927TIP3    H148196   4.492   5.177   4.901 -0.2543  1.0412  0.9693
 8927TIP3    H248197   4.602   5.274   4.936  0.7164  0.2176  0.2691
 8928TIP3   OH248198   3.159   2.064   1.209  0.5061  0.0804  0.1996
 8928TIP3    H148199   3.080   2.025   1.245 -0.3484 -0.3796 -2.0025
 8928TIP3    H248200   3.208   1.990   1.173  0.8259  0.5933 -0.4478
 8929TIP3   OH248201   5.488   2.284   3.121 -0.3689 -0.9108 -0.0886
 8929TIP3    H148202   5.569   2.250   3.084  1.4317 -0.9641  3.5331
 8929TIP3    H248203   5.498   2.379   3.120 -0.1786 -0.9215  0.4790
 8930TIP3   OH248204   5.628   1.122   4.523  0.1387 -0.2207 -0.1983
 8930TIP3    H148205   5.554   1.063   4.530 -0.0817 -0.0712 -1.0916
 8930TIP3    H248206   5.596   1.196   4.470  0.6469  0.2960  0.1957
 8931TIP3   OH248207   2.921   6.555  11.564  0.0086  0.5811 -0.7444
 8931TIP3    H148208   2.894   6.503  11.488  0.7653  0.1457 -0.7245
 8931TIP3    H248209   2.869   6.521  11.636  0.3163  0.0145 -0.7830
 8932TIP3   OH248210   1.990   4.337  16.335 -0.0221 -0.0088 -0.3740
 8932TIP3    H148211   2.056   4.363  16.269 -2.3424 -0.5026 -3.0879
 8932TIP3    H248212   2.017   4.249  16.362  0.2556 -0.3694 -1.7430
 8933TIP3   OH248213   4.058   2.858   6.537  0.6606 -0.1136  0.4951
 8933TIP3    H148214   4.082   2.947   6.514  1.2928 -0.6259 -0.9392
 8933TIP3    H248215   3.970   2.847   6.503  1.5126 -0.7999 -1.6959
 8934TIP3   OH248216   5.887   4.983   6.488  0.5030 -0.3232 -0.0125
 8934TIP3    H148217   5.952   4.915   6.503  1.7860  0.9186  0.3235
 8934TIP3    H248218   5.925   5.061   6.528  0.1825  1.1604 -2.4059
 8935TIP3   OH248219   3.344   3.582   6.073  0.8577  0.3220 -0.1369
 8935TIP3    H148220   3.344   3.562   6.167  0.8235 -0.5720 -0.3193
 8935TIP3    H248221   3.324   3.498   6.031 -3.2660  1.3918 -0.7908
 8936TIP3   OH248222   2.253   3.239  14.849 -0.4313  0.0968  0.0232
 8936TIP3    H148223   2.258   3.254  14.755 -0.2001  0.3603  0.0756
 8936TIP3    H248224   2.164   3.207  14.864 -1.0295  1.5917 -0.0764
 8937TIP3   OH248225   2.385   1.201  14.470  1.3558 -0.3449 -0.5668
 8937TIP3    H148226   2.455   1.145  14.437  2.6652 -0.0801  1.5616
 8937TIP3    H248227   2.357   1.252  14.394  2.7631 -1.1835 -1.6947
 8938TIP3   OH248228   4.807   1.444  15.320  0.2582  0.2520  0.0190
 8938TIP3    H148229   4.841   1.505  15.386  0.1790  1.8021 -1.2947
 8938TIP3    H248230   4.885   1.415  15.272  0.2625 -0.4559  0.4452
 8939TIP3   OH248231   6.613   5.061   5.292 -0.2037 -0.0844  0.6958
 8939TIP3    H148232   6.557   5.124   5.336  1.1245  1.7912 -0.1232
 8939TIP3    H248233   6.560   4.982   5.283 -2.7958  1.6439 -0.2618
 8940TIP3   OH248234   4.303   2.887  14.776 -0.0890 -0.1895  0.3384
 8940TIP3    H148235   4.369   2.897  14.845  0.0202  0.5647  0.1421
 8940TIP3    H248236   4.294   2.975  14.739  0.4055 -0.7231 -1.1239
 8941TIP3   OH248237   3.458   5.477  12.074  0.1289  0.0683  0.7661
 8941TIP3    H148238   3.408   5.487  11.993  1.8720  1.3630 -0.2517
 8941TIP3    H248239   3.549   5.491  12.047  0.8878 -0.6121  2.7772
 8942TIP3   OH248240   0.011   5.169   3.998  0.9973  0.1977  0.3462
 8942TIP3    H148241  -0.019   5.259   3.997  1.0931  0.2264 -0.2399
 8942TIP3    H248242   0.106   5.175   4.010  1.4785  0.3360 -2.7173
 8943TIP3   OH248243   3.379   4.582   6.190 -0.1304  0.3356 -0.0092
 8943TIP3    H148244   3.306   4.609   6.133 -0.8310 -0.8210  0.2939
 8943TIP3    H248245   3.352   4.609   6.278  0.8184  1.8605 -0.1730
 8944TIP3   OH248246   3.939   3.828   4.737  0.2956  0.3681 -0.4468
 8944TIP3    H148247   3.976   3.740   4.746  1.0848  0.5603 -1.5908
 8944TIP3    H248248   3.905   3.849   4.824 -0.0239 -1.1143 -0.1871
 8945TIP3   OH248249   4.188   1.223   4.890 -0.4129  1.0416  0.1781
 8945TIP3    H148250   4.099   1.190   4.873  0.1623 -1.0098  0.8552
 8945TIP3    H248251   4.183   1.261   4.978 -0.1580 -1.1232  1.1912
 8946TIP3   OH248252   6.036   5.497   5.764  0.2112  0.4171  0.1056
 8946TIP3    H148253   6.000   5.549   5.835 -1.6764  0.1946 -0.6276
 8946TIP3    H248254   6.002   5.538   5.684 -0.3682 -1.2040 -0.5361
 8947TIP3   OH248255   3.273   6.696   2.285  0.1173 -0.0640 -0.1809
 8947TIP3    H148256   3.254   6.780   2.326  0.1285  0.1955 -0.6965
 8947TIP3    H248257   3.333   6.717   2.213  0.0041 -0.4903 -0.4077
 8948TIP3   OH248258   4.600   4.084   3.135 -0.9973 -0.1150  0.4664
 8948TIP3    H148259   4.547   4.085   3.215 -0.2421 -1.3056  1.0294
 8948TIP3    H248260   4.539   4.102   3.065 -1.4302  2.5147  1.4058
 8949TIP3   OH248261   2.605   1.347   4.294  0.5937 -0.2601  0.3138
 8949TIP3    H148262   2.529   1.337   4.236  0.6322  0.1032  0.1999
 8949TIP3    H248263   2.567   1.355   4.381  0.3809  1.7513  0.0809
 8950TIP3   OH248264   0.901   4.031   5.610 -0.1394  0.0157  0.0317
 8950TIP3    H148265   0.821   4.078   5.586  0.1255  1.1427  1.2743
 8950TIP3    H248266   0.970   4.098   5.610  0.1678 -0.2217  2.2728
 8951TIP3   OH248267   1.440   3.262  14.583 -0.4853 -0.0290 -0.5762
 8951TIP3    H148268   1.400   3.218  14.509 -2.8881  0.2460  0.4589
 8951TIP3    H248269   1.381   3.245  14.656  1.4605  0.2325  1.1552
 8952TIP3   OH248270   0.266   4.270  11.602 -0.4728  0.2810  0.0710
 8952TIP3    H148271   0.300   4.241  11.517 -0.2259  0.8764 -0.0379
 8952TIP3    H248272   0.290   4.200  11.663 -0.4907 -0.0615 -0.3162
 8953TIP3   OH248273   0.253   5.295  13.317 -0.0303 -0.1008  0.5859
 8953TIP3    H148274   0.268   5.382  13.353  2.6534 -0.5866  0.8619
 8953TIP3    H248275   0.286   5.235  13.384 -0.6109 -1.2882 -0.1532
 8954TIP3   OH248276   6.068   6.283   4.374 -0.0843  0.3545  0.3520
 8954TIP3    H148277   6.126   6.351   4.341 -0.7274  0.9639  0.4488
 8954TIP3    H248278   6.000   6.274   4.307 -1.3511  1.5367  1.3896
 8955TIP3   OH248279   1.006   2.536   2.380  0.8924  0.0376 -0.2453
 8955TIP3    H148280   0.932   2.517   2.321  0.2058 -3.3184  1.4560
 8955TIP3    H248281   1.081   2.542   2.321 -0.3446  1.4447 -1.8249
 8956TIP3   OH248282   1.025   1.785   1.191 -0.6621 -0.1969  0.1125
 8956TIP3    H148283   1.001   1.845   1.121  0.1175  0.7660  0.6374
 8956TIP3    H248284   1.116   1.763   1.174 -0.8184 -0.8905  0.1660
 8957TIP3   OH248285   2.455   3.555   1.655  0.2941 -0.2816 -0.3083
 8957TIP3    H148286   2.436   3.610   1.580 -0.7690  0.4329  0.4564
 8957TIP3    H248287   2.439   3.611   1.731  1.6709 -0.8768  0.4697
 8958TIP3   OH248288   0.229   5.336   4.387 -0.5618  0.0078  0.7465
 8958TIP3    H148289   0.294   5.285   4.434 -2.0098 -0.3246  2.5208
 8958TIP3    H248290   0.206   5.282   4.311  1.2764  0.2046  0.0155
 8959TIP3   OH248291   1.321   0.588   4.826 -0.1918 -0.5101 -0.5824
 8959TIP3    H148292   1.351   0.676   4.848 -0.0626 -0.5416 -0.6311
 8959TIP3    H248293   1.394   0.531   4.849  0.0570 -0.5131 -1.3474
 8960TIP3   OH248294   3.737   3.921  11.092 -0.4638 -0.2274 -0.5499
 8960TIP3    H148295   3.754   3.946  11.183  1.7747  1.0781 -1.2566
 8960TIP3    H248296   3.646   3.948  11.077 -0.1435  1.7131  0.6338
 8961TIP3   OH248297   4.138   0.246  15.063  0.1399  0.2656  0.5972
 8961TIP3    H148298   4.202   0.304  15.105 -0.6296  0.9696  0.8158
 8961TIP3    H248299   4.142   0.271  14.970  0.1063  0.3829  0.6271
 8962TIP3   OH248300   5.402   5.538   4.312 -0.1177 -0.8673 -0.6182
 8962TIP3    H148301   5.342   5.581   4.251 -0.3161  0.2379  0.2946
 8962TIP3    H248302   5.486   5.581   4.297 -0.2611 -0.2989  0.1392
 8963TIP3   OH248303   1.324   6.619  13.766  0.4817 -0.6828 -0.1168
 8963TIP3    H148304   1.359   6.651  13.682 -0.3953  0.2680 -0.1280
 8963TIP3    H248305   1.305   6.698  13.816 -0.2635 -1.2160  0.4610
 8964TIP3   OH248306   3.103   2.383  11.960 -0.0035 -0.3134  0.3816
 8964TIP3    H148307   3.064   2.378  12.047  0.8283 -1.5104  0.7005
 8964TIP3    H248308   3.094   2.476  11.936 -0.6222 -0.0475  1.5449
 8965TIP3   OH248309   4.247   5.514   5.077 -0.2506  0.1893  0.6365
 8965TIP3    H148310   4.247   5.562   5.160  1.5339  1.9239 -0.2860
 8965TIP3    H248311   4.294   5.571   5.016  0.4153 -1.9907 -1.0133
 8966TIP3   OH248312   5.128   5.695   3.404 -0.1468 -0.3189 -0.3738
 8966TIP3    H148313   5.127   5.623   3.341  0.1854 -0.6854  0.0311
 8966TIP3    H248314   5.057   5.674   3.465 -1.1131  0.5376 -1.1628
 8967TIP3   OH248315   0.263   3.196  15.618 -0.8819 -0.5747 -0.1559
 8967TIP3    H148316   0.318   3.143  15.676 -0.1916  0.5523  0.2307
 8967TIP3    H248317   0.206   3.132  15.575 -1.1930 -1.4802  1.5072
 8968TIP3   OH248318   2.083   1.932  12.052  0.2403  0.1254  0.3870
 8968TIP3    H148319   2.114   1.870  12.118  1.1740 -0.7201 -0.8162
 8968TIP3    H248320   1.987   1.925  12.056  0.2845 -0.0950  1.4614
 8969TIP3   OH248321   3.800   0.794   3.314 -0.3961 -0.2226 -0.1834
 8969TIP3    H148322   3.863   0.751   3.372 -1.4416 -0.7736  0.5933
 8969TIP3    H248323   3.805   0.887   3.336 -0.6327 -0.4030  0.6657
 8970TIP3   OH248324   2.980   4.494  13.617 -0.0716 -0.0537 -0.1153
 8970TIP3    H148325   3.014   4.481  13.528  0.2276 -0.7117  0.0923
 8970TIP3    H248326   2.946   4.409  13.642  0.1472  0.0460  0.5323
 8971TIP3   OH248327   2.441   5.053   0.644 -0.4196  0.4925  0.0485
 8971TIP3    H148328   2.505   5.086   0.581 -0.7429 -0.6425 -0.9111
 8971TIP3    H248329   2.398   4.980   0.599 -1.2651  0.1997  1.2708
 8972TIP3   OH248330   6.216   3.634   0.920 -0.5529 -0.2060  0.3014
 8972TIP3    H148331   6.149   3.643   0.987 -0.4415 -0.5720  0.4662
 8972TIP3    H248332   6.230   3.539   0.913  2.8545 -0.1405  3.2019
 8973TIP3   OH248333   5.101   5.493  15.737  0.2903 -0.5455  0.5679
 8973TIP3    H148334   5.161   5.521  15.806  2.3717  2.0460 -2.0714
 8973TIP3    H248335   5.110   5.397  15.735  5.7139 -0.3158 -0.6393
 8974TIP3   OH248336   6.012   6.523  12.616  0.3319  0.1131  0.8101
 8974TIP3    H148337   5.988   6.490  12.703 -0.8994 -0.4756  0.2744
 8974TIP3    H248338   5.934   6.505  12.562  1.2899 -0.0725 -0.5488
 8975TIP3   OH248339   5.943   3.677   6.129  0.1600  0.6337  0.2312
 8975TIP3    H148340   6.026   3.715   6.157 -0.1432  2.3513 -1.0508
 8975TIP3    H248341   5.963   3.584   6.115  0.6351 -0.1189  4.5651
 8976TIP3   OH248342   0.899   1.725   0.024 -0.3062 -0.0344 -0.3922
 8976TIP3    H148343   0.940   1.683   0.099  0.5232 -0.5744 -1.1283
 8976TIP3    H248344   0.918   1.818   0.035 -1.8580  0.1680  1.0693
 8977TIP3   OH248345   0.887   0.424   5.595 -0.2950  0.0095 -0.6204
 8977TIP3    H148346   0.914   0.360   5.530 -0.5641  1.4213 -2.1844
 8977TIP3    H248347   0.792   0.416   5.600 -0.3587  0.4691 -1.0337
 8978TIP3   OH248348   1.721   6.339  12.325  0.2539  0.3297  0.3025
 8978TIP3    H148349   1.815   6.337  12.339  0.1037 -2.3595  1.5680
 8978TIP3    H248350   1.685   6.373  12.407  0.0536 -0.7671  0.6835
 8979TIP3   OH248351   1.707   0.643   6.798  0.1422 -0.1193 -0.0801
 8979TIP3    H148352   1.614   0.623   6.786 -0.3011 -0.3497  2.8069
 8979TIP3    H248353   1.711   0.738   6.803 -0.1098 -0.1402  0.6552
 8980TIP3   OH248354   4.684   2.136  17.064  0.4724 -0.1305 -0.0680
 8980TIP3    H148355   4.679   2.199  16.992 -1.4708  1.1341  1.0708
 8980TIP3    H248356   4.776   2.135  17.089  0.8323  0.9206 -1.2560
 8981TIP3   OH248357   0.302   4.208   4.221  0.1619 -0.1896  0.3627
 8981TIP3    H148358   0.324   4.212   4.128  0.8855 -1.0721  0.4810
 8981TIP3    H248359   0.298   4.114   4.240 -1.7500 -0.0708  0.8203
 8982TIP3   OH248360   1.804   4.906   2.620 -0.5887 -0.0176  0.3629
 8982TIP3    H148361   1.841   4.832   2.668  2.2569  0.3328 -1.0999
 8982TIP3    H248362   1.739   4.867   2.562  0.8400 -1.4052 -0.3764
 8983TIP3   OH248363   4.123   0.952  12.246 -0.4563 -0.5845  0.7569
 8983TIP3    H148364   4.188   0.957  12.176  0.2545  0.6425  1.4572
 8983TIP3    H248365   4.057   1.016  12.223 -3.2416 -3.9497 -1.5910
 8984TIP3   OH248366   3.245   0.273  14.468 -0.2878  0.3778  0.4187
 8984TIP3    H148367   3.325   0.323  14.484  0.2370 -0.6406  1.0636
 8984TIP3    H248368   3.244   0.259  14.373  0.1795  0.5850  0.3815
 8985TIP3   OH248369   0.831   0.348   5.054  0.1257  0.4126  0.3724
 8985TIP3    H148370   0.863   0.395   5.131  0.1741  0.0752  0.5610
 8985TIP3    H248371   0.901   0.358   4.989 -0.0288  0.9154  0.2844
 8986TIP3   OH248372   1.459   5.864   6.105  0.0710  0.1504 -0.1282
 8986TIP3    H148373   1.522   5.877   6.176 -0.5092  0.3398  0.3612
 8986TIP3    H248374   1.379   5.906   6.136 -1.1537 -2.4250  0.4832
 8987TIP3   OH248375   6.231   2.082   1.151 -0.1790 -0.1195 -0.2233
 8987TIP3    H148376   6.204   1.991   1.139  0.4968 -0.6081  1.6324
 8987TIP3    H248377   6.249   2.090   1.245  2.8526  1.0424 -0.7775
 8988TIP3   OH248378   0.870   5.923  12.828  0.1656  0.2242  0.4703
 8988TIP3    H148379   0.875   5.957  12.917  0.2775  0.2937  0.4374
 8988TIP3    H248380   0.776   5.915  12.811  0.1141  1.2634  0.2035
 8989TIP3   OH248381   2.971   3.705   2.824 -0.2919  0.1324 -0.5003
 8989TIP3    H148382   3.017   3.643   2.767 -0.3166 -0.1963 -0.1658
 8989TIP3    H248383   2.888   3.661   2.845  0.5361 -0.6131  1.3885
 8990TIP3   OH248384   0.386   5.292  11.297 -0.6323 -0.3909 -0.0087
 8990TIP3    H148385   0.469   5.263  11.259 -1.0818 -0.7823 -0.7293
 8990TIP3    H248386   0.341   5.337  11.225 -0.5925  0.7937  0.6765
 8991TIP3   OH248387   0.631   0.562   0.179 -0.0512 -0.1125 -0.5063
 8991TIP3    H148388   0.626   0.603   0.265 -0.7282 -0.0051 -0.5849
 8991TIP3    H248389   0.703   0.500   0.185  0.6762  0.7423 -0.2334
 8992TIP3   OH248390   1.981   6.414   0.550 -0.2550 -0.0790  0.0675
 8992TIP3    H148391   1.952   6.425   0.641 -0.8653  2.0429 -0.3214
 8992TIP3    H248392   1.983   6.503   0.515 -2.7910 -0.9681 -2.8268
 8993TIP3   OH248393   6.305   3.100   1.269 -0.3931  0.2188 -0.3417
 8993TIP3    H148394   6.245   3.036   1.307  0.8124 -1.1457 -0.6027
 8993TIP3    H248395   6.360   3.128   1.342 -1.3263  1.4532 -0.1042
 8994TIP3   OH248396   5.539   2.558  12.423  0.7003 -0.0866 -0.5272
 8994TIP3    H148397   5.533   2.646  12.461 -2.2471  0.8325 -2.7882
 8994TIP3    H248398   5.523   2.499  12.497 -1.4478  1.4705  0.3373
 8995TIP3   OH248399   4.654   3.068  16.170 -0.0951 -0.2516  0.3750
 8995TIP3    H148400   4.717   3.071  16.098  0.5773  0.0960  0.9643
 8995TIP3    H248401   4.568   3.064  16.127  0.3473 -1.6401 -0.4515
 8996TIP3   OH248402   3.453   6.592   2.711  0.0862  0.3886 -0.1776
 8996TIP3    H148403   3.390   6.620   2.645 -0.7245 -1.5163 -0.2637
 8996TIP3    H248404   3.401   6.547   2.777  1.1868  0.0352  0.4850
 8997TIP3   OH248405   5.947   0.849   0.667  0.3580  0.4355  0.2477
 8997TIP3    H148406   6.019   0.789   0.685  0.8336  1.3061  1.3593
 8997TIP3    H248407   5.871   0.792   0.654  1.5309 -0.6440 -2.9777
 8998TIP3   OH248408   2.315   2.484  13.690 -0.0744 -0.0942  0.5510
 8998TIP3    H148409   2.287   2.575  13.700 -0.0826 -0.2601  2.3536
 8998TIP3    H248410   2.328   2.453  13.779  2.7819 -0.9971 -0.0746
 8999TIP3   OH248411   4.801   4.880   6.583 -0.4221 -0.0843  0.6637
 8999TIP3    H148412   4.893   4.853   6.589  0.0157  1.1913  0.0436
 8999TIP3    H248413   4.793   4.920   6.497 -1.9514 -1.5175  0.0890
 9000TIP3   OH248414   5.135   2.924  16.873  0.0317 -0.4112  0.6197
 9000TIP3    H148415   5.183   2.865  16.932  0.0136  0.7973  1.9036
 9000TIP3    H248416   5.108   2.997  16.929 -1.6701 -0.1319 -0.4819
 9001TIP3   OH248417   2.131   5.763   2.539  0.2439  0.3774  0.0544
 9001TIP3    H148418   2.213   5.725   2.569 -0.5505 -1.5097 -0.0426
 9001TIP3    H248419   2.079   5.773   2.618 -0.8589 -2.1346 -0.2605
 9002TIP3   OH248420   1.177   0.473  14.408  0.2252  0.0034  0.5731
 9002TIP3    H148421   1.164   0.449  14.316  0.8804  1.3049  0.1093
 9002TIP3    H248422   1.116   0.419  14.457  0.3374 -1.1934 -0.5715
 9003TIP3   OH248423   2.950   1.046   3.854 -0.7481 -0.1938  0.2350
 9003TIP3    H148424   2.876   0.986   3.865 -0.8378 -0.1154  0.0683
 9003TIP3    H248425   3.016   0.993   3.809 -1.2243  0.1249 -0.8955
 9004TIP3   OH248426   1.162   5.270  13.611  0.1614 -0.3695  0.0215
 9004TIP3    H148427   1.206   5.302  13.689  0.7201 -0.3687 -0.2897
 9004TIP3    H248428   1.231   5.230  13.559 -0.0154  0.5648 -0.9624
 9005TIP3   OH248429   5.112   4.783  12.914 -0.3859  0.0285 -0.4471
 9005TIP3    H148430   5.105   4.810  13.006  1.6532  1.3374 -0.6133
 9005TIP3    H248431   5.120   4.688  12.918 -0.7720  0.0300  0.6952
 9006TIP3   OH248432   6.651   5.821  11.240  1.3057 -0.3201 -0.8426
 9006TIP3    H148433   6.622   5.746  11.187 -2.4364  0.5726 -0.3806
 9006TIP3    H248434   6.683   5.885  11.176 -2.5182  0.4812 -2.2138
 9007TIP3   OH248435   1.494   4.701  15.037 -0.0056  0.1338  0.4057
 9007TIP3    H148436   1.453   4.701  15.124  1.9764 -0.3836  1.3974
 9007TIP3    H248437   1.564   4.766  15.044  1.4262 -1.2861 -0.1371
 9008TIP3   OH248438   4.859   1.112  16.123  0.5280 -0.2163 -0.2861
 9008TIP3    H148439   4.854   1.158  16.207 -0.9166  1.7313 -1.3604
 9008TIP3    H248440   4.819   1.027  16.140 -1.3611  0.7826  0.6426
 9009TIP3   OH248441   5.756   1.710  13.809  0.3322  0.0158  0.1937
 9009TIP3    H148442   5.665   1.734  13.792  0.6028  0.7250 -0.2852
 9009TIP3    H248443   5.807   1.766  13.751  1.1128  0.0894  0.9281
 9010TIP3   OH248444   0.537   2.926  16.160 -0.1425  0.8451  0.3064
 9010TIP3    H148445   0.494   3.010  16.144  1.0617  2.1240  3.0746
 9010TIP3    H248446   0.612   2.925  16.102 -2.3204 -0.3016 -2.7606
 9011TIP3   OH248447   6.521   2.996  11.000  0.3031 -0.7146 -0.4171
 9011TIP3    H148448   6.595   2.957  11.046 -1.5550 -2.9964  0.9351
 9011TIP3    H248449   6.547   2.999  10.908  2.0923 -1.3164  0.0418
 9012TIP3   OH248450   1.378   2.566  13.107 -0.3696  0.0851  0.6297
 9012TIP3    H148451   1.458   2.577  13.056  0.1457 -2.7408  0.6579
 9012TIP3    H248452   1.308   2.589  13.046  0.3164 -1.5594 -0.8839
 9013TIP3   OH248453   1.048   1.387  14.205 -0.5332 -0.1117 -0.1858
 9013TIP3    H148454   1.002   1.307  14.229  1.1058 -1.0362  0.0304
 9013TIP3    H248455   1.048   1.387  14.109  0.1465 -0.7913 -0.1900
 9014TIP3   OH248456   3.764   4.163  15.457 -0.4961  0.3908  0.3938
 9014TIP3    H148457   3.712   4.173  15.537 -0.5839  0.6167  0.3090
 9014TIP3    H248458   3.701   4.176  15.386 -0.9001 -1.9775  0.2373
 9015TIP3   OH248459   5.915   6.215  16.134 -0.8790 -0.2557  0.0166
 9015TIP3    H148460   5.972   6.154  16.087 -2.4242 -0.9335 -1.0842
 9015TIP3    H248461   5.909   6.178  16.223 -0.7699 -1.0037 -0.2762
 9016TIP3   OH248462   6.441   4.275  16.023 -0.2860  1.1342 -0.1806
 9016TIP3    H148463   6.520   4.223  16.006  0.1851  1.4091  1.0856
 9016TIP3    H248464   6.388   4.263  15.944  1.0048  0.9287 -1.0556
 9017TIP3   OH248465   0.160   5.193  12.887 -0.0319 -0.3044  0.3364
 9017TIP3    H148466   0.228   5.234  12.833 -0.6800 -1.3413 -1.3334
 9017TIP3    H248467   0.080   5.204  12.836 -0.4269 -2.5714  0.3985
 9018TIP3   OH248468   3.466   3.663   3.095 -0.0758 -0.2810  0.5319
 9018TIP3    H148469   3.523   3.739   3.088 -1.2789  0.5807 -0.3440
 9018TIP3    H248470   3.396   3.692   3.154 -2.1695  0.4219 -2.1027
 9019TIP3   OH248471   3.676   6.092  17.207  0.2505 -0.1912  0.5673
 9019TIP3    H148472   3.632   6.115  17.288 -3.3695  3.2180 -1.9599
 9019TIP3    H248473   3.736   6.164  17.190 -1.7538  1.1861 -1.3258
 9020TIP3   OH248474   5.290   1.564   4.922  0.1568 -0.5470  0.0640
 9020TIP3    H148475   5.212   1.545   4.973  1.5563 -0.1783  2.4841
 9020TIP3    H248476   5.363   1.530   4.975  1.6419 -1.4288 -2.3636
 9021TIP3   OH248477   1.082   1.777   3.708 -1.0563 -0.3272 -0.2061
 9021TIP3    H148478   1.155   1.718   3.687 -0.7012 -0.2327  0.7391
 9021TIP3    H248479   1.006   1.720   3.713 -1.2239 -0.3352 -1.9437
 9022TIP3   OH248480   5.371   1.974   3.806  0.3397  0.0302  0.3543
 9022TIP3    H148481   5.308   2.045   3.820 -0.4990 -0.1530 -2.0774
 9022TIP3    H248482   5.453   2.018   3.783 -0.2838  0.2787 -1.5563
 9023TIP3   OH248483   2.071   6.647  12.246 -0.0978 -0.0936  0.1720
 9023TIP3    H148484   2.092   6.636  12.153 -1.2927 -2.1106  0.0857
 9023TIP3    H248485   1.984   6.688  12.247 -0.5964 -1.1281  0.3577
 9024TIP3   OH248486   4.573   6.072   3.197  0.5661 -0.2625 -0.1026
 9024TIP3    H148487   4.534   5.997   3.152 -0.2478  1.1157 -1.7947
 9024TIP3    H248488   4.589   6.137   3.129  0.0872  1.5966  1.4409
 9025TIP3   OH248489   2.800   6.152   1.201 -0.7772  0.1209  0.5624
 9025TIP3    H148490   2.714   6.117   1.178 -0.6208  1.0940 -1.7773
 9025TIP3    H248491   2.786   6.246   1.213  0.0189  0.3743 -0.3470
 9026TIP3   OH248492   4.157   1.343   0.768 -0.2219 -0.3850  0.2915
 9026TIP3    H148493   4.182   1.286   0.840 -0.2261 -2.8916 -1.5514
 9026TIP3    H248494   4.226   1.409   0.764  0.9129 -1.4644  1.2816
 9027TIP3   OH248495   2.685   0.701  13.782  0.0644  0.1601  0.7068
 9027TIP3    H148496   2.642   0.782  13.753  0.0365  0.0216  0.3633
 9027TIP3    H248497   2.776   0.726  13.797  0.8638 -0.4045 -2.4391
 9028TIP3   OH248498   5.366   2.843  12.286 -0.2006  0.3537 -0.5848
 9028TIP3    H148499   5.369   2.751  12.261 -2.0648  0.3650 -0.9561
 9028TIP3    H248500   5.317   2.844  12.369  0.6262  0.9339 -0.0832
 9029TIP3   OH248501   4.442   6.557  12.535  0.0003 -0.2271  0.0210
 9029TIP3    H148502   4.396   6.486  12.581  0.1796  0.5695  1.4757
 9029TIP3    H248503   4.393   6.636  12.556  1.9366  0.6490  1.5897
 9030TIP3   OH248504   6.489   3.962  15.180 -0.2745  0.1929 -0.3012
 9030TIP3    H148505   6.418   4.025  15.167 -0.6854  0.1477  1.5185
 9030TIP3    H248506   6.538   3.996  15.255  1.9908  0.5079 -1.8245
 9031TIP3   OH248507   3.241   6.683  14.246  0.4208 -0.1930 -0.6206
 9031TIP3    H148508   3.207   6.630  14.318  1.3508  1.2863  0.9765
 9031TIP3    H248509   3.168   6.690  14.184 -0.8601 -0.3682  0.8287
 9032TIP3   OH248510   0.184   4.076   3.229  0.2604  0.0032  0.4065
 9032TIP3    H148511   0.235   4.035   3.299 -1.2734 -2.5831  0.1373
 9032TIP3    H248512   0.208   4.026   3.151 -0.8361  0.3631 -0.1770
 9033TIP3   OH248513   1.340   1.205   0.191 -1.0938  0.0555 -0.7133
 9033TIP3    H148514   1.409   1.170   0.248 -1.2449 -1.0206 -1.1636
 9033TIP3    H248515   1.386   1.263   0.130 -0.2194 -2.0960 -2.2403
 9034TIP3   OH248516   5.661   5.439   4.703  0.5335 -0.3569  0.2716
 9034TIP3    H148517   5.755   5.456   4.701  0.3670  0.5734 -0.5795
 9034TIP3    H248518   5.639   5.416   4.613 -0.3302  1.1193  0.0702
 9035TIP3   OH248519   5.813   2.381   3.239 -0.6681 -0.2461  0.3669
 9035TIP3    H148520   5.899   2.358   3.203 -0.9978 -0.5130 -0.2566
 9035TIP3    H248521   5.772   2.297   3.258 -0.8495 -0.1200  0.5441
 9036TIP3   OH248522   1.316   5.045   2.997 -0.7900  0.2085  0.0562
 9036TIP3    H148523   1.363   5.059   2.915  0.1434 -1.2712  0.2984
 9036TIP3    H248524   1.336   4.955   3.021 -2.4547  0.0576  1.0355
 9037TIP3   OH248525   1.491   2.727  16.532  0.4386  0.0313 -0.0907
 9037TIP3    H148526   1.530   2.791  16.472 -0.9470 -0.1648 -1.2653
 9037TIP3    H248527   1.557   2.658  16.539  1.5370  1.0981  0.3887
 9038TIP3   OH248528   1.604   0.640   1.085 -0.2459  0.1586  0.0416
 9038TIP3    H148529   1.612   0.728   1.049 -0.9897  0.4189  0.4780
 9038TIP3    H248530   1.516   0.638   1.124  0.0252 -0.5508  0.6454
 9039TIP3   OH248531   3.381   2.910  12.879 -0.4434 -0.0945  0.6181
 9039TIP3    H148532   3.317   2.936  12.813 -0.0133  0.6682  0.4890
 9039TIP3    H248533   3.394   2.988  12.932 -0.0282 -0.3998  0.9776
 9040TIP3   OH248534   1.201   3.275   3.972 -0.1131 -0.0139  0.0349
 9040TIP3    H148535   1.245   3.307   3.894 -0.7280  0.7827 -0.0009
 9040TIP3    H248536   1.110   3.304   3.962 -0.0127  0.8602  1.4477
 9041TIP3   OH248537   6.330   5.047  16.368  0.3187 -0.1424  0.1342
 9041TIP3    H148538   6.252   4.996  16.346  0.1153  0.8464 -1.5742
 9041TIP3    H248539   6.298   5.118  16.424  0.4057 -1.1037  1.4476
 9042TIP3   OH248540   4.190   1.488   3.629 -0.3217 -0.4911 -0.4599
 9042TIP3    H148541   4.105   1.454   3.656  0.1108 -0.1860  1.3855
 9042TIP3    H248542   4.179   1.507   3.535 -2.7213  0.8208 -0.0088
 9043TIP3   OH248543   0.092   2.669   3.231 -0.2996  0.0830 -0.1839
 9043TIP3    H148544   0.091   2.586   3.279  1.6649 -0.4961 -1.0364
 9043TIP3    H248545   0.035   2.654   3.156 -0.1665 -0.4094 -0.1900
 9044TIP3   OH248546   6.551   3.135   6.403 -0.5863 -0.5016 -0.0959
 9044TIP3    H148547   6.644   3.139   6.421 -0.8394 -1.6010  1.6729
 9044TIP3    H248548   6.519   3.061   6.455 -2.8319  1.2229  1.1497
 9045TIP3   OH248549   4.467   5.996   1.428  0.9672  0.1348 -0.4283
 9045TIP3    H148550   4.535   6.026   1.488 -0.7671  2.1576  0.6752
 9045TIP3    H248551   4.388   6.041   1.457 -1.2233 -3.1308 -0.7384
 9046TIP3   OH248552   2.743   1.357  17.298  0.1974  0.4160  0.7783
 9046TIP3    H148553   2.665   1.323  17.254  0.2087  0.4999  0.6916
 9046TIP3    H248554   2.815   1.335  17.239  0.2437  0.3077  0.8748
 9047TIP3   OH248555   0.237   5.980   0.952  0.2518  0.2085  0.0855
 9047TIP3    H148556   0.258   5.894   0.988 -1.1064 -1.2583 -2.3172
 9047TIP3    H248557   0.149   5.999   0.985 -0.2999 -0.3445 -1.0172
 9048TIP3   OH248558   1.387   4.527   0.421 -0.2401 -0.0400 -0.4641
 9048TIP3    H148559   1.456   4.463   0.406 -0.5297 -0.5873  0.4254
 9048TIP3    H248560   1.424   4.588   0.484 -0.4873 -0.2240 -0.1329
 9049TIP3   OH248561   5.343   2.434   0.761  0.5090  0.4574  0.1301
 9049TIP3    H148562   5.333   2.369   0.691 -0.5817  1.0462 -0.2791
 9049TIP3    H248563   5.432   2.421   0.792  0.4830 -0.8985 -0.2847
 9050TIP3   OH248564   6.255   1.007   5.529 -1.2172 -0.0383  0.4999
 9050TIP3    H148565   6.228   0.979   5.617 -1.3105  1.5399  0.9990
 9050TIP3    H248566   6.172   1.025   5.484 -1.1554 -0.4760  0.2064
 9051TIP3   OH248567   2.854   2.849   1.245 -0.0761 -0.1112 -0.1904
 9051TIP3    H148568   2.886   2.774   1.296 -0.2663  0.5227  0.8811
 9051TIP3    H248569   2.896   2.925   1.284 -0.8396  0.4675 -0.4714
 9052TIP3   OH248570   4.953   1.350   2.912 -0.9246 -0.2394  0.1228
 9052TIP3    H148571   4.915   1.432   2.882 -2.7622 -0.8934  0.4772
 9052TIP3    H248572   5.018   1.327   2.846 -2.6148 -0.0579 -1.6885
 9053TIP3   OH248573   1.443   0.273   1.855 -0.3572  0.1277 -0.6459
 9053TIP3    H148574   1.355   0.309   1.867 -0.3579 -0.3313  1.0066
 9053TIP3    H248575   1.497   0.323   1.917  0.3319 -0.3206 -0.8786
 9054TIP3   OH248576   1.401   4.654   4.802 -0.1843  0.8541  0.3154
 9054TIP3    H148577   1.465   4.669   4.733 -1.7476 -0.0733 -1.4217
 9054TIP3    H248578   1.437   4.582   4.854 -0.6333 -1.0209 -1.8278
 9055TIP3   OH248579   0.684   0.474   4.111 -0.4609 -0.2880  0.0978
 9055TIP3    H148580   0.764   0.448   4.158 -0.0763  1.0928  0.2584
 9055TIP3    H248581   0.655   0.394   4.067  0.3315 -1.1143  1.0063
 9056TIP3   OH248582   5.537   5.118   1.351  0.3217  0.2896  0.3630
 9056TIP3    H148583   5.552   5.210   1.329 -0.6840  0.2131 -0.7374
 9056TIP3    H248584   5.442   5.107   1.345  0.5124 -1.0744 -0.6377
 9057TIP3   OH248585   0.857   0.580   1.565 -0.0697 -0.6667 -1.0082
 9057TIP3    H148586   0.934   0.555   1.614 -0.6267  0.0890  0.2956
 9057TIP3    H248587   0.828   0.662   1.605 -1.2271 -0.6422 -1.8300
 9058TIP3   OH248588   6.612   3.891  13.763  0.0945  0.8355  0.4046
 9058TIP3    H148589   6.556   3.817  13.738  2.3866 -1.1977  0.9615
 9058TIP3    H248590   6.568   3.930  13.838 -1.0509 -0.0890  0.2471
 9059TIP3   OH248591   1.961   3.596  12.340 -0.0219  0.0515  0.2549
 9059TIP3    H148592   2.056   3.590  12.336 -0.0579 -0.7285  0.4773
 9059TIP3    H248593   1.943   3.690  12.341  0.6894  0.2219 -0.9628
 9060TIP3   OH248594   3.705   3.042   3.706 -0.2376  0.8107 -0.4035
 9060TIP3    H148595   3.609   3.037   3.711 -0.2038  0.7965  0.3474
 9060TIP3    H248596   3.728   2.982   3.635 -0.8696  1.8930 -1.5758
 9061TIP3   OH248597   5.359   5.700   0.547 -0.5391 -0.5345  0.1839
 9061TIP3    H148598   5.357   5.635   0.477 -1.7725 -2.6642  2.0426
 9061TIP3    H248599   5.452   5.718   0.561 -0.2178 -1.1087 -1.0479
 9062TIP3   OH248600   2.544   5.106   4.854  0.1195 -0.1843 -0.2187
 9062TIP3    H148601   2.593   5.088   4.774 -0.5213  0.6981 -0.8371
 9062TIP3    H248602   2.610   5.134   4.917  0.9516 -3.1172  0.3429
 9063TIP3   OH248603   4.831   2.637   5.657  0.0589 -0.4307 -0.4648
 9063TIP3    H148604   4.853   2.567   5.597  0.1230 -2.8329  2.1469
 9063TIP3    H248605   4.743   2.616   5.688  0.7946 -0.5155  1.7700
 9064TIP3   OH248606   2.554   5.629   6.302 -0.8355  0.5542 -0.0397
 9064TIP3    H148607   2.637   5.646   6.258 -1.0061  0.9446 -0.2186
 9064TIP3    H248608   2.551   5.534   6.311 -1.9364  0.1739 -3.1872
 9065TIP3   OH248609   6.119   1.186   3.592 -0.0542  0.3893 -0.4395
 9065TIP3    H148610   6.045   1.134   3.559  1.3758 -1.3886 -1.0396
 9065TIP3    H248611   6.129   1.257   3.528  1.2088 -1.6720 -2.7267
 9066TIP3   OH248612   4.240   6.550  16.010 -0.8061 -0.5012  0.3624
 9066TIP3    H148613   4.286   6.633  15.996 -0.6087 -0.3586  1.6764
 9066TIP3    H248614   4.150   6.566  15.982 -0.5530 -0.1288 -0.2434
 9067TIP3   OH248615   6.672   2.908   1.209 -0.2891 -0.3076 -0.0224
 9067TIP3    H148616   6.710   2.843   1.150 -0.2499  0.9226 -1.4045
 9067TIP3    H248617   6.631   2.972   1.151  0.6027  1.4760  1.2337
 9068TIP3   OH248618   1.407   3.307   3.777  0.2339  0.1588 -0.3781
 9068TIP3    H148619   1.473   3.258   3.728 -0.6882  0.4639 -2.0049
 9068TIP3    H248620   1.447   3.393   3.791  0.0079  0.5516 -1.8945
 9069TIP3   OH248621   1.797   4.498  14.508  0.3513 -0.2153 -0.4943
 9069TIP3    H148622   1.766   4.409  14.529 -2.7064  1.2279  2.0732
 9069TIP3    H248623   1.732   4.532  14.448  1.1533  0.5180 -0.9584
 9070TIP3   OH248624   6.309   5.043   3.500 -0.0956 -0.1366 -0.0218
 9070TIP3    H148625   6.217   5.027   3.521 -0.0638  1.0075  1.1192
 9070TIP3    H248626   6.310   5.128   3.457  0.1992 -1.1795 -2.2222
 9071TIP3   OH248627   0.680   0.101  16.153  0.3572 -0.1835 -0.2188
 9071TIP3    H148628   0.621   0.093  16.077  0.4439 -2.5291 -0.1259
 9071TIP3    H248629   0.642   0.043  16.219  0.8096  1.0879  1.2147
 9072TIP3   OH248630   0.999   3.400   6.107 -0.4022 -0.0391 -0.1236
 9072TIP3    H148631   1.031   3.441   6.188  1.4751  0.2728 -0.9561
 9072TIP3    H248632   1.071   3.343   6.080 -1.5358 -1.1647 -0.8882
 9073TIP3   OH248633   5.759   0.817   5.554 -0.1844 -0.2319 -0.3193
 9073TIP3    H148634   5.818   0.751   5.517 -0.1599 -3.0905  4.0688
 9073TIP3    H248635   5.681   0.812   5.499  1.3493 -0.8281 -2.6033
 9074TIP3   OH248636   0.692   4.866  15.642  0.2906  0.3282  0.2393
 9074TIP3    H148637   0.706   4.959  15.659  1.2062  0.4882 -1.1597
 9074TIP3    H248638   0.768   4.823  15.682  1.4847  0.5275 -1.6733
 9075TIP3   OH248639   2.312   2.541   4.182 -0.0985  0.2563 -0.2036
 9075TIP3    H148640   2.227   2.583   4.167  0.0604  0.3600 -0.8048
 9075TIP3    H248641   2.369   2.577   4.115  0.0292 -0.9566 -0.7617
 9076TIP3   OH248642   1.098   2.662  12.639  0.6661  0.1699  0.5325
 9076TIP3    H148643   1.047   2.581  12.635  0.4073  0.3064  0.9269
 9076TIP3    H248644   1.096   2.697  12.550 -1.2720  0.9818  0.8533
 9077TIP3   OH248645   1.096   5.551  15.252  0.9750 -0.2542 -0.0703
 9077TIP3    H148646   1.027   5.502  15.209  0.6728 -0.1234  0.2624
 9077TIP3    H248647   1.110   5.628  15.197  3.1593 -1.8696 -1.9666
 9078TIP3   OH248648   6.421   1.711  13.278  0.1395 -0.0100  0.4556
 9078TIP3    H148649   6.510   1.723  13.246  0.4202 -0.0446  1.1918
 9078TIP3    H248650   6.369   1.690  13.200  0.9732 -1.0505  0.1573
 9079TIP3   OH248651   3.044   5.226  16.063 -0.8511 -0.0759  0.1953
 9079TIP3    H148652   2.989   5.243  15.987 -1.1032 -1.4740  0.0358
 9079TIP3    H248653   3.016   5.140  16.094 -1.9112  1.1359  2.9048
 9080TIP3   OH248654   4.077   1.060  13.638  0.1226  0.8153  0.3373
 9080TIP3    H148655   4.117   1.022  13.716 -0.0797  1.8449  0.9616
 9080TIP3    H248656   4.007   0.999  13.614  1.2408 -0.3693 -0.0466
 9081TIP3   OH248657   0.241   1.498   2.383  0.2265 -0.3753  0.1433
 9081TIP3    H148658   0.308   1.524   2.447 -0.3148  2.2028 -0.2274
 9081TIP3    H248659   0.246   1.565   2.315 -2.7303 -0.0700  0.1113
 9082TIP3   OH248660   1.319   0.211   0.767 -0.0813  0.1431 -0.0480
 9082TIP3    H148661   1.315   0.182   0.858  0.0553 -1.1305 -0.4193
 9082TIP3    H248662   1.237   0.181   0.728 -0.6286  1.6403 -0.0968
 9083TIP3   OH248663   4.269   3.504   0.795 -0.1328 -0.4777  0.6253
 9083TIP3    H148664   4.178   3.525   0.813 -0.3280 -1.1479  0.4240
 9083TIP3    H248665   4.305   3.585   0.758 -0.5813 -0.1398  0.9161
 9084TIP3   OH248666   5.528   3.624  15.971  0.2209  0.1292 -0.0797
 9084TIP3    H148667   5.525   3.718  15.954  1.0847  0.0661 -0.6408
 9084TIP3    H248668   5.449   3.606  16.022 -0.2904  1.0476 -0.5278
 9085TIP3   OH248669   3.311   6.009   4.982  0.3110 -0.0911  0.5961
 9085TIP3    H148670   3.293   5.955   5.060 -1.7482  0.7590  0.7674
 9085TIP3    H248671   3.266   6.091   4.999  2.2977  1.2389 -0.2480
 9086TIP3   OH248672   1.797   2.684  16.519  0.4833 -0.2948 -0.1104
 9086TIP3    H148673   1.884   2.643  16.519 -0.0358 -1.4258  0.4657
 9086TIP3    H248674   1.786   2.715  16.609  0.7439  0.8703 -0.4654
 9087TIP3   OH248675   1.600   5.205   3.010 -0.2450  0.4780 -0.4770
 9087TIP3    H148676   1.679   5.151   3.003 -0.2604  0.4715 -0.6149
 9087TIP3    H248677   1.556   5.174   3.088  1.9961  3.2181  2.1540
 9088TIP3   OH248678   2.824   3.758   5.653 -0.4798 -0.1225 -0.2035
 9088TIP3    H148679   2.855   3.845   5.676  2.0060 -1.0389  0.2126
 9088TIP3    H248680   2.821   3.711   5.736 -2.4450 -0.2809 -0.3278
 9089TIP3   OH248681   1.569   6.059  16.546 -0.2606  0.3607 -0.4241
 9089TIP3    H148682   1.476   6.056  16.570 -0.3036  1.1368 -0.4639
 9089TIP3    H248683   1.591   5.969  16.522 -0.1579 -0.5487  2.6702
 9090TIP3   OH248684   0.771   1.546  11.972 -0.2509  0.2880 -0.2463
 9090TIP3    H148685   0.854   1.533  11.926  0.2155 -0.0564  0.6637
 9090TIP3    H248686   0.704   1.530  11.905  0.4075  1.1467 -1.1403
 9091TIP3   OH248687   4.623   5.745   5.817  0.2253  0.3079 -0.0788
 9091TIP3    H148688   4.539   5.706   5.844 -0.3210  1.6466  0.2134
 9091TIP3    H248689   4.623   5.832   5.855  1.0213  0.9425 -1.4437
 9092TIP3   OH248690   5.454   1.782   1.823  0.0033  0.1099 -0.7403
 9092TIP3    H148691   5.477   1.865   1.782  1.1472 -0.0086 -0.3807
 9092TIP3    H248692   5.528   1.724   1.803 -1.1959 -1.1286 -1.7970
 9093TIP3   OH248693   6.089   0.032   4.853  1.0409 -0.0085 -0.0533
 9093TIP3    H148694   6.000   0.066   4.843  1.5605  1.2801 -0.4985
 9093TIP3    H248695   6.101  -0.024   4.776  0.1850 -1.2239  0.6699
 9094TIP3   OH248696   3.719   1.798   4.821  0.1133  0.0365 -0.1798
 9094TIP3    H148697   3.684   1.806   4.732 -2.0540 -1.3935  0.4792
 9094TIP3    H248698   3.773   1.720   4.819 -1.3252 -1.0055  0.1218
 9095TIP3   OH248699   5.129   5.811  15.206  0.0362 -0.7431 -0.3890
 9095TIP3    H148700   5.157   5.874  15.272  0.5200 -0.9088 -0.4373
 9095TIP3    H248701   5.154   5.726  15.241  1.4774 -0.7512 -1.3536
 9096TIP3   OH248702   4.994   1.034   2.380 -0.1539  0.6217  0.4025
 9096TIP3    H148703   4.923   0.976   2.409 -0.0649 -0.0107 -0.5689
 9096TIP3    H248704   5.074   0.989   2.406 -0.0752  0.0860 -0.6942
 9097TIP3   OH248705   4.449   3.951  14.573  0.2712  0.0768  0.0072
 9097TIP3    H148706   4.370   3.927  14.524 -1.8165  2.1148  2.1454
 9097TIP3    H248707   4.450   4.046  14.571  3.2686  0.1172 -0.6808
 9098TIP3   OH248708   5.620   0.733   3.244  0.2333 -0.7951 -0.3949
 9098TIP3    H148709   5.582   0.647   3.266  0.7505 -0.7332  0.8216
 9098TIP3    H248710   5.582   0.754   3.159  1.6491 -3.1673 -1.7312
 9099TIP3   OH248711   4.674   0.751  10.686  0.2050 -0.0004  0.0335
 9099TIP3    H148712   4.582   0.729  10.670  0.3692 -0.2679 -0.5655
 9099TIP3    H248713   4.681   0.844  10.663  0.5931 -0.5419 -2.2239
 9100TIP3   OH248714   2.910   1.544   5.743  0.0392 -0.0117  0.2103
 9100TIP3    H148715   2.966   1.468   5.728 -0.7164 -0.2398 -1.7833
 9100TIP3    H248716   2.916   1.595   5.663 -2.3167  0.1225  0.0394
 9101TIP3   OH248717   2.247   5.989   3.625 -0.3586 -1.2287  0.4599
 9101TIP3    H148718   2.330   5.990   3.672 -0.6005  1.1997  0.9373
 9101TIP3    H248719   2.265   5.937   3.547  1.6299 -0.7287  0.5257
 9102TIP3   OH248720   4.172   1.860   3.232 -0.1456 -0.2701  0.3698
 9102TIP3    H148721   4.215   1.906   3.160  0.7203 -2.6527 -0.7383
 9102TIP3    H248722   4.240   1.852   3.299  0.1053 -0.9900  0.0414
 9103TIP3   OH248723   0.694   6.308   1.410 -0.7909 -0.0889  0.2993
 9103TIP3    H148724   0.638   6.385   1.414 -0.9824 -0.2100  0.0108
 9103TIP3    H248725   0.692   6.272   1.499  0.3126  0.9376  0.7570
 9104TIP3   OH248726   2.803   0.517  11.367 -0.1173  0.1391  0.0970
 9104TIP3    H148727   2.884   0.511  11.316 -0.0027  1.4506  0.0955
 9104TIP3    H248728   2.763   0.431  11.358  1.4646 -0.6768  0.4229
 9105TIP3   OH248729   0.244   4.188  12.460  0.4851 -0.9204  0.1594
 9105TIP3    H148730   0.235   4.276  12.496  1.2174 -1.0896  0.7784
 9105TIP3    H248731   0.228   4.199  12.366 -1.1748 -0.4294  0.4716
 9106TIP3   OH248732   2.662   2.293   4.849  0.4773 -0.0643  0.2551
 9106TIP3    H148733   2.633   2.280   4.759  1.8140 -0.6611 -0.1078
 9106TIP3    H248734   2.733   2.357   4.843 -0.1435  0.7168  1.0180
 9107TIP3   OH248735   2.541   6.733   1.045  0.5237  0.1226  0.7860
 9107TIP3    H148736   2.601   6.701   1.113 -0.4557 -0.9141  1.1723
 9107TIP3    H248737   2.588   6.717   0.963  0.7660 -0.7135  1.0789
 9108TIP3   OH248738   0.015   1.059  12.807 -0.1564  0.2809  0.5178
 9108TIP3    H148739   0.097   1.055  12.857 -0.4160  1.1314  1.0192
 9108TIP3    H248740  -0.051   1.084  12.871 -0.5018  1.3643 -0.2320
 9109TIP3   OH248741   3.006   5.815  13.616 -0.0103 -0.6592 -0.0641
 9109TIP3    H148742   3.021   5.836  13.524  2.6514  0.5084  0.5426
 9109TIP3    H248743   3.030   5.895  13.663  1.4996 -2.1181  1.8049
 9110TIP3   OH248744   4.066   1.901  14.860 -0.6687 -0.0116  0.3555
 9110TIP3    H148745   4.077   1.912  14.955 -2.2307  0.7457  0.4728
 9110TIP3    H248746   4.009   1.824  14.852 -0.8719  0.1707  0.0471
 9111TIP3   OH248747   5.718   0.101  16.110 -0.6412  0.1816  0.6511
 9111TIP3    H148748   5.723   0.045  16.032  2.5315  0.7245  0.3141
 9111TIP3    H248749   5.680   0.183  16.078 -0.8169 -0.1303  0.0365
 9112TIP3   OH248750   4.977   4.220  15.412  0.1613 -0.0164  0.3225
 9112TIP3    H148751   5.046   4.189  15.353  0.0606 -1.3125  0.8440
 9112TIP3    H248752   5.018   4.291  15.462  0.0419  1.5778 -1.7166
 9113TIP3   OH248753   2.836   3.331   2.280  0.4122 -0.0203 -0.1915
 9113TIP3    H148754   2.748   3.350   2.249  0.5464  1.1600  0.0675
 9113TIP3    H248755   2.845   3.236   2.274 -0.8311 -0.1407 -0.3236
 9114TIP3   OH248756   3.074   3.896  12.628 -0.1871 -0.6759  0.0599
 9114TIP3    H148757   2.993   3.913  12.578 -1.0048 -0.9946  1.2301
 9114TIP3    H248758   3.141   3.883  12.561 -1.2277 -1.0002 -0.9619
 9115TIP3   OH248759   6.757   1.363  11.832 -0.1394 -0.1922 -0.2719
 9115TIP3    H148760   6.829   1.344  11.771  1.8349  2.5341  1.0190
 9115TIP3    H248761   6.715   1.441  11.795 -1.4875 -0.8686 -0.1994
 9116TIP3   OH248762   0.666   4.699   5.045 -0.0233  0.1234 -0.0829
 9116TIP3    H148763   0.578   4.675   5.073 -0.2979 -0.8293 -1.6354
 9116TIP3    H248764   0.725   4.646   5.099 -0.5528 -2.1271 -1.5705
 9117TIP3   OH248765   0.270   0.018   3.453  0.3032  0.1211 -0.3994
 9117TIP3    H148766   0.272   0.074   3.375  1.3628  0.7171  0.0284
 9117TIP3    H248767   0.268  -0.071   3.419 -1.2738  0.3891 -1.0958
 9118TIP3   OH248768   5.014   1.324  15.184 -0.0328  0.1746  0.6131
 9118TIP3    H148769   5.002   1.230  15.171 -0.6433  0.3916 -0.5046
 9118TIP3    H248770   5.107   1.335  15.202  0.2195 -0.5342 -0.2487
 9119TIP3   OH248771   3.165   2.813  13.135 -0.0468  0.0531 -0.3907
 9119TIP3    H148772   3.186   2.729  13.094  0.2082 -0.2714  0.3949
 9119TIP3    H248773   3.249   2.858  13.143 -0.1098  0.1614 -0.3254
 9120TIP3   OH248774   3.440   4.358  13.413  0.5563 -0.0545  0.1365
 9120TIP3    H148775   3.382   4.286  13.392 -0.9289  0.2563  2.7027
 9120TIP3    H248776   3.513   4.318  13.461 -0.9995  0.1621  2.8809
 9121TIP3   OH248777   0.284   4.012   3.874  0.5284 -0.2104  0.0790
 9121TIP3    H148778   0.331   3.945   3.825 -0.3424  0.5167 -1.8632
 9121TIP3    H248779   0.225   3.963   3.932  0.3159 -1.1279 -0.8882
 9122TIP3   OH248780   4.460   0.569  17.314 -0.2014  0.1232 -0.0890
 9122TIP3    H148781   4.515   0.603  17.243 -1.8869  2.8306 -0.2484
 9122TIP3    H248782   4.382   0.536  17.270 -0.8075  0.8555  0.4167
 9123TIP3   OH248783   1.848   3.851  17.227 -0.5172 -0.3929 -0.6231
 9123TIP3    H148784   1.843   3.869  17.321  0.7103 -0.2440 -0.5659
 9123TIP3    H248785   1.757   3.841  17.199 -0.8608 -1.4702  0.7766
 9124TIP3   OH248786   2.022   1.491  13.855 -0.2330 -0.7765  0.2006
 9124TIP3    H148787   2.003   1.519  13.944  1.1945 -1.3227  0.7086
 9124TIP3    H248788   1.977   1.554  13.799 -0.5127  0.0160  1.2955
 9125TIP3   OH248789   3.718   6.649  15.361 -0.3310 -0.7077 -0.3760
 9125TIP3    H148790   3.656   6.709  15.320 -0.8517 -0.9164  0.0854
 9125TIP3    H248791   3.681   6.632  15.448  0.8841 -0.0780  0.2786
 9126TIP3   OH248792   2.596   4.378  14.082 -0.4192  0.3583 -0.6899
 9126TIP3    H148793   2.551   4.387  14.166  0.8511 -0.1781  0.0847
 9126TIP3    H248794   2.668   4.441  14.086  0.6664 -0.8261 -0.6344
 9127TIP3   OH248795   3.642   4.643   4.630 -0.5996 -0.6320 -0.6070
 9127TIP3    H148796   3.608   4.726   4.664 -2.4320 -0.5516 -2.4343
 9127TIP3    H248797   3.706   4.669   4.564  1.0642 -0.7664  0.8781
 9128TIP3   OH248798   3.512   5.941  13.348  0.3420  0.2032  0.3181
 9128TIP3    H148799   3.561   5.861  13.331 -1.6108 -0.7826 -0.9771
 9128TIP3    H248800   3.549   6.005  13.287 -0.3774 -0.7189 -1.1426
 9129TIP3   OH248801   0.492   1.237   2.490 -0.6706  0.4563 -0.0712
 9129TIP3    H148802   0.454   1.299   2.553  1.1453  1.5091  0.0371
 9129TIP3    H248803   0.489   1.153   2.535 -1.8005  0.7017  0.3627
 9130TIP3   OH248804   1.741   0.237   4.615  0.7135  0.5681 -0.3077
 9130TIP3    H148805   1.645   0.246   4.615  0.4183 -1.8849 -0.1405
 9130TIP3    H248806   1.769   0.287   4.692 -0.8129 -1.0964  1.4703
 9131TIP3   OH248807   0.665   2.625  16.264  0.1562  0.2816 -0.0795
 9131TIP3    H148808   0.698   2.620  16.174 -0.9695  0.1922 -0.5055
 9131TIP3    H248809   0.678   2.717  16.289  0.3900  0.3277 -0.3737
 9132TIP3   OH248810   0.927   0.447   6.028 -0.3047 -0.3664 -0.4642
 9132TIP3    H148811   0.909   0.356   6.005  1.4763 -0.5383 -1.3426
 9132TIP3    H248812   1.022   0.450   6.043 -0.5285  1.0413  1.0516
 9133TIP3   OH248813   2.089   2.068  14.487  0.0800 -0.5291 -0.1020
 9133TIP3    H148814   2.146   2.125  14.437  1.6362 -0.4461  1.6561
 9133TIP3    H248815   2.031   2.127  14.536 -0.5608 -0.5742 -0.7932
 9134TIP3   OH248816   2.859   0.677  11.849 -0.4902 -0.2220 -0.3128
 9134TIP3    H148817   2.772   0.650  11.880 -1.4413 -0.8301 -3.2194
 9134TIP3    H248818   2.841   0.742  11.781  1.5392  2.4231  1.4698
 9135TIP3   OH248819   0.991   0.391   4.592 -0.3165 -0.0963  0.3494
 9135TIP3    H148820   0.913   0.391   4.647 -0.1023 -0.2134  0.6521
 9135TIP3    H248821   1.014   0.484   4.582 -0.8248 -0.0226 -0.2136
 9136TIP3   OH248822   1.500   1.415  14.079  0.8351 -0.1192  0.2360
 9136TIP3    H148823   1.569   1.424  14.013 -0.5289  1.8804 -1.0177
 9136TIP3    H248824   1.421   1.448  14.036 -1.0812 -2.7914  1.4491
 9137TIP3   OH248825   6.399   6.655   4.727 -0.6051  0.4493  0.4788
 9137TIP3    H148826   6.355   6.740   4.732  0.2855  0.9123  0.6384
 9137TIP3    H248827   6.469   6.661   4.792 -1.1340 -0.7710  1.1910
 9138TIP3   OH248828   3.403   3.945   6.138 -0.3501 -0.5383 -0.8460
 9138TIP3    H148829   3.421   3.951   6.044  1.7127  0.0125 -0.4623
 9138TIP3    H248830   3.402   4.036   6.168  1.4166 -0.7740  0.0412
 9139TIP3   OH248831   2.433   6.122  15.595  0.0572  0.5166  0.7886
 9139TIP3    H148832   2.418   6.081  15.510  0.0017  3.4942 -0.7705
 9139TIP3    H248833   2.401   6.057  15.659  2.5840 -2.9690 -1.1722
 9140TIP3   OH248834   3.856   0.310  11.911  0.1683  0.0646 -0.1839
 9140TIP3    H148835   3.761   0.314  11.921  0.2523  0.4625  0.4754
 9140TIP3    H248836   3.884   0.401  11.912  0.7425 -0.1073  1.5289
 9141TIP3   OH248837   6.139   3.249  12.976 -0.0290 -0.1501 -0.0556
 9141TIP3    H148838   6.217   3.293  12.941 -1.1156  1.1799 -0.8848
 9141TIP3    H248839   6.172   3.195  13.048  1.5526  0.9248  0.0705
 9142TIP3   OH248840   2.839   2.855  12.049 -0.2430 -0.2182 -0.0160
 9142TIP3    H148841   2.821   2.913  11.974  1.2362 -1.6407 -1.5541
 9142TIP3    H248842   2.772   2.877  12.113 -1.8157  0.7995 -1.9149
 9143TIP3   OH248843   1.833   6.326   3.066 -0.2262 -0.2557  0.1770
 9143TIP3    H148844   1.879   6.348   3.147 -3.3416  2.0973  1.4965
 9143TIP3    H248845   1.760   6.271   3.094 -1.1245  0.2519 -1.0789
 9144TIP3   OH248846   0.856   5.988  16.629 -0.0133  0.2899 -0.7818
 9144TIP3    H148847   0.787   5.928  16.660 -0.5599  1.8655  1.2857
 9144TIP3    H248848   0.936   5.955  16.668  0.2239 -0.7236 -2.0418
 9145TIP3   OH248849   6.123   1.727   0.310  0.0859  0.6141 -0.1321
 9145TIP3    H148850   6.101   1.640   0.343  0.9509  0.1358 -0.8103
 9145TIP3    H248851   6.054   1.783   0.346 -0.5694 -0.3642  0.1872
 9146TIP3   OH248852   3.158   0.571   1.570  0.8734  0.1280 -0.5105
 9146TIP3    H148853   3.199   0.568   1.656  1.5185 -0.5595 -0.8352
 9146TIP3    H248854   3.077   0.620   1.584  0.0131 -1.5709  0.9011
 9147TIP3   OH248855   3.979   5.817  12.801  0.0889  0.5288  0.0941
 9147TIP3    H148856   3.911   5.830  12.867  0.3565  0.6223  0.3519
 9147TIP3    H248857   3.952   5.873  12.728  0.0093  0.7415  0.2853
 9148TIP3   OH248858   0.129   1.793  11.399  0.7016 -0.2973 -0.6542
 9148TIP3    H148859   0.064   1.765  11.464  2.0990 -3.1371 -0.2966
 9148TIP3    H248860   0.182   1.858  11.444  1.2649 -1.7697  0.9204
 9149TIP3   OH248861   3.777   3.576  16.219  0.0914 -0.4114 -0.3122
 9149TIP3    H148862   3.868   3.582  16.188  1.3990 -2.4266  2.7145
 9149TIP3    H248863   3.746   3.491  16.187 -0.1294 -0.4720  0.0546
 9150TIP3   OH248864   3.001   4.753  14.323 -0.1341 -0.6124  0.6428
 9150TIP3    H148865   2.990   4.841  14.359 -0.7876 -0.6860  0.6459
 9150TIP3    H248866   3.065   4.712  14.381 -0.9610 -0.6314  1.5691
 9151TIP3   OH248867   3.104   3.201  15.028 -0.0338  0.1673  0.3171
 9151TIP3    H148868   3.178   3.141  15.029  0.5698  0.8994  0.5031
 9151TIP3    H248869   3.091   3.224  15.120 -0.1195  0.4839  0.2266
 9152TIP3   OH248870   6.186   1.370   0.178 -0.3517 -0.4869 -0.5010
 9152TIP3    H148871   6.136   1.403   0.253 -0.7795  0.3352 -1.1285
 9152TIP3    H248872   6.271   1.348   0.214 -0.6542 -0.4049  0.2866
 9153TIP3   OH248873   6.241   5.480  16.901  0.2345  0.1394  0.1609
 9153TIP3    H148874   6.194   5.456  16.980  1.0641  0.1608  0.6751
 9153TIP3    H248875   6.323   5.431  16.906  0.6195  0.7153 -0.3135
 9154TIP3   OH248876   2.774   6.511   2.101 -0.3562 -0.2209 -0.3456
 9154TIP3    H148877   2.694   6.462   2.081  1.7214 -5.2179  1.6676
 9154TIP3    H248878   2.823   6.509   2.019 -0.4605 -1.4450 -0.4090
 9155TIP3   OH248879   1.200   4.592  12.350  0.4702  0.4085 -0.7080
 9155TIP3    H148880   1.130   4.601  12.414  2.1758 -0.9343  1.5289
 9155TIP3    H248881   1.160   4.545  12.277 -0.8517 -0.8451  0.7458
 9156TIP3   OH248882   5.568   2.080   1.766  0.1249  0.8659  0.5166
 9156TIP3    H148883   5.520   2.163   1.760  0.8890  1.4033  1.4823
 9156TIP3    H248884   5.571   2.061   1.860  0.2091 -0.1103  0.3232
 9157TIP3   OH248885   4.191   6.510  14.700  0.3443 -0.0993 -0.1858
 9157TIP3    H148886   4.140   6.432  14.683  0.8663 -0.7975  1.3058
 9157TIP3    H248887   4.127   6.576  14.726 -0.0251 -0.2150 -0.7799
 9158TIP3   OH248888   3.963   2.022  17.208 -0.4402  0.2632 -0.1099
 9158TIP3    H148889   4.059   2.022  17.201 -0.4094 -1.4583 -0.2927
 9158TIP3    H248890   3.944   1.957  17.275 -1.4909  0.6211 -0.0440
 9159TIP3   OH248891   5.482   4.765   5.895  0.0185  0.1901  0.2828
 9159TIP3    H148892   5.516   4.854   5.901  1.2389 -0.2063 -0.4736
 9159TIP3    H248893   5.522   4.719   5.968 -0.3116  0.1514  0.4444
 9160TIP3   OH248894   2.776   3.297  16.503  0.0230 -0.2705 -0.5099
 9160TIP3    H148895   2.775   3.345  16.585 -0.3831  1.1225 -1.3119
 9160TIP3    H248896   2.685   3.273  16.488 -0.3487  1.7428 -1.8121
 9161TIP3   OH248897   4.550   0.381  16.073  0.1482 -0.4665 -0.1148
 9161TIP3    H148898   4.538   0.354  16.165  1.2087 -1.7372 -0.3192
 9161TIP3    H248899   4.524   0.473  16.072  0.0705 -0.4347  1.4560
 9162TIP3   OH248900   5.367   4.779  16.770  0.1710  0.1361 -0.3223
 9162TIP3    H148901   5.350   4.703  16.714  3.2549 -0.5760 -0.4505
 9162TIP3    H248902   5.285   4.792  16.817 -1.1739 -1.8793 -1.9127
 9163TIP3   OH248903   1.800   4.003   4.746 -0.4359  0.0518  0.0007
 9163TIP3    H148904   1.828   4.014   4.655  2.0484  0.1337  0.7033
 9163TIP3    H248905   1.816   3.911   4.765  1.4916  0.5322  1.0175
 9164TIP3   OH248906   2.805   3.320  12.057 -0.1209  1.0281 -0.4509
 9164TIP3    H148907   2.857   3.255  12.009 -1.3853 -0.9637  0.7463
 9164TIP3    H248908   2.834   3.311  12.148  0.8079  3.3382 -0.4449
 9165TIP3   OH248909   6.726   1.591  14.317  0.8093  0.7573  0.7279
 9165TIP3    H148910   6.798   1.559  14.263  1.1522 -2.6502  2.8713
 9165TIP3    H248911   6.656   1.609  14.255  0.9211 -3.6330 -1.0643
 9166TIP3   OH248912   1.583   6.319  13.114 -0.2362 -0.6059 -0.0750
 9166TIP3    H148913   1.662   6.270  13.091  0.5335 -0.7904  2.6131
 9166TIP3    H248914   1.613   6.410  13.120 -0.3677 -0.5880  0.3304
 9167TIP3   OH248915   3.930   4.890   5.098 -0.1310  0.1803  0.0068
 9167TIP3    H148916   3.836   4.910   5.089 -0.5122 -2.1350 -2.2854
 9167TIP3    H248917   3.936   4.838   5.178 -0.6072  1.2200  0.7418
 9168TIP3   OH248918   0.371   0.546   1.732 -0.3649  0.6550 -0.4178
 9168TIP3    H148919   0.393   0.453   1.738 -0.5945  0.6253  0.0760
 9168TIP3    H248920   0.439   0.590   1.784 -0.6853  0.6902 -0.0240
 9169TIP3   OH248921   5.590   5.054   5.368 -0.2850 -0.2250 -0.1705
 9169TIP3    H148922   5.651   5.056   5.442 -0.1078  2.4061 -0.2801
 9169TIP3    H248923   5.643   5.023   5.295  0.1678 -0.5935  0.3025
 9170TIP3   OH248924   1.496   1.455   3.950 -0.4644 -0.3326  0.1517
 9170TIP3    H148925   1.502   1.383   3.888  1.6638 -2.1575  2.2938
 9170TIP3    H248926   1.566   1.515   3.925 -0.9720  0.0348 -0.4307
 9171TIP3   OH248927   5.649   1.834   3.430 -0.2206  0.2894  0.0280
 9171TIP3    H148928   5.716   1.838   3.498 -0.9154  0.1825  0.7387
 9171TIP3    H248929   5.695   1.806   3.351  0.6600  0.7497  0.3737
 9172TIP3   OH248930   3.526   2.621   0.511  0.2041 -0.4071 -0.1403
 9172TIP3    H148931   3.608   2.614   0.462  0.3127 -0.1436  0.0028
 9172TIP3    H248932   3.531   2.549   0.575  0.8778  0.3384  0.6749
 9173TIP3   OH248933   5.441   1.654   2.601  0.0575 -0.3068  0.2817
 9173TIP3    H148934   5.477   1.729   2.649  1.0541 -0.8328  0.3764
 9173TIP3    H248935   5.388   1.693   2.532 -1.3150  0.4768  1.7144
 9174TIP3   OH248936   0.063   0.850  15.332 -0.1359 -0.8529  0.4680
 9174TIP3    H148937  -0.007   0.899  15.374  0.0535  0.2814 -0.4865
 9174TIP3    H248938   0.028   0.827  15.246 -0.4231 -2.9043  1.0941
 9175TIP3   OH248939   3.871   1.395  12.758  0.8248  0.0364  0.4871
 9175TIP3    H148940   3.956   1.377  12.798  1.2519 -3.1361 -1.4654
 9175TIP3    H248941   3.892   1.435  12.674  0.4754 -1.3752 -0.2948
 9176TIP3   OH248942   0.993   3.994   1.959 -0.4881 -0.1102 -0.2184
 9176TIP3    H148943   1.021   3.931   2.025 -0.5893  1.6579  1.6329
 9176TIP3    H248944   0.899   3.981   1.951 -0.7202  0.5446  1.0777
 9177TIP3   OH248945   2.253   3.414   4.466  0.1936  0.1824 -0.3064
 9177TIP3    H148946   2.328   3.403   4.524 -0.1645  1.4754  0.4487
 9177TIP3    H248947   2.287   3.464   4.391  0.3187 -0.1661 -0.4832
 9178TIP3   OH248948   2.034   3.255   2.668 -0.3266 -0.2973 -0.4310
 9178TIP3    H148949   2.023   3.302   2.586  1.8460 -0.0306 -0.6239
 9178TIP3    H248950   2.094   3.183   2.647 -1.4941 -1.5977  0.4517
 9179TIP3   OH248951   0.584   1.543  16.900  0.1855  0.0950  0.4981
 9179TIP3    H148952   0.649   1.486  16.859  1.1854  1.0572  0.6779
 9179TIP3    H248953   0.540   1.586  16.826 -0.5377 -0.8463  0.3662
 9180TIP3   OH248954   2.229   3.330  14.590  0.6777  0.2210 -0.2988
 9180TIP3    H148955   2.209   3.248  14.545 -0.7698  1.1197 -1.3611
 9180TIP3    H248956   2.147   3.379  14.589  1.4143  1.5331  0.6564
 9181TIP3   OH248957   2.352   4.338  11.238 -0.2743  0.9012  0.0290
 9181TIP3    H148958   2.360   4.285  11.159 -2.1674 -0.2148  0.5125
 9181TIP3    H248959   2.427   4.312  11.292 -0.9286 -1.0666  0.0764
 9182TIP3   OH248960   4.169   1.895   0.097 -0.0158 -0.0985  0.1903
 9182TIP3    H148961   4.170   1.975   0.151 -0.9528  1.6041 -2.1671
 9182TIP3    H248962   4.091   1.848   0.125 -0.5098  0.7779  0.3231
 9183TIP3   OH248963   5.919   5.996  13.238  0.0678 -0.1741  0.5036
 9183TIP3    H148964   5.985   5.981  13.170 -0.0694  0.9100  0.1210
 9183TIP3    H248965   5.836   5.975  13.196 -0.4775  4.0460 -1.0036
 9184TIP3   OH248966   2.635   2.837  13.947 -0.0008 -0.3799  0.5823
 9184TIP3    H148967   2.677   2.753  13.927  0.9206  0.1801  0.0743
 9184TIP3    H248968   2.601   2.826  14.036 -0.8049 -1.6247  0.1463
 9185TIP3   OH248969   3.153   0.208   4.717  0.0815  0.1250  0.2519
 9185TIP3    H148970   3.172   0.121   4.680  3.1187  1.0880 -0.7873
 9185TIP3    H248971   3.084   0.243   4.660  0.5758 -0.6795 -0.8898
 9186TIP3   OH248972   4.879   3.156  12.187  0.5309 -0.0800 -0.2830
 9186TIP3    H148973   4.805   3.114  12.231 -0.4201  0.9910 -0.7793
 9186TIP3    H248974   4.901   3.096  12.115  0.7333 -0.8274  0.3898
 9187TIP3   OH248975   3.269   4.827  17.159 -0.1064  0.2118  0.2450
 9187TIP3    H148976   3.228   4.895  17.212 -0.4199  0.1427  0.0939
 9187TIP3    H248977   3.356   4.816  17.197  0.1283  1.0417 -0.0309
 9188TIP3   OH248978   2.229   2.820   1.095  0.2913 -0.1922 -0.0022
 9188TIP3    H148979   2.142   2.802   1.060  0.7039 -3.1031  0.2622
 9188TIP3    H248980   2.279   2.854   1.021 -0.1445 -1.8020 -1.0750
 9189TIP3   OH248981   1.713   4.674   4.788  0.5222 -0.0372  0.0788
 9189TIP3    H148982   1.670   4.597   4.827 -2.1943  0.4439 -1.7451
 9189TIP3    H248983   1.789   4.637   4.742 -0.0323 -1.4698  0.2437
 9190TIP3   OH248984   6.029   1.284   1.388 -0.7721  0.4655 -0.4685
 9190TIP3    H148985   5.985   1.223   1.447  0.6206 -0.0393  0.0910
 9190TIP3    H248986   5.991   1.266   1.302 -1.2154 -0.3958 -0.1069
 9191TIP3   OH248987   6.400   4.133  13.277 -0.7895  0.0807 -0.2362
 9191TIP3    H148988   6.472   4.076  13.248  0.5518  1.3605  0.4083
 9191TIP3    H248989   6.340   4.074  13.323  0.9760 -0.7453  1.1735
 9192TIP3   OH248990   5.423   6.750   2.213 -0.3878  0.4627 -0.0285
 9192TIP3    H148991   5.415   6.702   2.296 -1.1414 -1.3013 -1.0807
 9192TIP3    H248992   5.440   6.841   2.240 -2.6297  0.3466  2.0860
 9193TIP3   OH248993   5.376   5.807   3.091 -0.8596 -0.1939 -0.4492
 9193TIP3    H148994   5.447   5.747   3.068 -0.5423  0.3164 -0.8362
 9193TIP3    H248995   5.398   5.889   3.046 -1.5116  0.0805 -0.2912
 9194TIP3   OH248996   3.781   2.655   5.532 -0.1504  0.0935 -0.5686
 9194TIP3    H148997   3.690   2.683   5.522 -0.2341 -0.4826 -1.4953
 9194TIP3    H248998   3.782   2.563   5.506  0.9106  0.4176 -1.8553
 9195TIP3   OH248999   6.536   4.170   1.632  0.2054  0.4427  0.0399
 9195TIP3    H149000   6.457   4.151   1.682  0.7230 -0.0212  0.6999
 9195TIP3    H249001   6.528   4.115   1.553 -0.4898  0.9870 -0.2839
 9196TIP3   OH249002   4.241   0.217   3.922  1.3216 -0.0942  0.4200
 9196TIP3    H149003   4.209   0.180   4.005  1.5580 -1.1506  0.0478
 9196TIP3    H249004   4.194   0.300   3.914 -0.7167 -1.2096  0.2996
 9197TIP3   OH249005   2.918   5.504   4.782  0.6511  0.5225 -0.2356
 9197TIP3    H149006   2.857   5.453   4.730  1.2581 -0.2356 -0.2177
 9197TIP3    H249007   2.864   5.546   4.850  0.3231 -1.1724  0.5900
 9198TIP3   OH249008   3.106   2.053   5.253 -0.5342 -0.6577 -0.0211
 9198TIP3    H149009   3.068   2.140   5.266 -0.0441 -0.5248  0.5341
 9198TIP3    H249010   3.155   2.060   5.171  0.5881 -0.0359  0.6941
 9199TIP3   OH249011   5.539   4.080   0.044 -0.5531 -0.5365 -0.4154
 9199TIP3    H149012   5.630   4.102   0.022 -0.5446  0.1034  0.2226
 9199TIP3    H249013   5.529   3.989   0.015  0.3943 -0.7244 -0.1973
 9200TIP3   OH249014   1.234   4.427   2.797 -0.1742 -0.6294  0.5927
 9200TIP3    H149015   1.166   4.391   2.854 -0.6651 -1.6780 -0.6266
 9200TIP3    H249016   1.275   4.351   2.756  0.8397  0.0618  0.2769
 9201TIP3   OH249017   2.039   3.226   3.070 -0.2980  0.0541  0.4829
 9201TIP3    H149018   1.992   3.146   3.045 -0.5650  0.4983 -0.4750
 9201TIP3    H249019   2.014   3.291   3.004 -1.0385  1.2988  1.9369
 9202TIP3   OH249020   3.346   4.087  12.286 -0.3945 -0.3051  0.4181
 9202TIP3    H149021   3.324   4.145  12.359 -0.2713  0.4201 -0.1110
 9202TIP3    H249022   3.441   4.077  12.291 -0.3282  0.1369  0.0721
 9203TIP3   OH249023   1.449   5.554  12.726 -0.2278 -0.0280 -0.3461
 9203TIP3    H149024   1.543   5.570  12.713 -0.1429  0.2072  0.5278
 9203TIP3    H249025   1.445   5.468  12.768 -0.3880  0.0846 -0.1307
 9204TIP3   OH249026   1.998   4.348  15.185 -0.9138  0.3823 -0.3154
 9204TIP3    H149027   1.990   4.270  15.241 -1.1082  0.2375 -0.5411
 9204TIP3    H249028   2.088   4.346  15.154 -0.5823  0.8808  0.5951
 9205TIP3   OH249029   3.355   3.310  16.153  0.6700 -0.1911  0.4380
 9205TIP3    H149030   3.429   3.358  16.116  0.7302 -0.2415  0.4930
 9205TIP3    H249031   3.373   3.218  16.131 -0.8086  0.0310 -2.1099
 9206TIP3   OH249032   1.537   1.216  11.220 -0.1552  0.1313 -0.2436
 9206TIP3    H149033   1.614   1.273  11.218 -0.8909  1.2337  1.2052
 9206TIP3    H249034   1.501   1.227  11.308 -0.5253 -2.3461  0.0053
 9207TIP3   OH249035   0.029   4.935  11.924  0.3848 -0.1089 -0.1442
 9207TIP3    H149036  -0.028   5.003  11.959  0.3942 -0.4001  0.4391
 9207TIP3    H249037  -0.026   4.857  11.920  0.2558  0.0223 -1.1961
 9208TIP3   OH249038   4.868   3.115   1.693  0.3183  0.2335 -1.0430
 9208TIP3    H149039   4.786   3.142   1.733 -0.8876 -2.3344 -1.6041
 9208TIP3    H249040   4.858   3.134   1.600 -0.3915 -1.5496 -1.3831
 9209TIP3   OH249041   6.754   3.139   0.037  0.4164 -0.5525  0.0041
 9209TIP3    H149042   6.709   3.087   0.104  0.0732 -1.4933 -0.9242
 9209TIP3    H249043   6.821   3.187   0.085  0.3121 -1.3654  0.9985
 9210TIP3   OH249044   0.695   2.293  13.321  0.0411  0.2992 -0.3789
 9210TIP3    H149045   0.673   2.385  13.307  0.6324  0.8437  1.8303
 9210TIP3    H249046   0.747   2.293  13.401  1.6436 -1.7875 -1.3230
 9211TIP3   OH249047   6.660   2.593  14.565  0.7087 -0.2075 -0.1051
 9211TIP3    H149048   6.686   2.584  14.657 -0.1217 -0.0759  0.1423
 9211TIP3    H249049   6.571   2.558  14.561  1.2993 -1.7114 -1.1715
 9212TIP3   OH249050   1.412   3.429  15.655  0.0638 -0.2012 -0.0858
 9212TIP3    H149051   1.415   3.480  15.574  0.0061  1.4906  0.9369
 9212TIP3    H249052   1.331   3.457  15.698  0.5446 -0.4016  0.9886
 9213TIP3   OH249053   1.685   2.744   2.730  0.1317  0.0820 -0.1590
 9213TIP3    H149054   1.757   2.715   2.786 -0.3749 -0.8827  0.0122
 9213TIP3    H249055   1.677   2.838   2.749  1.2100  0.1632 -0.0431
 9214TIP3   OH249056   0.805   2.275   2.737 -0.1686  0.1444 -0.0294
 9214TIP3    H149057   0.849   2.216   2.676  0.9871  0.1134  0.7891
 9214TIP3    H249058   0.775   2.348   2.683  0.8721  0.1429 -0.6371
 9215TIP3   OH249059   2.906   6.677  11.277 -0.2512 -0.2872 -0.0184
 9215TIP3    H149060   2.926   6.583  11.283  0.0704 -0.1941  0.4618
 9215TIP3    H249061   2.943   6.714  11.358  0.7767  0.4592 -0.8086
 9216TIP3   OH249062   6.591   1.213   0.919  0.2712  0.0672 -0.3359
 9216TIP3    H149063   6.527   1.264   0.869  0.4018  1.4268  0.8211
 9216TIP3    H249064   6.637   1.278   0.973 -0.6376 -1.3733  2.3969
 9217TIP3   OH249065   2.891   4.289   5.242  0.4743  0.3165 -0.4033
 9217TIP3    H149066   2.849   4.206   5.264 -0.4332  0.8665 -0.0185
 9217TIP3    H249067   2.945   4.310   5.319 -0.3053  0.7151  0.0457
 9218TIP3   OH249068   0.472   0.961  12.772 -0.2595 -0.0414 -0.2773
 9218TIP3    H149069   0.390   1.002  12.744 -0.1324 -0.7724 -1.8173
 9218TIP3    H249070   0.444   0.878  12.811 -0.3223  0.2296  0.2626
 9219TIP3   OH249071   0.944   4.189  10.810 -0.4345  0.6165  0.2539
 9219TIP3    H149072   0.965   4.123  10.744 -1.4394  0.0964  0.4226
 9219TIP3    H249073   1.026   4.205  10.855 -0.0598 -0.1579 -0.1196
 9220TIP3   OH249074   4.706   0.147  14.773 -0.0510  0.4741 -0.0043
 9220TIP3    H149075   4.658   0.212  14.824 -1.8138 -0.4093 -0.4804
 9220TIP3    H249076   4.650   0.069  14.774  2.4415 -1.4616  1.4554
 9221TIP3   OH249077   5.517   1.254  16.252  0.3452 -0.1753  0.4477
 9221TIP3    H149078   5.588   1.203  16.290 -0.9946 -2.5943 -0.0710
 9221TIP3    H249079   5.450   1.190  16.230 -1.7331  1.9010  0.2498
 9222TIP3   OH249080   0.033   0.574   3.176 -0.3907  0.0718  0.8919
 9222TIP3    H149081   0.009   0.543   3.089  3.2909 -0.9182  0.0376
 9222TIP3    H249082   0.078   0.499   3.216  0.8995  1.5234  2.2890
 9223TIP3   OH249083   4.959   2.670  16.472 -0.4297  0.3560 -0.0187
 9223TIP3    H149084   5.043   2.682  16.517  0.2168  0.8285 -1.3179
 9223TIP3    H249085   4.982   2.657  16.381 -1.8062  1.2710 -0.5297
 9224TIP3   OH249086   1.672   4.494   2.657  0.7477 -0.3515  0.0766
 9224TIP3    H149087   1.726   4.451   2.591  0.2671  0.7774 -1.1055
 9224TIP3    H249088   1.725   4.568   2.687  0.6658 -0.4257  0.4145
 9225TIP3   OH249089   2.350   4.708   1.660 -0.5465 -0.2190 -0.1532
 9225TIP3    H149090   2.274   4.712   1.719 -0.0951 -0.3652  0.4574
 9225TIP3    H249091   2.411   4.773   1.697  0.7264 -1.9714  0.9845
 9226TIP3   OH249092   5.720   2.510   1.503 -0.0137  0.0496  0.0773
 9226TIP3    H149093   5.719   2.431   1.557  1.5147 -0.5651 -0.7008
 9226TIP3    H249094   5.753   2.578   1.560 -0.6249 -0.0490  0.5524
 9227TIP3   OH249095   4.231   5.237   5.220  0.4744 -0.1921  0.2163
 9227TIP3    H149096   4.271   5.307   5.168 -0.9819 -0.0219 -0.7341
 9227TIP3    H249097   4.197   5.176   5.155 -1.5915  0.1377  0.9260
 9228TIP3   OH249098   4.987   6.254   2.192  0.4684  0.3999 -0.1906
 9228TIP3    H149099   4.942   6.186   2.142 -0.4336  0.8960 -0.0602
 9228TIP3    H249100   4.991   6.220   2.281  0.1242  0.4715 -0.1497
 9229TIP3   OH249101   3.125   1.160   1.190  0.5893 -0.4046  0.2494
 9229TIP3    H149102   3.102   1.246   1.224  0.6631  0.0012 -0.7251
 9229TIP3    H249103   3.210   1.141   1.230  0.6509  0.0457  0.3332
 9230TIP3   OH249104   4.607   0.165  16.969 -0.4397 -0.8879  0.0826
 9230TIP3    H149105   4.645   0.239  16.923 -0.7382 -0.5117  0.4336
 9230TIP3    H249106   4.625   0.183  17.062 -1.4261 -0.7238  0.2543
 9231TIP3   OH249107   6.317   6.598   5.713 -0.1725  0.4715 -0.2542
 9231TIP3    H149108   6.373   6.525   5.737  1.2470  1.8717  0.9129
 9231TIP3    H249109   6.293   6.581   5.622  2.0621 -0.2828 -0.7704
 9232TIP3   OH249110   2.570   5.557   1.551  0.0260 -0.5725 -0.1305
 9232TIP3    H149111   2.655   5.583   1.587 -0.2653 -1.8708  1.6706
 9232TIP3    H249112   2.520   5.527   1.628 -1.6590 -0.8810 -1.2932
 9233TIP3   OH249113   4.152   0.511   0.552 -0.2343 -0.0810  0.3607
 9233TIP3    H149114   4.147   0.547   0.641  0.2930  0.5797  0.1288
 9233TIP3    H249115   4.105   0.575   0.498 -0.1740 -0.2596  0.0974
 9234TIP3   OH249116   2.964   5.010  12.121 -0.7382  0.5381 -0.0025
 9234TIP3    H149117   3.033   5.045  12.178 -0.0521 -0.8287  0.0303
 9234TIP3    H249118   2.987   5.043  12.034 -0.0462  0.0934  0.0092
 9235TIP3   OH249119   3.060   0.871  14.891 -0.2545 -0.2056  0.5511
 9235TIP3    H149120   3.115   0.866  14.812 -0.0740  0.7918  0.6028
 9235TIP3    H249121   2.971   0.875  14.857 -0.1585  0.6072  0.3700
 9236TIP3   OH249122   5.509   1.217  14.358  0.0043 -0.2716  0.3287
 9236TIP3    H149123   5.539   1.253  14.441 -2.7787  3.0122  0.1420
 9236TIP3    H249124   5.419   1.248  14.350 -0.2657 -1.5249 -3.3343
 9237TIP3   OH249125   3.447   6.231   1.383  0.2238 -0.2629 -0.6783
 9237TIP3    H149126   3.520   6.184   1.422 -0.0623  0.6530  1.0680
 9237TIP3    H249127   3.399   6.267   1.457 -2.5403 -1.5703 -1.6891
 9238TIP3   OH249128   3.946   3.910   5.538 -0.1917  0.2438 -0.8506
 9238TIP3    H149129   3.949   3.902   5.634 -1.1102  0.2564 -0.8081
 9238TIP3    H249130   3.857   3.883   5.515  0.0203  0.2535 -1.7036
 9239TIP3   OH249131   2.763   2.533  14.706  0.2241 -0.1499  0.1252
 9239TIP3    H149132   2.697   2.518  14.773 -0.2390 -0.2257 -0.3453
 9239TIP3    H249133   2.845   2.507  14.748  0.1357  1.0402  1.1093
 9240TIP3   OH249134   2.084   0.193  16.612  0.0205 -0.1954 -0.1421
 9240TIP3    H149135   2.165   0.195  16.560  1.6742 -0.7315  2.2283
 9240TIP3    H249136   2.080   0.104  16.647 -2.8031 -0.8494 -1.8241
 9241TIP3   OH249137   4.359   0.990   0.916 -0.6642 -0.4794 -0.1996
 9241TIP3    H149138   4.422   0.957   0.980 -0.0866 -0.2830 -0.6563
 9241TIP3    H249139   4.386   0.950   0.833  0.3775  1.4884 -0.8777
 9242TIP3   OH249140   0.991   6.033  15.224  0.3034 -0.0343  0.2445
 9242TIP3    H149141   1.033   6.091  15.288  0.2577  1.0143 -0.6515
 9242TIP3    H249142   0.914   6.082  15.194  0.7474 -0.1634 -1.1872
 9243TIP3   OH249143   4.117   1.329  13.580 -0.4545  0.4799  0.3183
 9243TIP3    H149144   4.131   1.237  13.604 -2.3881 -0.0032 -0.2128
 9243TIP3    H249145   4.074   1.367  13.657  0.6006  1.0456  0.6475
 9244TIP3   OH249146   4.958   3.461  15.753 -0.1746  0.0464 -0.5087
 9244TIP3    H149147   4.964   3.368  15.730 -0.9461  0.1412 -1.1463
 9244TIP3    H249148   5.048   3.493  15.745  0.0333 -0.5559 -0.6805
 9245TIP3   OH249149   0.895   3.728   5.510 -0.2394  1.0792  0.0705
 9245TIP3    H149150   0.901   3.781   5.431 -1.1886  0.7806 -0.2113
 9245TIP3    H249151   0.913   3.789   5.582  0.0765  1.4689 -0.3392
 9246TIP3   OH249152   0.713   5.104  16.713 -0.5010 -0.1784  0.4639
 9246TIP3    H149153   0.698   5.177  16.653  0.7294 -0.1793  0.1237
 9246TIP3    H249154   0.684   5.136  16.798 -3.0221 -0.4581 -0.2233
 9247TIP3   OH249155   0.967   1.469  17.224  0.1416  0.3748  0.3892
 9247TIP3    H149156   0.932   1.558  17.236 -0.7659 -0.0455  0.9315
 9247TIP3    H249157   0.999   1.444  17.311  0.2802  0.1206  0.2664
 9248TIP3   OH249158   4.423   6.587   5.985  0.0856  0.3754  0.5104
 9248TIP3    H149159   4.494   6.559   6.043  0.0536 -0.1526  0.3044
 9248TIP3    H249160   4.442   6.679   5.966  0.8353  0.1841  0.2965
 9249TIP3   OH249161   5.868   3.356   5.290 -0.2949 -0.2050 -0.4832
 9249TIP3    H149162   5.886   3.388   5.379  4.4861  3.0113 -2.2012
 9249TIP3    H249163   5.806   3.419   5.254 -2.0186 -1.3497  0.3929
 9250TIP3   OH249164   2.524   0.059  16.294  0.1732 -0.1038 -0.1725
 9250TIP3    H149165   2.476  -0.023  16.300 -1.2145  0.6964  0.2151
 9250TIP3    H249166   2.539   0.072  16.200 -0.9828 -0.0374 -0.3545
 9251TIP3   OH249167   5.793   1.088  12.914 -0.1263  0.2436 -0.4537
 9251TIP3    H149168   5.781   1.158  12.978 -1.0163  2.0017 -2.4613
 9251TIP3    H249169   5.768   1.126  12.830 -1.3707 -2.6939 -1.5580
 9252TIP3   OH249170   2.761   0.248  16.884  0.6797 -0.4529  0.1424
 9252TIP3    H149171   2.666   0.247  16.877  0.7677  0.6882 -3.2360
 9252TIP3    H249172   2.786   0.157  16.900 -0.9111 -1.0005 -0.3678
 9253TIP3   OH249173   6.728   0.181  13.121 -0.2219 -0.1624 -0.3474
 9253TIP3    H149174   6.762   0.251  13.065  1.5914  0.3682  1.3298
 9253TIP3    H249175   6.648   0.217  13.158  0.3909  0.8202  0.0517
 9254TIP3   OH249176   0.545   2.879   5.905  0.9135 -0.1365  0.1414
 9254TIP3    H149177   0.533   2.863   5.998  1.3103 -1.2569  0.0107
 9254TIP3    H249178   0.500   2.806   5.862  0.1532  0.7192 -0.5770
 9255TIP3   OH249179   6.443   3.174   5.289 -0.1675 -0.4576 -0.1311
 9255TIP3    H149180   6.479   3.218   5.212  0.2907 -0.9183 -0.1857
 9255TIP3    H249181   6.350   3.197   5.289 -0.6005 -1.9891 -1.9214
 9256TIP3   OH249182   3.911   3.576   3.524 -0.3213  0.1267 -0.0964
 9256TIP3    H149183   3.841   3.638   3.544  1.3075  1.7606  0.7615
 9256TIP3    H249184   3.865   3.494   3.505 -2.5808  1.6200 -1.6470
 9257TIP3   OH249185   5.707   0.880  13.323  0.1751  0.0158 -0.4646
 9257TIP3    H149186   5.667   0.814  13.380 -0.0972  1.2738  0.8848
 9257TIP3    H249187   5.656   0.877  13.243 -0.6916 -0.5067  0.0913
 9258TIP3   OH249188   0.194   4.432  11.816  0.2960  0.7742  0.0623
 9258TIP3    H149189   0.226   4.424  11.726  0.4188  1.0509  0.0818
 9258TIP3    H249190   0.152   4.347  11.834 -2.4655  1.7030 -1.3348
 9259TIP3   OH249191   6.614   0.766   5.345  0.0236  0.3966 -0.0824
 9259TIP3    H149192   6.561   0.786   5.268  2.1008  2.5171 -1.0518
 9259TIP3    H249193   6.584   0.828   5.412  0.1744  0.4767 -0.0897
 9260TIP3   OH249194   4.712   1.899   4.142 -0.3057 -0.1172 -0.1380
 9260TIP3    H149195   4.677   1.845   4.072 -1.0583 -0.3689  0.4137
 9260TIP3    H249196   4.791   1.938   4.106  0.0014 -1.2301 -0.6964
 9261TIP3   OH249197   6.726   2.547  14.842 -0.1464  0.0949 -0.0480
 9261TIP3    H149198   6.716   2.483  14.912  0.4150  0.9773  0.8757
 9261TIP3    H249199   6.812   2.586  14.858  0.1438  0.0735 -1.4493
 9262TIP3   OH249200   3.388   0.682  13.599  0.3532 -0.2940  0.1595
 9262TIP3    H149201   3.421   0.757  13.649  0.6997 -0.9923  1.0130
 9262TIP3    H249202   3.295   0.699  13.587  0.5502  0.5610 -0.1869
 9263TIP3   OH249203   0.121   1.730   5.497  0.4901 -0.0440  0.2787
 9263TIP3    H149204   0.061   1.659   5.474  1.2194  0.0412 -2.2738
 9263TIP3    H249205   0.088   1.806   5.449  2.2253  0.1599 -0.6723
 9264TIP3   OH249206   5.373   4.371   3.802  0.4700  0.4286  0.5414
 9264TIP3    H149207   5.357   4.390   3.894 -0.8332  0.2332  0.3758
 9264TIP3    H249208   5.441   4.303   3.802 -0.6552 -0.7304  1.4260
 9265TIP3   OH249209   2.351   4.512  14.753 -0.3918 -0.3307 -0.0802
 9265TIP3    H149210   2.273   4.516  14.809  0.4318  1.2085  1.0244
 9265TIP3    H249211   2.348   4.424  14.714 -1.8392 -0.8672  1.1432
 9266TIP3   OH249212   2.966   0.451   0.529  0.3936 -0.2316 -0.3788
 9266TIP3    H149213   2.895   0.451   0.593  0.8249  0.2274  0.1085
 9266TIP3    H249214   3.014   0.371   0.546  0.2912 -0.2913 -0.3704
 9267TIP3   OH249215   0.168   3.843   2.077 -0.0641 -0.3122 -0.0191
 9267TIP3    H149216   0.190   3.750   2.078  0.0936 -0.3036  1.7434
 9267TIP3    H249217   0.193   3.874   2.164  1.4082  1.7638 -1.0808
 9268TIP3   OH249218   2.797   2.439  11.567 -0.0912 -0.2079  0.4571
 9268TIP3    H149219   2.808   2.408  11.477  1.3920  1.1759  0.1235
 9268TIP3    H249220   2.811   2.533  11.562  0.8944 -0.2157  2.2719
 9269TIP3   OH249221   3.622   0.894  15.493 -0.0710  0.4979  0.4297
 9269TIP3    H149222   3.660   0.813  15.525 -1.9519 -0.7233 -0.2643
 9269TIP3    H249223   3.679   0.921  15.421  1.1054  0.3355  1.2830
 9270TIP3   OH249224   5.789   6.340  15.454  0.0951 -0.2992  0.0029
 9270TIP3    H149225   5.800   6.432  15.428 -1.0948 -0.6846 -2.0874
 9270TIP3    H249226   5.855   6.327  15.522  0.3111  2.0913  0.3669
 9271TIP3   OH249227   5.331   2.836  16.188  0.5315  0.2754 -0.0563
 9271TIP3    H149228   5.293   2.767  16.243 -0.4638  0.1305 -0.9035
 9271TIP3    H249229   5.414   2.857  16.231  0.4847 -0.8877  0.6619
 9272TIP3   OH249230   2.822   6.447  16.937 -0.0800 -0.6540 -0.4195
 9272TIP3    H149231   2.741   6.400  16.919 -0.1394 -0.0186 -2.0195
 9272TIP3    H249232   2.888   6.379  16.945 -1.0203 -1.3242  2.9083
 9273TIP3   OH249233   1.406   0.250   3.120  0.6644 -0.0146  0.0348
 9273TIP3    H149234   1.336   0.212   3.067 -0.3932  1.6224  0.1961
 9273TIP3    H249235   1.441   0.321   3.066  1.2697  0.0770  0.5317
 9274TIP3   OH249236   6.774   5.590  17.214  0.1489 -0.4393  0.0711
 9274TIP3    H149237   6.764   5.678  17.177  1.2905  0.0413  0.8531
 9274TIP3    H249238   6.685   5.566  17.242 -0.2672  0.2354 -0.6421
 9275TIP3   OH249239   0.565   2.336   3.702 -0.2127  0.3683 -0.5297
 9275TIP3    H149240   0.507   2.336   3.778 -2.4905  0.8096 -2.1597
 9275TIP3    H249241   0.642   2.386   3.731 -1.7040  1.9320  1.0089
 9276TIP3   OH249242   5.047   5.496   4.820 -0.0102 -0.1566 -0.2160
 9276TIP3    H149243   5.140   5.474   4.826  0.4085  1.0894 -1.3644
 9276TIP3    H249244   5.006   5.449   4.891  1.4939 -0.8345  0.2439
 9277TIP3   OH249245   0.822   5.397   5.687 -0.9315  0.4148  0.1057
 9277TIP3    H149246   0.826   5.328   5.754 -0.7714 -1.0729 -1.3781
 9277TIP3    H249247   0.870   5.470   5.726  0.7048 -1.0266  0.9495
 9278TIP3   OH249248   3.005   6.241   4.416  0.0910 -0.4071 -0.0153
 9278TIP3    H149249   2.916   6.227   4.385  0.0517  0.9474 -0.5801
 9278TIP3    H249250   2.999   6.231   4.511 -0.7299 -0.0616 -0.0223
 9279TIP3   OH249251   3.970   4.542   2.174  0.2662  0.1456 -0.4680
 9279TIP3    H149252   4.052   4.587   2.195 -0.0041  0.1802  0.5673
 9279TIP3    H249253   3.932   4.594   2.102  0.0230  1.5231  0.6076
 9280TIP3   OH249254   5.904   3.454  11.590  0.7373 -0.3262  0.4584
 9280TIP3    H149255   5.872   3.367  11.613 -0.6272  0.1445  0.3984
 9280TIP3    H249256   5.862   3.474  11.507  0.1543  0.8249  1.0013
 9281TIP3   OH249257   2.783   0.892  14.815 -0.1866  0.4940  0.1473
 9281TIP3    H149258   2.800   0.826  14.747 -1.2052  1.4946 -1.1155
 9281TIP3    H249259   2.752   0.841  14.890 -1.9150 -0.4376 -1.1303
 9282TIP3   OH249260   0.234   5.776   2.433  0.0490 -0.3821 -0.0465
 9282TIP3    H149261   0.271   5.689   2.447 -0.5651 -0.8796 -1.3714
 9282TIP3    H249262   0.175   5.789   2.507 -0.0955 -1.2299 -0.0019
 9283TIP3   OH249263   2.041   3.606   5.968 -0.1427  0.3482  0.1439
 9283TIP3    H149264   2.017   3.578   6.056 -1.2419  1.3040  0.1754
 9283TIP3    H249265   2.119   3.660   5.980 -0.3049  0.4980  0.5365
 9284TIP3   OH249266   3.644   1.233  16.992  0.3097 -0.4514  0.1686
 9284TIP3    H149267   3.696   1.307  16.962  0.5563 -0.7206 -0.0814
 9284TIP3    H249268   3.684   1.208  17.076  0.2452 -0.3182  0.2386
 9285TIP3   OH249269   0.584   5.693  14.898  0.2850  0.5815 -1.0239
 9285TIP3    H149270   0.501   5.663  14.933  0.6931  0.7282  0.1121
 9285TIP3    H249271   0.603   5.633  14.826 -0.1913 -0.2260 -0.4885
 9286TIP3   OH249272   3.931   2.376   5.657  0.2521  0.1815  0.4907
 9286TIP3    H149273   3.858   2.329   5.617  1.1009  0.1166 -1.0536
 9286TIP3    H249274   4.001   2.310   5.663  1.0099  0.8636 -0.4495
 9287TIP3   OH249275   5.718   3.875   5.580 -0.2581  0.1857 -0.0247
 9287TIP3    H149276   5.722   3.840   5.669 -2.3119  0.4828  0.2458
 9287TIP3    H249277   5.703   3.799   5.525  0.1210  0.0940  0.0032
 9288TIP3   OH249278   2.865   4.410   3.490  0.1150  0.3779 -0.7065
 9288TIP3    H149279   2.865   4.323   3.450 -1.3801 -0.4479  0.9522
 9288TIP3    H249280   2.858   4.394   3.584 -0.0144  2.2954 -0.3365
 9289TIP3   OH249281   0.556   6.033   4.853  0.0225 -0.1972  0.0368
 9289TIP3    H149282   0.639   6.012   4.895  0.2342  0.6349  0.0476
 9289TIP3    H249283   0.529   6.116   4.892  1.8561  2.4143 -3.6941
 9290TIP3   OH249284   2.934   5.145   4.689  0.0615 -0.1349  0.2136
 9290TIP3    H149285   3.002   5.169   4.627  0.4499  2.3979  1.5021
 9290TIP3    H249286   2.980   5.127   4.771 -0.6610 -0.2687  0.6058
 9291TIP3   OH249287   3.836   3.087   4.874 -0.3674  0.1426  0.3590
 9291TIP3    H149288   3.864   2.998   4.899  0.7047  0.0720 -0.9609
 9291TIP3    H249289   3.753   3.100   4.920 -0.7022 -1.6622  0.3491
 9292TIP3   OH249290   2.470   2.208  11.875  0.3779 -0.2913  0.4804
 9292TIP3    H149291   2.531   2.275  11.845  0.6365 -0.5597  0.4048
 9292TIP3    H249292   2.510   2.126  11.850 -0.2891 -0.4555 -0.0950
 9293TIP3   OH249293   4.853   5.105  14.757  0.2965 -0.0727 -0.5650
 9293TIP3    H149294   4.802   5.143  14.829  0.5670 -0.9084  0.0795
 9293TIP3    H249295   4.881   5.180  14.705  0.7693  0.6137  0.6445
 9294TIP3   OH249296   1.548   0.443  15.217  0.5035 -0.3736  0.6820
 9294TIP3    H149297   1.560   0.493  15.136  0.9211  2.3504  2.2912
 9294TIP3    H249298   1.632   0.398  15.230  0.4027 -0.9024 -0.4122
 9295TIP3   OH249299   3.697   6.668  12.875  0.2111  0.3231 -0.0672
 9295TIP3    H149300   3.655   6.607  12.815 -0.9214  1.7571 -0.7783
 9295TIP3    H249301   3.749   6.612  12.933  1.0821 -1.1523 -2.1273
 9296TIP3   OH249302   3.228   0.880  16.918 -0.4492  0.1269 -0.0890
 9296TIP3    H149303   3.201   0.821  16.988  1.0485  1.3944  1.6352
 9296TIP3    H249304   3.323   0.876  16.917 -0.3040  2.2659 -0.0893
 9297TIP3   OH249305   3.201   4.650  16.576 -0.4581 -0.4326 -0.0491
 9297TIP3    H149306   3.160   4.644  16.662  0.1509  0.2182  0.2998
 9297TIP3    H249307   3.275   4.709  16.589  0.1035 -0.9341 -0.8423
 9298TIP3   OH249308   6.168   5.975  12.463 -0.8344 -0.0947 -0.2293
 9298TIP3    H149309   6.126   6.061  12.462 -1.0353 -0.1410  1.4877
 9298TIP3    H249310   6.252   5.989  12.419  0.4477  1.7530  2.4993
 9299TIP3   OH249311   3.145   6.485   5.175  0.2508  0.1798 -0.6562
 9299TIP3    H149312   3.119   6.555   5.114 -2.9705 -1.5236 -1.4783
 9299TIP3    H249313   3.157   6.530   5.259 -1.5783  1.7736 -1.1685
 9300TIP3   OH249314   5.812   3.365  13.058  0.1013 -0.3373  0.4471
 9300TIP3    H149315   5.767   3.418  12.992 -0.4943 -1.4261 -0.0503
 9300TIP3    H249316   5.853   3.428  13.116 -0.2530  0.6582 -0.3645
 9301TIP3   OH249317   2.480   1.225   0.547 -0.0372 -0.4597 -0.2038
 9301TIP3    H149318   2.562   1.258   0.511 -0.7203  1.9655  0.2675
 9301TIP3    H249319   2.418   1.229   0.474  0.2580 -2.5082 -0.6236
 9302TIP3   OH249320   6.393   6.770   5.406  0.1162 -0.7215 -0.3976
 9302TIP3    H149321   6.339   6.839   5.367  2.3394  0.5800 -1.3651
 9302TIP3    H249322   6.428   6.810   5.487  2.1670 -0.2554 -1.4348
 9303TIP3   OH249323   0.874   6.663  17.057 -0.5167  0.2607  0.0755
 9303TIP3    H149324   0.892   6.704  16.973  1.7182  0.8199  0.7668
 9303TIP3    H249325   0.959   6.635  17.090 -1.5037 -1.3613  1.4728
 9304TIP3   OH249326   5.415   1.120   3.628 -0.1137  0.3709  0.5027
 9304TIP3    H149327   5.479   1.188   3.608 -1.0504  0.6510 -1.8306
 9304TIP3    H249328   5.415   1.063   3.551  0.2784 -2.0602  2.1597
 9305TIP3   OH249329   2.182   4.173  12.886 -0.0508 -0.1219 -0.0310
 9305TIP3    H149330   2.260   4.225  12.868 -0.7900  0.6925 -1.0145
 9305TIP3    H249331   2.190   4.149  12.978  1.1734  0.2487 -0.0210
 9306TIP3   OH249332   0.503   3.520   5.268  0.9410 -0.3618 -0.8044
 9306TIP3    H149333   0.596   3.538   5.278  1.2603 -2.6096  1.4430
 9306TIP3    H249334   0.486   3.526   5.174  2.7884  2.3154 -1.0411
 9307TIP3   OH249335   3.603   4.465  15.894  0.0283 -0.1262  0.0611
 9307TIP3    H149336   3.599   4.559  15.911  0.1730 -0.0647 -0.2338
 9307TIP3    H249337   3.515   4.442  15.864  0.0791 -0.0228 -0.1712
 9308TIP3   OH249338   4.337   4.271   5.304  0.0783  0.1288  1.0189
 9308TIP3    H149339   4.276   4.344   5.294 -0.1629 -0.1341  0.5254
 9308TIP3    H249340   4.352   4.240   5.215 -2.0794 -2.2571  1.3974
 9309TIP3   OH249341   4.865   3.920   4.958  1.2202 -0.6992 -0.0080
 9309TIP3    H149342   4.831   3.831   4.969  0.0821 -0.3863 -0.7736
 9309TIP3    H249343   4.786   3.974   4.950  1.8635  0.5162  1.3448
 9310TIP3   OH249344   2.318   2.513  12.380  0.3976 -0.0602  0.0683
 9310TIP3    H149345   2.405   2.545  12.401  0.4616 -0.3559  0.2499
 9310TIP3    H249346   2.293   2.561  12.301  0.5671  0.3048  0.2368
 9311TIP3   OH249347   3.654   3.483   3.560 -0.1522 -0.6972 -0.0459
 9311TIP3    H149348   3.691   3.435   3.634 -1.1887 -0.8044  0.4124
 9311TIP3    H249349   3.574   3.522   3.594 -0.3591 -0.2931 -0.9682
 9312TIP3   OH249350   2.334   1.761   2.950 -0.0052  0.0434  0.2742
 9312TIP3    H149351   2.420   1.719   2.950  0.3172  0.6578 -1.4572
 9312TIP3    H249352   2.348   1.847   2.911 -1.5353 -0.1402 -0.7860
 9313TIP3   OH249353   6.304   6.648  12.659  0.4243  0.0758  0.4822
 9313TIP3    H149354   6.209   6.656  12.648  0.4167  1.6003  1.3942
 9313TIP3    H249355   6.316   6.613  12.747  0.7094 -1.1782 -0.0355
 9314TIP3   OH249356   0.168   1.281  14.439  0.5659 -0.6949  0.3086
 9314TIP3    H149357   0.081   1.272  14.478 -0.1023 -1.4221 -1.2416
 9314TIP3    H249358   0.201   1.191  14.433  0.4453 -0.6611 -1.1728
 9315TIP3   OH249359   6.695   6.773  12.631 -0.4907  0.6045 -0.1044
 9315TIP3    H149360   6.634   6.774  12.558 -1.1636 -0.9881  0.3895
 9315TIP3    H249361   6.738   6.687  12.624 -1.1861  0.0602  1.8332
 9316TIP3   OH249362   0.467   6.583   2.289  0.4299  0.4098  0.4326
 9316TIP3    H149363   0.495   6.602   2.200  1.9703  2.2431  1.2241
 9316TIP3    H249364   0.505   6.498   2.309  0.3336  0.1297 -0.5450
 9317TIP3   OH249365   6.312   3.878  11.715  0.2573  0.7082  0.2126
 9317TIP3    H149366   6.381   3.816  11.692 -1.1859 -1.1392  0.5885
 9317TIP3    H249367   6.256   3.881  11.638 -0.8839 -0.2172  0.9786
 9318TIP3   OH249368   5.483   1.126   1.296  0.3369  0.7446  0.1859
 9318TIP3    H149369   5.511   1.217   1.301 -0.1313  0.9553 -0.8134
 9318TIP3    H249370   5.489   1.104   1.203 -0.2314 -0.0219  0.3213
 9319TIP3   OH249371   5.038   1.844  10.676  0.0744 -0.5797  0.3844
 9319TIP3    H149372   4.990   1.825  10.595 -2.4142 -1.0882  1.8513
 9319TIP3    H249373   5.049   1.939  10.677 -0.6008 -0.4927 -0.1814
 9320TIP3   OH249374   5.714   1.961   5.056 -0.0339  0.4199 -1.1889
 9320TIP3    H149375   5.796   1.965   5.007 -0.5682  1.3424 -2.0639
 9320TIP3    H249376   5.702   2.051   5.088  0.1587 -0.0951  0.4442
 9321TIP3   OH249377   6.026   3.502   3.297  0.4455  0.2941  0.0452
 9321TIP3    H149378   5.943   3.490   3.251  1.1723  2.3534 -1.9597
 9321TIP3    H249379   6.093   3.494   3.229  1.6834  1.6228  1.0537
 9322TIP3   OH249380   2.806   5.308  13.806  0.2918  0.0069 -0.2959
 9322TIP3    H149381   2.785   5.369  13.876  0.1063  0.1468 -0.4747
 9322TIP3    H249382   2.744   5.236  13.818  1.5065 -0.9021  0.8688
 9323TIP3   OH249383   1.272   4.267  15.021 -0.4464 -0.5057  0.2537
 9323TIP3    H149384   1.323   4.348  15.021 -0.5740 -0.4002  1.9191
 9323TIP3    H249385   1.338   4.197  15.018 -0.2512 -0.3527  0.8885
 9324TIP3   OH249386   4.063   0.943   2.798 -0.3354  0.0887  0.2024
 9324TIP3    H149387   3.984   0.944   2.745 -0.3072  0.5241  0.1641
 9324TIP3    H249388   4.032   0.925   2.887 -0.4403 -0.0916  0.1295
 9325TIP3   OH249389   6.649   2.165  14.548 -0.2989  0.2566  0.1372
 9325TIP3    H149390   6.568   2.165  14.498 -1.3303  0.6805  1.7405
 9325TIP3    H249391   6.624   2.131  14.634  1.4227 -0.5224  0.3691
 9326TIP3   OH249392   3.849   6.076  11.825  0.0455 -0.2884 -0.2693
 9326TIP3    H149393   3.921   6.044  11.770  0.7408  1.6149 -0.5434
 9326TIP3    H249394   3.891   6.126  11.894 -0.9873  2.0865 -1.2404
 9327TIP3   OH249395   6.628   1.833  12.924 -0.3715 -0.1365  0.7784
 9327TIP3    H149396   6.708   1.800  12.966  0.7663 -0.1217 -1.2129
 9327TIP3    H249397   6.637   1.928  12.927 -0.2050 -0.1373  0.3922
 9328TIP3   OH249398   1.905   2.194   4.968 -0.3220 -0.3066  0.0073
 9328TIP3    H149399   1.895   2.242   5.050  0.0866  0.3835 -0.3366
 9328TIP3    H249400   1.994   2.214   4.939 -0.1531 -1.2592 -0.1662
 9329TIP3   OH249401   0.214   3.579   0.588  0.3761  0.1341  0.0387
 9329TIP3    H149402   0.266   3.611   0.515  0.2155  1.4130  0.4675
 9329TIP3    H249403   0.243   3.631   0.663  1.2375 -1.7794  1.1290
 9330TIP3   OH249404   1.551   2.411   3.804 -0.5469 -0.2193 -0.0740
 9330TIP3    H149405   1.492   2.360   3.860 -1.9089  1.8139  0.4822
 9330TIP3    H249406   1.536   2.378   3.716 -1.7922 -0.4109  0.1965
 9331TIP3   OH249407   3.155   0.834  11.656  0.8857 -0.4250  0.1449
 9331TIP3    H149408   3.103   0.895  11.605  1.4847  1.0051  1.1729
 9331TIP3    H249409   3.178   0.882  11.735 -0.3523 -2.6733  2.0115
 9332TIP3   OH249410   0.074   5.624  15.269  0.6375 -0.0710  0.5004
 9332TIP3    H149411   0.020   5.701  15.251  0.0710 -0.5629  0.0607
 9332TIP3    H249412   0.014   5.550  15.260  0.5482 -0.4565  3.3829
 9333TIP3   OH249413   0.634   1.418   0.995 -0.1862 -0.1946 -0.7695
 9333TIP3    H149414   0.660   1.328   0.976 -0.1730 -0.5838  0.9000
 9333TIP3    H249415   0.634   1.462   0.910 -0.3760 -1.8118 -1.6433
 9334TIP3   OH249416   1.905   5.149  14.294  0.0763 -0.0068  0.1660
 9334TIP3    H149417   1.848   5.223  14.272  1.0422  1.5667  2.6068
 9334TIP3    H249418   1.900   5.092  14.217 -0.2231  2.8744 -2.1314
 9335TIP3   OH249419   6.362   1.928  13.434 -0.4384  0.8026  0.9575
 9335TIP3    H149420   6.280   1.974  13.416 -1.1669 -0.6040  0.4880
 9335TIP3    H249421   6.373   1.869  13.359  1.4462  1.5335  0.6109
 9336TIP3   OH249422   2.074   6.659  17.137 -0.3457 -0.2420 -0.8504
 9336TIP3    H149423   2.087   6.655  17.232 -0.5282 -0.0354 -0.8152
 9336TIP3    H249424   2.163   6.663  17.101 -0.2666  2.2923 -0.5597
 9337TIP3   OH249425   3.561   5.709  14.309 -0.1330 -0.1306 -0.1222
 9337TIP3    H149426   3.505   5.719  14.386  1.5344 -0.6727  1.2297
 9337TIP3    H249427   3.526   5.771  14.246 -2.3318 -0.5693  0.5813
 9338TIP3   OH249428   5.522   2.290   0.344  0.2687 -0.4903 -0.2929
 9338TIP3    H149429   5.443   2.281   0.397 -0.8262  2.3897 -1.2440
 9338TIP3    H249430   5.582   2.341   0.399 -0.3203  1.2387 -1.1681
 9339TIP3   OH249431   5.526   2.086  14.176  0.0867  0.4444 -0.0058
 9339TIP3    H149432   5.484   2.031  14.243  1.5744 -1.0208 -0.2097
 9339TIP3    H249433   5.619   2.066  14.184  0.4787  1.5797 -1.3600
 9340TIP3   OH249434   3.453   3.627   6.799 -0.1371  0.0460  0.3116
 9340TIP3    H149435   3.405   3.675   6.732 -2.2847 -2.0099  0.2463
 9340TIP3    H249436   3.515   3.573   6.750 -1.5566 -1.2953 -0.0758
 9341TIP3   OH249437   5.193   6.430  15.337  0.1309 -0.0578 -0.0476
 9341TIP3    H149438   5.118   6.370  15.336 -0.0061  0.1112 -1.1082
 9341TIP3    H249439   5.172   6.496  15.272  1.2692 -0.0988 -0.4784
 9342TIP3   OH249440   4.917   2.298   3.176 -0.8312 -0.4347 -0.3183
 9342TIP3    H149441   4.954   2.370   3.227 -1.8260 -0.2172  0.1233
 9342TIP3    H249442   4.990   2.237   3.164 -0.1111  0.3931 -0.2457
 9343TIP3   OH249443   1.719   4.235  13.648  0.7106 -0.4287  0.1412
 9343TIP3    H149444   1.713   4.316  13.597  2.0300  0.7328  1.7268
 9343TIP3    H249445   1.710   4.263  13.739 -0.3483 -2.2897  0.6551
 9344TIP3   OH249446   4.650   2.282   2.887 -0.0542 -0.2499 -0.2850
 9344TIP3    H149447   4.654   2.324   2.973  1.2240  2.4040 -1.5356
 9344TIP3    H249448   4.731   2.233   2.880 -0.5518 -1.1929  0.3153
 9345TIP3   OH249449   1.874   2.798  15.616 -0.2299  0.1652 -0.1425
 9345TIP3    H149450   1.895   2.706  15.630 -0.2322  0.3881  1.6059
 9345TIP3    H249451   1.809   2.819  15.683  0.1163  1.5505 -0.1902
 9346TIP3   OH249452   5.403   6.509   3.075 -0.2345  0.0598  0.1473
 9346TIP3    H149453   5.321   6.557   3.075  0.0955  0.6469  1.1270
 9346TIP3    H249454   5.388   6.435   3.133 -0.1227  0.0653  0.1835
 9347TIP3   OH249455   0.128   1.930   3.853  1.1446  0.0155 -0.3396
 9347TIP3    H149456   0.095   1.958   3.938  1.0983 -0.2098 -0.2819
 9347TIP3    H249457   0.052   1.936   3.795  0.8139 -1.1611 -0.0555
 9348TIP3   OH249458   0.554   0.903  16.078  0.1439  0.2273 -0.4773
 9348TIP3    H149459   0.489   0.911  16.148 -1.5388 -1.4430 -1.7445
 9348TIP3    H249460   0.591   0.816  16.089  0.5724  0.3274 -1.0849
 9349TIP3   OH249461   3.834   1.017   1.686  0.2148  0.5881 -0.5940
 9349TIP3    H149462   3.906   0.955   1.692  0.3241  0.7856  0.4064
 9349TIP3    H249463   3.758   0.963   1.663  0.3533  0.1057  0.0290
 9350TIP3   OH249464   2.032   3.456   0.757  1.0980  0.2252  0.5617
 9350TIP3    H149465   2.105   3.514   0.735 -0.1406  1.8872  0.6755
 9350TIP3    H249466   2.032   3.453   0.853  1.7088 -0.7339  0.5481
 9351TIP3   OH249467   5.018   3.741   0.740 -0.1501 -0.1399  0.0346
 9351TIP3    H149468   5.002   3.798   0.664 -0.8150  0.8943  0.9248
 9351TIP3    H249469   4.953   3.671   0.731 -2.1180  1.4400  1.0504
 9352TIP3   OH249470   0.455   3.732   2.185 -0.1048 -0.2704 -0.1026
 9352TIP3    H149471   0.395   3.685   2.127 -2.9345  0.1262  2.3054
 9352TIP3    H249472   0.484   3.807   2.133 -0.5385 -1.2240 -1.8172
 9353TIP3   OH249473   1.600   3.684   0.486 -0.5684 -0.0360 -0.2263
 9353TIP3    H149474   1.578   3.610   0.543  3.5947 -2.1511 -0.9615
 9353TIP3    H249475   1.590   3.649   0.398 -2.9500  1.8918 -0.8236
 9354TIP3   OH249476   0.040   1.539  15.337  0.0776 -0.2310  0.4049
 9354TIP3    H149477   0.031   1.616  15.393 -1.5391 -0.2022  0.1334
 9354TIP3    H249478  -0.011   1.559  15.259  2.0326 -0.3942 -1.0063
 9355TIP3   OH249479   0.273   5.218   3.068 -0.5036  0.3184  0.1548
 9355TIP3    H149480   0.180   5.236   3.078 -0.5850  0.3655 -0.6453
 9355TIP3    H249481   0.310   5.300   3.035 -0.3441  0.0026 -0.4621
 9356TIP3   OH249482   3.166   5.902  17.160 -0.3219 -0.5093 -0.0109
 9356TIP3    H149483   3.219   5.827  17.186 -2.0957 -1.9483 -0.3325
 9356TIP3    H249484   3.193   5.921  17.070  0.0180 -0.8766  0.0157
 9357TIP3   OH249485   1.401   5.042   2.273  0.5997 -0.3330 -0.1242
 9357TIP3    H149486   1.318   5.088   2.276  0.1037 -1.1471 -0.8954
 9357TIP3    H249487   1.464   5.103   2.310 -0.3633  0.2388  0.5998
 9358TIP3   OH249488   4.815   2.682  13.203 -0.2736 -0.0827  0.1479
 9358TIP3    H149489   4.902   2.644  13.199 -0.5425 -0.7552  0.4618
 9358TIP3    H249490   4.757   2.608  13.222 -0.8102  0.4899  0.8063
 9359TIP3   OH249491   3.537   2.404  14.335  0.7285 -0.2798  0.0902
 9359TIP3    H149492   3.624   2.365  14.327  0.5836 -0.5489 -0.2154
 9359TIP3    H249493   3.483   2.354  14.274  0.4630  0.1853 -0.0654
 9360TIP3   OH249494   5.509   0.998  12.378  0.1376  0.6354 -0.3455
 9360TIP3    H149495   5.589   1.008  12.431  1.1325  1.6057 -1.9427
 9360TIP3    H249496   5.438   1.013  12.440  1.2713  2.5996  0.5952
 9361TIP3   OH249497   1.352   5.417   5.486  0.8486 -0.1772  0.1105
 9361TIP3    H149498   1.265   5.400   5.522  0.8595 -0.7560 -0.1366
 9361TIP3    H249499   1.407   5.348   5.523  1.6074  1.1724  1.6722
 9362TIP3   OH249500   0.105   2.154  11.707 -0.1889 -0.5881 -0.0550
 9362TIP3    H149501   0.059   2.162  11.790 -1.4403 -1.1420 -0.6734
 9362TIP3    H249502   0.039   2.173  11.640  0.1041 -2.6423 -1.0079
 9363TIP3   OH249503   1.661   3.753   2.200  0.2309  0.0176  0.1880
 9363TIP3    H149504   1.658   3.704   2.118 -1.2027  0.9043 -0.3300
 9363TIP3    H249505   1.716   3.700   2.258  1.9596 -0.2542 -1.5699
 9364TIP3   OH249506   0.530   3.136   1.559  0.2541  0.2806 -0.1303
 9364TIP3    H149507   0.445   3.101   1.584 -0.2060  1.3769 -0.0982
 9364TIP3    H249508   0.553   3.088   1.479 -0.6126  0.2965 -0.3991
 9365TIP3   OH249509   5.901   5.189   0.890 -0.6038 -0.4901 -0.5679
 9365TIP3    H149510   5.984   5.212   0.848 -0.0490 -0.6442  0.4060
 9365TIP3    H249511   5.908   5.226   0.978 -2.2576  0.9321 -0.9834
 9366TIP3   OH249512   3.542   0.566  16.800  0.5707  0.0992  0.3856
 9366TIP3    H149513   3.574   0.654  16.780 -0.6790  0.6228  0.6024
 9366TIP3    H249514   3.504   0.536  16.717  0.0122  0.2073  0.6016
 9367TIP3   OH249515   5.005   5.406  13.224 -0.1675 -0.1542  0.2651
 9367TIP3    H149516   5.050   5.333  13.182 -1.5847 -1.5391  1.0294
 9367TIP3    H249517   5.059   5.427  13.300  0.1805 -0.4746  0.1106
 9368TIP3   OH249518   0.694   5.612   5.362 -0.3646  0.6204  0.1049
 9368TIP3    H149519   0.668   5.646   5.448  0.8299  1.6360  0.1025
 9368TIP3    H249520   0.744   5.534   5.381  0.5215  1.2458  0.3967
 9369TIP3   OH249521   2.126   3.293   5.033  0.2063  0.1346 -0.1771
 9369TIP3    H149522   2.161   3.205   5.047 -0.4565 -0.4305 -1.8230
 9369TIP3    H249523   2.191   3.337   4.978 -1.0827 -0.5811 -2.3882
 9370TIP3   OH249524   6.382   2.014  16.890 -0.1265  0.5866 -0.4222
 9370TIP3    H149525   6.370   1.965  16.972  0.7235 -0.8748 -1.1169
 9370TIP3    H249526   6.298   2.007  16.845  0.1226 -0.7240 -0.7303
 9371TIP3   OH249527   3.286   0.868   0.087  0.3065  0.6469  0.5294
 9371TIP3    H149528   3.366   0.900   0.130  0.9128 -1.5207  1.1516
 9371TIP3    H249529   3.240   0.948   0.061  3.4683  2.0470 -1.4714
 9372TIP3   OH249530   0.814   0.385  15.352 -0.2738  0.3359 -0.0690
 9372TIP3    H149531   0.743   0.445  15.374 -0.5888  0.2720 -0.8476
 9372TIP3    H249532   0.778   0.298  15.367 -0.6820  0.2686 -1.2661
 9373TIP3   OH249533   1.415   0.162  12.906  0.0663  0.1384  0.1982
 9373TIP3    H149534   1.417   0.231  12.840 -0.2712 -0.0105  0.0268
 9373TIP3    H249535   1.334   0.115  12.888 -0.6277  0.8034  1.4355
 9374TIP3   OH249536   6.577   4.217   3.810  0.6873  0.4556  0.0085
 9374TIP3    H149537   6.649   4.206   3.873 -0.3752 -1.5278  0.9861
 9374TIP3    H249538   6.532   4.297   3.837  2.8713  2.1500 -1.0633
 9375TIP3   OH249539   2.245   2.592  10.873 -0.6371  0.7149 -0.0770
 9375TIP3    H149540   2.278   2.668  10.825 -0.3964  0.0960 -0.9049
 9375TIP3    H249541   2.178   2.628  10.932 -1.5346  1.3891 -1.4692
 9376TIP3   OH249542   5.478   4.042   2.250  0.0602  0.2988 -0.2541
 9376TIP3    H149543   5.426   4.100   2.196 -0.5934  1.4867  1.5690
 9376TIP3    H249544   5.562   4.087   2.260 -0.5493  1.1562  1.4058
 9377TIP3   OH249545   0.222   1.198   2.051  0.3533 -0.3631  0.2544
 9377TIP3    H149546   0.297   1.244   2.090  0.7961 -1.5828  0.8959
 9377TIP3    H249547   0.151   1.210   2.114 -0.5704  2.2058 -1.1022
 9378TIP3   OH249548   3.752   3.958  11.372  0.0388 -0.6714  0.5475
 9378TIP3    H149549   3.844   3.956  11.394  0.1958 -0.5861 -0.0719
 9378TIP3    H249550   3.716   4.030  11.425  0.3869 -0.5199  0.5798
 9379TIP3   OH249551   4.592   1.622  16.200  0.9817 -0.5693  0.2025
 9379TIP3    H149552   4.665   1.599  16.143  1.8653 -0.0713  1.0903
 9379TIP3    H249553   4.564   1.709  16.169  2.0686  0.1209  1.0723
 9380TIP3   OH249554   0.185   5.640  16.935  0.8417 -0.1899 -0.2666
 9380TIP3    H149555   0.210   5.590  17.012  0.1359  2.1777  1.6091
 9380TIP3    H249556   0.134   5.713  16.969 -1.8337 -0.4675 -3.2224
 9381TIP3   OH249557   5.875   2.969  14.201 -0.2275  0.2013 -0.1905
 9381TIP3    H149558   5.826   2.974  14.283  0.8594  0.6070  0.4680
 9381TIP3    H249559   5.953   3.022  14.217  0.6174 -0.7288 -1.0461
 9382TIP3   OH249560   6.353   5.058  13.835  0.0597 -0.7761  0.1104
 9382TIP3    H149561   6.304   5.134  13.865 -0.1160 -0.1087 -1.7590
 9382TIP3    H249562   6.356   5.000  13.911  0.0867  1.0147  1.5379
 9383TIP3   OH249563   2.423   2.806   2.506  0.4910  0.4932  0.1645
 9383TIP3    H149564   2.384   2.877   2.555 -1.4734 -1.1669  1.1657
 9383TIP3    H249565   2.381   2.810   2.420 -1.4890 -0.8296  0.9977
 9384TIP3   OH249566   3.798   0.217   4.823  0.2669  0.1223 -0.0425
 9384TIP3    H149567   3.784   0.306   4.792 -0.7785  0.0888  0.2977
 9384TIP3    H249568   3.810   0.225   4.918 -0.8034 -0.1784  0.1317
 9385TIP3   OH249569   0.556   6.302   4.223 -0.4065 -0.1497 -0.1398
 9385TIP3    H149570   0.622   6.364   4.253 -0.3349  0.4015 -1.3843
 9385TIP3    H249571   0.493   6.355   4.175 -2.0363 -0.5899  1.3677
 9386TIP3   OH249572   5.987   6.474  17.292 -0.0572  0.2470 -0.4064
 9386TIP3    H149573   5.934   6.409  17.245  0.8644 -0.1411 -0.9446
 9386TIP3    H249574   6.064   6.425  17.321 -0.4464  0.5548  1.2611
 9387TIP3   OH249575   5.134   4.574   0.732 -0.4827  0.0919  0.1035
 9387TIP3    H149576   5.164   4.494   0.689 -1.4862  1.1481 -2.8217
 9387TIP3    H249577   5.171   4.645   0.680 -1.7798  1.4931  1.0007
 9388TIP3   OH249578   3.929   3.315  15.932  0.6737 -0.2082  0.2842
 9388TIP3    H149579   3.973   3.244  15.884 -0.4374 -0.5126 -0.3146
 9388TIP3    H249580   3.898   3.374  15.864  2.1728  1.2564  0.7978
 9389TIP3   OH249581   3.258   2.920   0.051 -0.5101 -0.7414  0.0725
 9389TIP3    H149582   3.257   3.009   0.015  0.1215 -1.2172 -1.1456
 9389TIP3    H249583   3.221   2.930   0.139 -1.8229  0.5016 -0.5726
 9390TIP3   OH249584   6.054   5.236  15.850 -0.0951  0.1602 -0.1039
 9390TIP3    H149585   6.009   5.176  15.910 -0.0757 -0.1980 -0.4412
 9390TIP3    H249586   6.072   5.182  15.772 -1.5331  1.0127 -1.0848
 9391TIP3   OH249587   6.108   3.827  10.354 -0.5520 -0.3595 -0.2017
 9391TIP3    H149588   6.144   3.915  10.342 -3.3121  0.6280 -2.1398
 9391TIP3    H249589   6.035   3.838  10.415 -0.1965 -1.5573  0.4791
 9392TIP3   OH249590   6.365   0.064  11.737  0.1172 -0.1276 -0.0479
 9392TIP3    H149591   6.319   0.008  11.799  0.0204 -0.5694 -0.5127
 9392TIP3    H249592   6.456   0.063  11.766 -0.1044  0.5056  0.6919
 9393TIP3   OH249593   3.273   6.774   0.193 -0.2239 -0.3803  0.2625
 9393TIP3    H149594   3.341   6.778   0.261 -0.2545  0.5832  0.2433
 9393TIP3    H249595   3.239   6.863   0.187 -2.3162 -1.0586  1.0967
 9394TIP3   OH249596   6.037   1.005  11.383  0.7481  0.6240 -0.4168
 9394TIP3    H149597   6.069   1.029  11.470 -0.1835  1.4895 -0.3005
 9394TIP3    H249598   6.111   1.021  11.325  1.6765 -0.8013  0.3089
 9395TIP3   OH249599   5.859   3.847  16.418  0.0185  0.0739  0.3253
 9395TIP3    H149600   5.826   3.858  16.508  1.0515 -1.4999  0.9354
 9395TIP3    H249601   5.952   3.869  16.424  0.2887 -0.8940 -0.1524
 9396TIP3   OH249602   0.822   5.248   5.942  0.4693 -0.0281 -0.5245
 9396TIP3    H149603   0.871   5.234   6.023 -1.4794  1.6056  1.0502
 9396TIP3    H249604   0.761   5.175   5.938 -1.5912  1.4286  1.3154
 9397TIP3   OH249605   4.003   6.101   1.624 -0.1164 -0.0345  0.0671
 9397TIP3    H149606   4.024   6.016   1.586  1.5565  0.9104 -1.3144
 9397TIP3    H249607   4.025   6.093   1.716  2.3380 -0.4692 -0.4818
 9398TIP3   OH249608   5.054   2.939  12.104 -0.6815 -0.4657 -0.2228
 9398TIP3    H149609   5.037   2.923  12.197  2.0352  0.9243  0.6067
 9398TIP3    H249610   5.055   2.851  12.065 -3.0523 -1.0045  0.7573
 9399TIP3   OH249611   0.675   1.163  11.314  0.6638 -0.2009 -0.0623
 9399TIP3    H149612   0.598   1.150  11.369  1.0433  1.7810  1.0293
 9399TIP3    H249613   0.641   1.203  11.234  0.5577  1.2351  0.6574
 9400TIP3   OH249614   3.884   3.626  12.385 -0.6224  0.2459  0.2781
 9400TIP3    H149615   3.974   3.649  12.363 -0.7418  0.9625  0.4940
 9400TIP3    H249616   3.855   3.697  12.443 -1.0032 -0.5011  1.0094
 9401TIP3   OH249617   3.802   5.345   5.062  0.2103 -0.0962 -0.5676
 9401TIP3    H149618   3.875   5.381   5.012  0.7813 -0.2742  0.1098
 9401TIP3    H249619   3.841   5.317   5.145 -1.0102  1.8848  0.7562
 9402TIP3   OH249620   0.540   5.704   0.637  0.1776 -0.0425  0.3159
 9402TIP3    H149621   0.470   5.769   0.646  1.1398  1.0874 -0.1175
 9402TIP3    H249622   0.618   5.755   0.617  0.7784 -1.3976 -1.0034
 9403TIP3   OH249623   0.051   4.783   0.393 -0.2822 -0.1009 -0.9866
 9403TIP3    H149624  -0.030   4.761   0.346 -0.7692 -0.5914  0.0473
 9403TIP3    H249625   0.024   4.788   0.485  0.6673  0.7452 -0.7448
 9404TIP3   OH249626   2.083   1.606  16.926  0.1489  0.5276 -0.2102
 9404TIP3    H149627   2.069   1.692  16.967 -0.7026  0.0342  0.5564
 9404TIP3    H249628   2.059   1.543  16.994  0.5066 -0.3214 -0.8617
 9405TIP3   OH249629   1.782   3.505   4.451 -0.0225 -0.0032 -0.0908
 9405TIP3    H149630   1.796   3.599   4.467 -1.5664  0.1872  0.3385
 9405TIP3    H249631   1.848   3.461   4.504 -0.0903  0.8152  0.7013
 9406TIP3   OH249632   0.951   2.398   1.305  0.3713  0.0122 -0.2476
 9406TIP3    H149633   1.017   2.338   1.341  1.2091  0.5608 -0.8165
 9406TIP3    H249634   0.940   2.369   1.214 -0.7224 -0.5232  0.0465
 9407TIP3   OH249635   0.465   6.152  16.704  0.3941  0.2380  0.1784
 9407TIP3    H149636   0.492   6.225  16.759 -0.7887 -1.5250  3.4358
 9407TIP3    H249637   0.495   6.074  16.752 -2.6151 -1.5050 -0.4570
 9408TIP3   OH249638   6.417   5.321  12.412 -0.1270 -0.4397  0.4186
 9408TIP3    H149639   6.345   5.377  12.443 -0.2057  0.7249 -1.6608
 9408TIP3    H249640   6.378   5.234  12.403 -0.9340 -0.0948  0.5089
 9409TIP3   OH249641   0.670   6.084  17.227 -0.6889 -0.4347  0.1675
 9409TIP3    H149642   0.674   5.990  17.246 -1.3144 -0.3478  0.7431
 9409TIP3    H249643   0.576   6.104  17.226 -0.6624 -0.1708 -1.7369
 9410TIP3   OH249644   3.045   4.234   5.473 -0.1387  0.2387  0.2034
 9410TIP3    H149645   2.983   4.209   5.542  1.1654 -1.0578  0.9770
 9410TIP3    H249646   3.131   4.224   5.514  0.6229  0.9783 -1.1538
 9411TIP3   OH249647   0.115   1.937   1.029 -0.2496 -0.2872 -0.7158
 9411TIP3    H149648   0.059   2.009   1.001 -3.3273 -2.1150  0.1475
 9411TIP3    H249649   0.150   1.965   1.114 -1.5557  0.1944 -0.2991
 9412TIP3   OH249650   3.177   1.870  16.203 -0.4136 -0.1536 -0.3477
 9412TIP3    H149651   3.235   1.939  16.171 -0.5633  0.9229  1.5626
 9412TIP3    H249652   3.091   1.891  16.166 -0.4056  0.5787  0.0300
 9413TIP3   OH249653   6.110   4.500   4.226  0.0115  0.2036 -0.5764
 9413TIP3    H149654   6.116   4.521   4.133  4.3299 -1.5281 -0.9201
 9413TIP3    H249655   6.097   4.585   4.269  0.6152  1.4237 -2.6505
 9414TIP3   OH249656   3.969   2.734   3.985 -0.3415  0.0813  0.3995
 9414TIP3    H149657   3.978   2.827   3.967  1.9468 -0.3941 -1.2889
 9414TIP3    H249658   4.022   2.691   3.919 -0.3135 -2.3912  1.8968
 9415TIP3   OH249659   1.553   0.040  13.118  0.6012 -0.3212 -0.0784
 9415TIP3    H149660   1.513   0.067  13.035 -0.6370 -0.7434  0.3610
 9415TIP3    H249661   1.623  -0.020  13.092 -0.7298 -1.6457 -0.8058
 9416TIP3   OH249662   0.959   6.762  16.817 -0.5305  0.0262  0.1926
 9416TIP3    H149663   0.979   6.820  16.744 -3.0860 -0.3073 -0.8641
 9416TIP3    H249664   0.957   6.674  16.778  0.6584 -0.4959  1.2324
 9417TIP3   OH249665   0.382   4.460  15.022 -0.2218  0.2189 -0.4321
 9417TIP3    H149666   0.315   4.457  15.091 -0.1681  0.6265 -0.3613
 9417TIP3    H249667   0.335   4.436  14.942 -0.7040  1.5642 -0.5768
 9418TIP3   OH249668   3.151   4.985  15.686 -0.0798 -0.7011  0.4285
 9418TIP3    H149669   3.111   5.028  15.762 -0.7664  2.0051 -1.3428
 9418TIP3    H249670   3.226   5.039  15.665 -0.7794 -0.4861 -1.7197
 9419TIP3   OH249671   5.559   1.787  11.085  0.5173 -0.3926  0.6013
 9419TIP3    H149672   5.610   1.868  11.089  0.6279 -0.4840  1.2302
 9419TIP3    H249673   5.624   1.717  11.091  0.7564 -0.6581 -2.9991
 9420TIP3   OH249674   6.660   5.455  15.912  0.3185 -0.3416 -0.0666
 9420TIP3    H149675   6.611   5.474  15.832 -0.4044  1.8756  0.8317
 9420TIP3    H249676   6.596   5.464  15.982  1.9537  3.0282  1.1911
 9421TIP3   OH249677   3.241   2.881  16.471 -0.1061  0.5997  0.2057
 9421TIP3    H149678   3.300   2.956  16.478 -0.1373  0.6548 -0.0764
 9421TIP3    H249679   3.196   2.877  16.555  2.8682 -1.6438  1.8661
 9422TIP3   OH249680   2.245   4.374   5.539 -0.6001  0.4794 -0.3313
 9422TIP3    H149681   2.238   4.279   5.538 -2.4515  0.5278 -2.9434
 9422TIP3    H249682   2.333   4.393   5.507 -0.2134 -0.3169  0.2331
 9423TIP3   OH249683   1.454   3.728  11.122 -0.8052  0.1854 -0.3648
 9423TIP3    H149684   1.393   3.691  11.186  0.5179  0.0064  0.8297
 9423TIP3    H249685   1.538   3.685  11.140 -0.1933  0.7693 -1.6603
 9424TIP3   OH249686   6.703   5.387   1.451  0.8853 -0.0918 -0.7574
 9424TIP3    H149687   6.740   5.302   1.476  1.2359  0.8476  2.3585
 9424TIP3    H249688   6.608   5.374   1.455  0.8976 -0.6935 -1.8811
 9425TIP3   OH249689   3.152   0.837   3.764 -0.1743 -0.7170  0.5826
 9425TIP3    H149690   3.130   0.819   3.673 -1.2313 -0.8792  0.8514
 9425TIP3    H249691   3.242   0.808   3.774  0.7043  1.2314 -0.9343
 9426TIP3   OH249692   2.627   1.000  14.627  0.0262 -0.0854  0.5235
 9426TIP3    H149693   2.665   1.063  14.566 -0.3243  0.0741  0.4682
 9426TIP3    H249694   2.697   0.983  14.690 -0.4692  1.8858  1.7039
 9427TIP3   OH249695   4.011   0.770  16.678  0.1860  0.1925  0.0331
 9427TIP3    H149696   3.997   0.823  16.757 -1.8237  1.3107 -1.0009
 9427TIP3    H249697   3.948   0.698  16.687  0.3418  0.0147 -0.2989
 9428TIP3   OH249698   2.362   6.586  16.368 -0.1164 -0.2733 -0.2783
 9428TIP3    H149699   2.295   6.569  16.434 -1.1046  2.9876 -0.2877
 9428TIP3    H249700   2.321   6.647  16.306  2.2249  0.3188 -1.3761
 9429TIP3   OH249701   3.547   5.275   1.026  0.0400  0.5912 -0.3844
 9429TIP3    H149702   3.475   5.261   0.965 -1.2463 -0.3549  1.2702
 9429TIP3    H249703   3.526   5.358   1.069 -1.1429 -0.5591  1.4120
 9430TIP3   OH249704   5.708   3.117  11.843  0.1856 -0.6803  0.4046
 9430TIP3    H149705   5.621   3.080  11.851  0.2759 -0.7479  1.1438
 9430TIP3    H249706   5.767   3.042  11.848  0.3021 -0.5943  0.3340
 9431TIP3   OH249707   2.751   4.530   3.766  0.1121 -0.7405 -0.0258
 9431TIP3    H149708   2.699   4.539   3.686 -0.2132  0.7388  0.3272
 9431TIP3    H249709   2.758   4.619   3.801  2.6226 -0.9366  0.1313
 9432TIP3   OH249710   5.120   6.711  12.322  0.0295 -0.3483 -0.3736
 9432TIP3    H149711   5.133   6.626  12.363 -0.0088 -0.4283 -0.5278
 9432TIP3    H249712   5.031   6.736  12.344  1.1752  1.3879  2.9055
 9433TIP3   OH249713   1.472   1.639  16.152 -0.2925 -0.3284  0.3597
 9433TIP3    H149714   1.486   1.609  16.242  0.2388  2.4711  1.3167
 9433TIP3    H249715   1.561   1.646  16.115 -0.5001 -1.3676 -0.3986
 9434TIP3   OH249716   5.388   4.838   3.533  0.4180  0.0442  0.0718
 9434TIP3    H149717   5.474   4.851   3.492 -0.1735  0.4626 -1.1096
 9434TIP3    H249718   5.406   4.789   3.613  1.6953 -0.3606 -0.4337
 9435TIP3   OH249719   5.121   0.944   4.887  0.1199  0.5473 -0.9155
 9435TIP3    H149720   5.184   0.948   4.959 -1.3860  0.5068  0.4642
 9435TIP3    H249721   5.132   0.856   4.851  0.0336  0.0941  0.1200
 9436TIP3   OH249722   2.929   0.791   3.562  0.7370  0.0271 -0.0269
 9436TIP3    H149723   2.987   0.800   3.486  2.6165  0.0242  1.3333
 9436TIP3    H249724   2.904   0.699   3.562 -0.4262  0.3002 -1.3839
 9437TIP3   OH249725   0.541   5.384   0.982 -0.3995  0.8505 -0.2500
 9437TIP3    H149726   0.568   5.400   0.891 -1.0633 -0.5740 -0.7323
 9437TIP3    H249727   0.445   5.388   0.979 -0.5369 -1.1993 -0.0709
 9438TIP3   OH249728   3.470   3.967  14.148 -0.2466  0.2666 -0.1206
 9438TIP3    H149729   3.435   4.032  14.209  2.0516  4.0951 -2.5373
 9438TIP3    H249730   3.406   3.965  14.077 -1.0146 -1.3617  0.5493
 9439TIP3   OH249731   2.767   5.109  12.932  0.3728 -0.1512 -0.0279
 9439TIP3    H149732   2.863   5.118  12.928  0.3617  0.0134  0.0861
 9439TIP3    H249733   2.741   5.166  13.004  0.3120 -1.1387  0.7514
 9440TIP3   OH249734   5.595   3.029  15.746 -0.2150  0.2751 -0.0217
 9440TIP3    H149735   5.659   2.971  15.707 -1.5622 -0.8753 -0.5953
 9440TIP3    H249736   5.640   3.066  15.822  0.6158 -1.6725  0.4906
 9441TIP3   OH249737   4.367   0.563  15.662 -0.0733 -0.1341 -0.2482
 9441TIP3    H149738   4.390   0.474  15.635 -1.0168 -0.2947 -0.5339
 9441TIP3    H249739   4.316   0.550  15.742 -0.8406  0.1032 -0.6948
 9442TIP3   OH249740   4.706   6.690  12.517 -0.2058  0.1578 -0.0613
 9442TIP3    H149741   4.731   6.728  12.432 -0.7267  1.3344  0.2955
 9442TIP3    H249742   4.612   6.675  12.510 -0.3372  0.6955  0.4657
 9443TIP3   OH249743   2.407   0.341   4.134 -0.4997  0.2702 -0.3509
 9443TIP3    H149744   2.337   0.404   4.149 -0.2295  1.1895 -2.5718
 9443TIP3    H249745   2.449   0.370   4.053  1.9889 -0.6680  0.4853
 9444TIP3   OH249746   5.645   3.731   2.176  0.1840 -0.0931 -0.6275
 9444TIP3    H149747   5.616   3.766   2.091  0.2351  0.4262 -0.4364
 9444TIP3    H249748   5.679   3.808   2.223 -1.9626  0.0833  0.7665
 9445TIP3   OH249749   2.928   3.983  16.664 -0.1892 -0.2134 -0.2676
 9445TIP3    H149750   2.944   3.993  16.758 -1.7758 -1.3679  0.1736
 9445TIP3    H249751   2.933   4.072  16.629  0.8342  0.1821  0.8272
 9446TIP3   OH249752   6.128   1.786   4.802  0.1402 -0.2678  0.0051
 9446TIP3    H149753   6.214   1.787   4.844 -0.3437  0.5909  1.0022
 9446TIP3    H249754   6.114   1.694   4.778  2.3519 -0.1206 -2.3664
 9447TIP3   OH249755   5.662   0.080  14.774 -0.1828 -0.1441  0.0558
 9447TIP3    H149756   5.567   0.070  14.775 -0.0424 -1.7426  0.5033
 9447TIP3    H249757   5.690   0.027  14.699  0.4741 -1.2425  1.0540
 9448TIP3   OH249758   1.177   0.744  11.323 -1.1371  0.2156 -0.1046
 9448TIP3    H149759   1.140   0.755  11.236 -1.3475  1.2053  0.0950
 9448TIP3    H249760   1.146   0.658  11.352  0.6748 -1.1022 -1.8302
 9449TIP3   OH249761   2.487   1.885   1.362  0.4873 -0.5262 -0.4946
 9449TIP3    H149762   2.540   1.879   1.442  1.9499 -0.1422 -1.3855
 9449TIP3    H249763   2.510   1.971   1.325 -3.1129  1.1022  0.6234
 9450TIP3   OH249764   3.531   1.120  11.462  0.5229 -0.1248 -0.4279
 9450TIP3    H149765   3.455   1.062  11.452  0.1735 -0.0620  1.4220
 9450TIP3    H249766   3.582   1.107  11.383 -2.0474  0.7834 -2.3818
 9451TIP3   OH249767   4.246   1.476  16.029 -0.1573 -0.0719 -0.5848
 9451TIP3    H149768   4.155   1.448  16.017 -1.1115  2.5452 -0.3010
 9451TIP3    H249769   4.244   1.528  16.110  1.5193  0.2982 -0.7458
 9452TIP3   OH249770   2.960   5.501  11.075 -0.4246 -0.3691 -0.1561
 9452TIP3    H149771   2.921   5.565  11.016 -0.9951  0.1389  0.7510
 9452TIP3    H249772   3.038   5.545  11.111  2.2995 -2.0616 -3.4527
 9453TIP3   OH249773   6.367   6.418  14.445  0.4649 -0.7482  0.3341
 9453TIP3    H149774   6.420   6.493  14.416 -0.5358  1.2312  3.1976
 9453TIP3    H249775   6.284   6.428  14.398  0.2602  0.1059  0.8526
 9454TIP3   OH249776   2.679   3.019   5.351  0.2810  0.2476  0.3455
 9454TIP3    H149777   2.675   3.109   5.383  1.7330  0.7428 -0.7490
 9454TIP3    H249778   2.709   3.027   5.260 -1.4775 -1.2349 -0.4283
 9455TIP3   OH249779   1.301   0.200  13.206 -0.2857 -0.6362  0.1636
 9455TIP3    H149780   1.289   0.281  13.156  0.3808 -0.4231  0.3418
 9455TIP3    H249781   1.363   0.149  13.154 -0.0459 -0.6675  0.4797
 9456TIP3   OH249782   6.658   4.627   0.631 -0.5040  0.2621  0.0491
 9456TIP3    H149783   6.597   4.642   0.559  1.2147  1.6050 -1.2102
 9456TIP3    H249784   6.657   4.709   0.681  1.1225  0.7688 -0.6974
 9457TIP3   OH249785   1.946   6.772   2.038  0.5982  0.0857 -0.2685
 9457TIP3    H149786   1.952   6.789   2.132 -2.8066 -0.9654  0.3046
 9457TIP3    H249787   1.976   6.852   1.996  0.3448  1.3212  1.8018
 9458TIP3   OH249788   3.889   0.418   4.193  0.3497 -0.5643 -0.1699
 9458TIP3    H149789   3.936   0.417   4.276 -0.6457  1.3089  0.4861
 9458TIP3    H249790   3.806   0.375   4.212  0.4980 -0.9922 -0.4705
 9459TIP3   OH249791   3.163   2.541  16.788 -0.9146  0.0322 -0.4055
 9459TIP3    H149792   3.184   2.599  16.862  1.6847 -1.1971 -0.0581
 9459TIP3    H249793   3.132   2.600  16.719 -2.5590  1.3126  1.3121
 9460TIP3   OH249794   5.946   0.071   5.270  0.2992  0.1135  0.0715
 9460TIP3    H149795   5.954   0.072   5.175  2.5231 -0.7339  0.1712
 9460TIP3    H249796   5.929   0.162   5.294 -0.2624  0.3340 -1.1326
 9461TIP3   OH249797   1.760   2.769  16.793 -0.6647 -0.0764  0.1683
 9461TIP3    H149798   1.770   2.766  16.888 -1.2400  1.3964  0.3096
 9461TIP3    H249799   1.699   2.842  16.778 -1.0719 -0.6855 -1.2943
 9462TIP3   OH249800   3.852   0.063   3.912 -0.2797  0.5286  0.0186
 9462TIP3    H149801   3.922   0.103   3.964 -1.1621  0.0938  1.6007
 9462TIP3    H249802   3.775   0.064   3.970 -0.4048 -3.2907  0.1281
 9463TIP3   OH249803   4.543   0.381  12.548 -0.8470 -0.1070 -0.6912
 9463TIP3    H149804   4.489   0.360  12.624  0.9795  2.1903  1.4489
 9463TIP3    H249805   4.509   0.464  12.516  0.3469  0.5456 -0.3293
 9464TIP3   OH249806   4.855   0.390   3.662 -0.1343 -0.2698  0.2234
 9464TIP3    H149807   4.906   0.312   3.637 -0.8191 -1.6668  2.8736
 9464TIP3    H249808   4.795   0.403   3.588  0.7618 -1.5667 -0.7889
 9465TIP3   OH249809   3.100   1.961   0.851 -0.4327  0.7739 -0.1943
 9465TIP3    H149810   3.131   2.024   0.785 -1.7903 -0.5975 -2.2595
 9465TIP3    H249811   3.143   1.879   0.828 -1.2097  0.1821  0.4047
 9466TIP3   OH249812   2.721   1.328   0.423  0.8761  0.0641  0.2365
 9466TIP3    H149813   2.774   1.272   0.480 -0.9059 -1.7634  0.2141
 9466TIP3    H249814   2.736   1.294   0.335 -2.4112 -2.5373  0.4724
 9467TIP3   OH249815   6.635   3.139   2.660  0.3109  0.0047 -0.5554
 9467TIP3    H149816   6.567   3.100   2.606  1.2343 -1.1032 -0.9576
 9467TIP3    H249817   6.648   3.076   2.731  0.9641  0.1662 -0.5300
 9468TIP3   OH249818   1.815   5.545   4.657 -0.3534 -0.1909  0.0209
 9468TIP3    H149819   1.843   5.506   4.574 -0.9299  2.1568 -1.3504
 9468TIP3    H249820   1.725   5.572   4.641 -0.5772  0.0335  1.5425
 9469TIP3   OH249821   4.344   3.414   1.615 -0.5730  0.0362 -0.1118
 9469TIP3    H149822   4.328   3.452   1.528 -0.8300  1.6688  0.6144
 9469TIP3    H249823   4.426   3.366   1.605 -0.0746  1.0267 -1.0228
 9470TIP3   OH249824   3.142   1.447  15.900 -1.0818 -0.1365  0.6785
 9470TIP3    H149825   3.212   1.479  15.842 -1.7856  0.2355  0.0224
 9470TIP3    H249826   3.188   1.420  15.980 -0.1680 -0.0752  0.1852
 9471TIP3   OH249827   2.539   5.949  11.824 -0.2655  0.0397 -0.3257
 9471TIP3    H149828   2.623   5.993  11.811 -0.9176  1.0231 -1.4200
 9471TIP3    H249829   2.486   5.975  11.748 -1.5238 -0.6461  0.2844
 9472TIP3   OH249830   3.212   4.059  13.033  0.3956  0.8008  0.2306
 9472TIP3    H149831   3.138   4.006  13.005  0.1897  1.2998 -0.1790
 9472TIP3    H249832   3.278   3.996  13.061 -1.1300  0.3399  3.1938
 9473TIP3   OH249833   0.619   6.265  16.425 -0.0123  0.0892 -0.1609
 9473TIP3    H149834   0.563   6.188  16.420 -0.6744  0.2937  2.4688
 9473TIP3    H249835   0.570   6.327  16.479  1.9112  1.0387  0.5989
 9474TIP3   OH249836   6.241   4.910  14.570 -0.4279 -0.4811 -0.1645
 9474TIP3    H149837   6.193   4.988  14.541  0.9998  0.2605 -0.6698
 9474TIP3    H249838   6.207   4.892  14.658 -1.1850  0.3657 -0.2655
 9475TIP3   OH249839   0.237   5.730   1.516 -0.1825 -0.3246  0.2972
 9475TIP3    H149840   0.281   5.646   1.529  0.0120  0.1823  3.6175
 9475TIP3    H249841   0.144   5.708   1.513 -0.3146 -0.5910  3.3807
 9476TIP3   OH249842   3.187   0.315   2.789  0.6332 -0.2434  0.2699
 9476TIP3    H149843   3.262   0.352   2.836  0.8003  0.0182 -0.1909
 9476TIP3    H249844   3.120   0.383   2.792  0.3961 -0.4965  0.7225
 9477TIP3   OH249845   2.931   0.848  16.466  0.0406  0.3406 -0.4115
 9477TIP3    H149846   3.012   0.804  16.491  0.8313  2.8677  1.8159
 9477TIP3    H249847   2.868   0.825  16.534 -0.9250 -0.8207 -1.6168
 9478TIP3   OH249848   2.880   3.483  14.248 -0.3656 -0.0907 -0.4675
 9478TIP3    H149849   2.848   3.418  14.312  0.9981 -0.3509 -0.0238
 9478TIP3    H249850   2.814   3.553  14.251  0.2935  0.5340  2.2209
 9479TIP3   OH249851   4.634   5.318  15.207  0.9769 -0.1110 -0.4405
 9479TIP3    H149852   4.658   5.364  15.288 -1.3562  0.5791 -0.0567
 9479TIP3    H249853   4.581   5.381  15.159 -1.8266 -2.0891 -0.1778
 9480TIP3   OH249854   2.522   0.356   3.802 -0.0760 -0.6956  0.7624
 9480TIP3    H149855   2.595   0.369   3.863 -0.2379  0.9174  0.6718
 9480TIP3    H249856   2.502   0.445   3.771  1.7939 -1.5752 -3.7398
 9481TIP3   OH249857   3.755   1.250   1.589  0.1924 -0.3110 -0.2021
 9481TIP3    H149858   3.774   1.158   1.610  2.1584 -0.2407 -1.4758
 9481TIP3    H249859   3.776   1.258   1.496 -0.0915  1.4113 -0.1383
 9482TIP3   OH249860   4.623   4.070   4.927 -0.3322  0.8881 -0.1944
 9482TIP3    H149861   4.595   4.066   5.019 -0.6353  1.0347 -0.2781
 9482TIP3    H249862   4.600   3.985   4.891  2.5438 -0.3705  0.6201
 9483TIP3   OH249863   2.380   3.823   0.131  0.2229  0.0627  0.0879
 9483TIP3    H149864   2.371   3.840   0.038 -1.2261 -0.3958  0.1185
 9483TIP3    H249865   2.443   3.751   0.137 -1.3879 -1.4929 -0.7160
 9484TIP3   OH249866   3.512   6.412   6.216  0.1152  0.6744  1.0715
 9484TIP3    H149867   3.417   6.416   6.222  0.0206  0.0069  0.2886
 9484TIP3    H249868   3.544   6.452   6.297 -0.8498 -1.0658  2.3556
 9485TIP3   OH249869   2.865   4.675  15.597  0.1702 -0.2371  0.3486
 9485TIP3    H149870   2.959   4.685  15.613  0.3819 -1.7546  0.1415
 9485TIP3    H249871   2.858   4.649  15.506 -0.3025 -2.0169  0.8553
 9486TIP3   OH249872   5.153   1.666  12.773 -0.1631  0.2132 -0.8468
 9486TIP3    H149873   5.164   1.605  12.847  1.3477  0.4659 -0.8349
 9486TIP3    H249874   5.111   1.614  12.705 -0.3153 -0.4057 -0.2909
 9487TIP3   OH249875   6.193   0.434  16.137  0.4103 -0.3632 -0.1683
 9487TIP3    H149876   6.143   0.411  16.215 -0.9490  2.3057 -0.1523
 9487TIP3    H249877   6.203   0.529  16.141 -1.6006  0.2498 -4.2793
 9488TIP3   OH249878   3.112   0.459  16.236  0.5486 -0.2732 -0.5613
 9488TIP3    H149879   3.146   0.377  16.199  1.0285  0.0480 -0.8396
 9488TIP3    H249880   3.090   0.436  16.327  2.3763 -0.2886 -0.0751
 9489TIP3   OH249881   1.901   3.261  17.185  0.3270  0.1905 -0.0157
 9489TIP3    H149882   1.948   3.323  17.129 -0.8691  0.1661 -1.0951
 9489TIP3    H249883   1.913   3.176  17.143 -0.1639  0.0890  0.0396
 9490TIP3   OH249884   0.754   0.417  16.583 -0.2232  0.2056 -0.4152
 9490TIP3    H149885   0.682   0.362  16.550  0.3537 -0.1310 -1.1370
 9490TIP3    H249886   0.827   0.356  16.593  0.0249  0.5869  0.1248
 9491TIP3   OH249887   3.339   0.052  13.980 -0.0462 -0.1659 -0.0720
 9491TIP3    H149888   3.256   0.067  13.935 -0.1553  0.4370  0.3326
 9491TIP3    H249889   3.388   0.133  13.967  0.1538 -0.2113  0.3897
 9492TIP3   OH249890   2.367   4.911   2.058 -0.1541  0.2573 -0.1491
 9492TIP3    H149891   2.423   4.850   2.011  0.6592  0.9957 -0.1563
 9492TIP3    H249892   2.415   4.994   2.058 -0.6393  0.5674  0.9940
 9493TIP3   OH249893   1.169   6.335   3.111  0.8085  0.3153  1.1454
 9493TIP3    H149894   1.088   6.304   3.153  0.7021  0.5094  1.0879
 9493TIP3    H249895   1.225   6.360   3.183  1.2410 -0.8317  1.2304
 9494TIP3   OH249896   4.618   0.882   2.737  0.5430 -0.7854  0.0526
 9494TIP3    H149897   4.552   0.951   2.738  0.4382 -0.8781 -0.4738
 9494TIP3    H249898   4.569   0.800   2.734  0.6755 -0.8382 -1.1503
 9495TIP3   OH249899   5.977   6.601   0.259 -0.4785  0.6658 -0.4725
 9495TIP3    H149900   5.893   6.557   0.247 -0.1268 -0.1104 -0.1265
 9495TIP3    H249901   5.955   6.682   0.306 -0.7024 -1.1677  2.8926
 9496TIP3   OH249902   2.851   0.371  17.116  0.5315 -0.2922  0.3570
 9496TIP3    H149903   2.817   0.340  17.032 -1.7848  0.4450  0.9476
 9496TIP3    H249904   2.901   0.297  17.151  0.2090 -1.1621 -0.9638
 9497TIP3   OH249905   0.564   4.434   6.333  0.6897 -0.5701  0.5870
 9497TIP3    H149906   0.602   4.350   6.306  0.0060 -1.2794  1.7329
 9497TIP3    H249907   0.601   4.451   6.419  1.3680  0.6845  0.0659
 9498TIP3   OH249908   4.372   2.658   2.083  0.1765 -0.0894 -0.7709
 9498TIP3    H149909   4.446   2.686   2.136  1.3065 -2.3469 -1.0375
 9498TIP3    H249910   4.395   2.683   1.993 -0.1903  0.7283 -0.6440
 9499TIP3   OH249911   4.113   1.848  15.129 -0.0203  0.3416 -0.5836
 9499TIP3    H149912   4.161   1.765  15.121  0.9340  0.8189 -0.0178
 9499TIP3    H249913   4.021   1.823  15.121  0.2880 -0.6628 -1.2503
 9500TIP3   OH249914   1.235   3.656   5.605 -0.4857 -0.1628  0.0407
 9500TIP3    H149915   1.150   3.634   5.644 -1.6250  0.0926 -2.1322
 9500TIP3    H249916   1.270   3.572   5.575 -0.4990 -0.1377 -0.0456
 9501TIP3   OH249917   4.000   3.314   2.757  0.0704  0.4062  0.9451
 9501TIP3    H149918   4.019   3.273   2.842  1.1854 -0.4522  0.2985
 9501TIP3    H249919   4.085   3.338   2.722 -0.2520 -0.3925 -0.4880
 9502TIP3   OH249920   2.962   2.542  13.992 -0.3526  0.4239 -0.2204
 9502TIP3    H149921   3.045   2.495  13.994  0.1617  1.2791 -0.7848
 9502TIP3    H249922   2.960   2.594  14.072 -0.2161  0.6177 -0.3434
 9503TIP3   OH249923   2.304   6.083  14.676  0.5436 -0.2779  0.1739
 9503TIP3    H149924   2.284   6.033  14.755 -1.4067  0.1131 -0.0167
 9503TIP3    H249925   2.241   6.155  14.676 -0.4307 -0.9978 -2.3486
 9504TIP3   OH249926   1.378   0.093  15.424 -0.0055  0.1319 -0.4782
 9504TIP3    H149927   1.467   0.076  15.453 -0.7336 -1.1928  1.1589
 9504TIP3    H249928   1.371   0.189  15.424  1.2217  0.2422 -0.0141
 9505TIP3   OH249929   1.037   2.259  16.816 -0.2662 -0.3255 -0.3212
 9505TIP3    H149930   1.092   2.324  16.774  0.9293  0.1473  1.8536
 9505TIP3    H249931   0.999   2.304  16.891 -0.1417 -1.8518  0.7007
 9506TIP3   OH249932   5.196   1.131   1.326 -0.2257 -0.3603 -0.6521
 9506TIP3    H149933   5.280   1.166   1.295  0.6134  1.4428  3.1305
 9506TIP3    H249934   5.132   1.199   1.305 -0.1453 -0.2593 -0.5652
 9507TIP3   OH249935   6.747   6.698   2.547 -0.1215  0.0407  0.5929
 9507TIP3    H149936   6.710   6.669   2.464  2.1384 -0.1477 -0.4214
 9507TIP3    H249937   6.830   6.652   2.554  0.1803  0.7719  2.5135
 9508TIP3   OH249938   4.347   3.843  11.907 -0.2116  0.8105 -0.0870
 9508TIP3    H149939   4.357   3.824  12.001  0.5256  3.0005  0.3383
 9508TIP3    H249940   4.411   3.787  11.865  0.8589  1.2198  0.9336
 9509TIP3   OH249941   1.904   0.484  13.405  0.0719 -0.5372  0.0956
 9509TIP3    H149942   1.910   0.436  13.322 -0.8678 -1.7505  0.6975
 9509TIP3    H249943   1.994   0.489  13.436  0.2285 -1.7548 -0.0890
 9510TIP3   OH249944   5.891   4.185   4.162  1.0606 -0.6000 -0.0227
 9510TIP3    H149945   5.951   4.254   4.189  1.0906 -0.6599  0.0640
 9510TIP3    H249946   5.917   4.109   4.213  1.2003 -0.7490 -0.3100
 9511TIP3   OH249947   0.032   5.642  11.395 -0.0494  0.2511  0.4722
 9511TIP3    H149948  -0.038   5.695  11.355  0.5647  0.2780 -0.6178
 9511TIP3    H249949   0.030   5.665  11.488 -3.0627 -1.5215  0.9643
 9512TIP3   OH249950   6.117   5.630  15.150 -0.0520 -0.3960 -0.1638
 9512TIP3    H149951   6.096   5.559  15.090 -1.0003  0.2852 -0.6629
 9512TIP3    H249952   6.201   5.605  15.189  1.1252 -0.3694 -2.5185
 9513TIP3   OH249953   6.237   3.376  11.671 -0.4057 -0.3515 -0.0416
 9513TIP3    H149954   6.148   3.370  11.705 -0.9442 -0.9654 -1.4689
 9513TIP3    H249955   6.236   3.454  11.615 -0.5283 -1.2689 -1.3474
 9514TIP3   OH249956   5.942   3.362  15.508  0.1390  0.3634 -0.0870
 9514TIP3    H149957   5.903   3.431  15.560  0.3629  0.2527  0.2311
 9514TIP3    H249958   5.903   3.281  15.541  2.6855 -0.0593  2.2277
 9515TIP3   OH249959   2.949   1.222  10.822  0.0900  0.2195  0.4038
 9515TIP3    H149960   2.867   1.172  10.819 -0.1281  0.6170 -0.3596
 9515TIP3    H249961   2.996   1.196  10.743  0.6234  0.1340  0.7425
 9516TIP3   OH249962   0.413   0.290   0.889 -0.9385  0.4706  0.0611
 9516TIP3    H149963   0.460   0.290   0.973 -0.6553 -1.1734 -0.0484
 9516TIP3    H249964   0.479   0.264   0.825 -1.4161  0.5931 -0.4893
 9517TIP3   OH249965   0.096   5.997   2.314 -0.2821  0.2874  0.1195
 9517TIP3    H149966   0.134   6.070   2.363 -1.6479  0.6005  0.7838
 9517TIP3    H249967   0.156   5.924   2.329 -0.2869  0.5638  1.7171
 9518TIP3   OH249968   6.055   1.141  12.819  0.3816 -0.1663  0.6667
 9518TIP3    H149969   5.996   1.098  12.880  0.4097  0.8084  1.4070
 9518TIP3    H249970   6.027   1.111  12.733 -1.3778  0.4780  0.9804
 9519TIP3   OH249971   2.780   1.395  11.928 -0.3000  0.0468 -0.1217
 9519TIP3    H149972   2.709   1.332  11.937 -0.6304  0.0434 -2.2292
 9519TIP3    H249973   2.771   1.428  11.838  1.1773  1.4901  0.2215
 9520TIP3   OH249974   4.227   1.058   3.683  0.0262  0.8143  0.5957
 9520TIP3    H149975   4.194   1.019   3.764 -1.4296 -0.3579 -0.4964
 9520TIP3    H249976   4.283   0.990   3.645 -1.3882  0.2454 -0.6136
 9521TIP3   OH249977   0.025   2.153   4.372  0.0681 -0.3989 -0.4186
 9521TIP3    H149978   0.030   2.058   4.369 -0.2860 -0.3906 -1.9963
 9521TIP3    H249979  -0.068   2.173   4.371  0.1171 -0.0268 -2.8470
 9522TIP3   OH249980   5.952   3.605   1.856  0.2947  0.1496  0.0112
 9522TIP3    H149981   5.974   3.525   1.810 -0.2150 -0.0364  0.0828
 9522TIP3    H249982   5.990   3.675   1.803  0.7990 -0.1373 -0.0136
 9523TIP3   OH249983   6.501   2.021   0.416  0.2724  0.0167  0.1747
 9523TIP3    H149984   6.529   2.074   0.342  1.5267  0.2913  0.8225
 9523TIP3    H249985   6.546   2.059   0.492 -0.7315 -0.4521  1.0327
 9524TIP3   OH249986   2.840   0.048  14.196  0.3425 -0.3899  0.0694
 9524TIP3    H149987   2.896  -0.025  14.172  0.4966 -1.0962  2.2726
 9524TIP3    H249988   2.756   0.007  14.218 -0.5258  0.4619 -1.5108
 9525TIP3   OH249989   2.214   3.656   5.440  0.0074  0.3038  0.6433
 9525TIP3    H149990   2.135   3.650   5.494  0.2011 -0.5344  0.8509
 9525TIP3    H249991   2.216   3.747   5.411 -1.5446  0.1178 -0.1510
 9526TIP3   OH249992   2.866   4.743  16.578 -0.6343  0.3103  0.3241
 9526TIP3    H149993   2.833   4.667  16.625  1.2221 -0.7071  0.0631
 9526TIP3    H249994   2.858   4.720  16.485  0.0096  0.3716  0.2444
 9527TIP3   OH249995   3.222   5.039   0.036  0.1641 -0.1109  0.0929
 9527TIP3    H149996   3.146   5.094   0.055  0.6674  0.1642  1.4848
 9527TIP3    H249997   3.266   5.030   0.121  1.2640 -0.8934 -0.5370
 9528TIP3   OH249998   0.038   0.672  13.088 -0.0974  0.4241 -0.1902
 9528TIP3    H149999   0.050   0.659  12.994 -1.5149 -1.3906 -0.1661
 9528TIP3    H250000   0.117   0.634  13.128 -1.8511 -4.1699 -0.4482
 9529TIP3   OH250001   0.477   2.920   1.057  0.0255  0.1455 -0.4011
 9529TIP3    H150002   0.464   2.830   1.028 -1.7876  0.5533 -0.9884
 9529TIP3    H250003   0.398   2.966   1.028  1.0176  1.9792 -0.3241
 9530TIP3   OH250004   3.793   4.642   3.857  0.2197  0.2700 -0.0361
 9530TIP3    H150005   3.735   4.718   3.849  1.0494  0.7215 -3.3348
 9530TIP3    H250006   3.818   4.622   3.767 -0.6237 -4.5189  0.5566
 9531TIP3   OH250007   5.040   2.482   3.350  0.4581  0.2196 -0.1028
 9531TIP3    H150008   5.123   2.434   3.346  0.0389 -0.7259  1.4582
 9531TIP3    H250009   5.051   2.542   3.424  0.1282  0.8551 -0.5642
 9532TIP3   OH250010   0.323   5.288   6.630 -0.6556 -0.0104  0.2710
 9532TIP3    H150011   0.384   5.250   6.693  0.9148 -0.0764 -1.2113
 9532TIP3    H250012   0.243   5.304   6.680 -0.0882 -1.7319  1.8300
 9533TIP3   OH250013   5.142   1.409  16.743  0.3279  0.2175  0.3834
 9533TIP3    H150014   5.088   1.439  16.815  1.7434  1.7185  0.8986
 9533TIP3    H250015   5.208   1.352  16.784  0.1074 -0.3118  0.0093
 9534TIP3   OH250016   1.646   4.015   2.162 -0.1479  0.3305  0.0062
 9534TIP3    H150017   1.663   3.943   2.223 -1.4527  1.8127  2.2564
 9534TIP3    H250018   1.640   3.972   2.076 -3.0966 -2.6763  1.4600
 9535TIP3   OH250019   1.646   6.669   5.871  0.2546  0.2002 -0.4300
 9535TIP3    H150020   1.649   6.576   5.893  0.2511  0.1307 -0.7178
 9535TIP3    H250021   1.600   6.672   5.787  3.5855  0.0789 -2.4576
 9536TIP3   OH250022   0.906   3.635  15.764  0.3061 -0.3764  0.2060
 9536TIP3    H150023   0.903   3.547  15.800  0.9514  0.6523  3.0599
 9536TIP3    H250024   0.846   3.633  15.690  0.7643 -3.3242 -0.1885
 9537TIP3   OH250025   5.520   5.225   5.594 -0.1503 -0.0278  0.2364
 9537TIP3    H150026   5.508   5.131   5.609  3.2128 -0.7618 -0.7095
 9537TIP3    H250027   5.473   5.242   5.513 -2.0370 -0.5021  1.1769
 9538TIP3   OH250028   2.673   4.122  16.202 -0.7978 -0.3956  0.5086
 9538TIP3    H150029   2.759   4.081  16.203 -0.7916 -0.3813  0.5755
 9538TIP3    H250030   2.666   4.161  16.115 -0.6786 -0.2759  0.5523
 9539TIP3   OH250031   4.457   1.317  10.756 -0.1266  0.3652 -0.1790
 9539TIP3    H150032   4.415   1.233  10.773  1.0070 -0.5421 -1.5380
 9539TIP3    H250033   4.447   1.329  10.661  0.9758  1.0374 -0.2240
 9540TIP3   OH250034   6.199   0.933   5.778  0.3202  0.6179  0.0368
 9540TIP3    H150035   6.205   1.025   5.801 -0.4967  0.3884  1.2651
 9540TIP3    H250036   6.239   0.887   5.851 -0.5427 -0.0528  0.1090
 9541TIP3   OH250037   5.203   3.443  16.193 -0.1965  0.4244 -0.0986
 9541TIP3    H150038   5.179   3.351  16.183 -0.6907  0.4562  0.7341
 9541TIP3    H250039   5.123   3.491  16.173 -1.0646  0.5192  3.1111
 9542TIP3   OH250040   6.214   5.845   0.514 -0.5667 -0.0344 -0.1910
 9542TIP3    H150041   6.232   5.939   0.511 -0.9329  0.1363  1.7089
 9542TIP3    H250042   6.250   5.811   0.433 -0.1436  1.7018 -0.7719
 9543TIP3   OH250043   2.891   0.475   6.406 -0.5205 -0.3182  0.1733
 9543TIP3    H150044   2.955   0.547   6.409 -1.1527  0.2183  1.1748
 9543TIP3    H250045   2.815   0.509   6.452 -2.4818 -0.0740 -2.9338
 9544TIP3   OH250046   5.978   5.565  13.329 -0.0050 -0.0033 -0.0815
 9544TIP3    H150047   6.025   5.529  13.254  1.2156  0.5067  0.4172
 9544TIP3    H250048   6.042   5.619  13.374 -0.3375 -1.2829  2.0432
 9545TIP3   OH250049   4.345   1.292  11.209  0.0445 -0.2423 -0.3180
 9545TIP3    H150050   4.293   1.340  11.144 -0.5122  0.6543  0.7575
 9545TIP3    H250051   4.364   1.209  11.167 -2.2174 -0.5948 -0.8005
 9546TIP3   OH250052   1.193   5.656   3.088  0.2023  0.0058 -0.3497
 9546TIP3    H150053   1.181   5.624   2.999  0.0314 -0.3028 -0.2184
 9546TIP3    H250054   1.155   5.743   3.088  0.4502  0.1161 -0.6497
 9547TIP3   OH250055   3.620   0.442   3.103  0.3475  0.8021 -0.1862
 9547TIP3    H150056   3.630   0.357   3.061 -1.8093  0.8715 -0.9450
 9547TIP3    H250057   3.706   0.483   3.094  1.4288 -1.2352  0.1717
 9548TIP3   OH250058   6.603   1.966   3.907  0.2401 -0.5712 -0.3757
 9548TIP3    H150059   6.574   2.049   3.870  1.7155 -0.3336 -1.0846
 9548TIP3    H250060   6.579   1.900   3.842 -0.1869 -0.5968 -0.1940
 9549TIP3   OH250061   1.348   2.015  15.783 -0.2033 -0.4257 -0.3788
 9549TIP3    H150062   1.333   1.934  15.832  2.6782 -1.5206 -1.1006
 9549TIP3    H250063   1.285   2.011  15.710 -0.5737 -1.6782 -0.0215
 9550TIP3   OH250064   6.573   3.310   5.507  0.0343 -0.6659  0.2740
 9550TIP3    H150065   6.536   3.253   5.440  0.4636 -0.8171  0.1636
 9550TIP3    H250066   6.497   3.350   5.550 -0.3018  2.2925 -2.6808
 9551TIP3   OH250067   2.036   2.299   6.017  0.0236 -0.7299 -0.5969
 9551TIP3    H150068   1.997   2.211   6.024  0.2097 -0.7316  0.5386
 9551TIP3    H250069   1.963   2.358   6.037  0.3917 -0.7071  0.7476
 9552TIP3   OH250070   4.504   0.078  12.311  0.0296  0.6590  0.4866
 9552TIP3    H150071   4.486   0.152  12.254  0.5212  0.4773  0.0901
 9552TIP3    H250072   4.599   0.080  12.324  0.1339 -0.2607 -0.0371
 9553TIP3   OH250073   4.811   4.631  11.693  0.1874  0.3062  0.3152
 9553TIP3    H150074   4.865   4.650  11.770  0.3613  1.9187 -0.1526
 9553TIP3    H250075   4.741   4.697  11.697  1.1207  1.5189 -1.7340
 9554TIP3   OH250076   5.239   1.066  10.988 -0.3181  0.2957  0.1972
 9554TIP3    H150077   5.287   1.121  11.050  0.7485 -0.9227  0.4932
 9554TIP3    H250078   5.287   1.075  10.906  0.6243 -1.1095  0.5521
 9555TIP3   OH250079   0.571   1.081   4.312  0.1051 -0.2527  0.6263
 9555TIP3    H150080   0.621   1.051   4.236 -1.4859 -1.4196 -0.0428
 9555TIP3    H250081   0.618   1.047   4.387  0.5864 -0.8735  0.0580
 9556TIP3   OH250082   3.455   2.447  10.881  0.3502  0.3868  0.2295
 9556TIP3    H150083   3.532   2.501  10.865  0.9951 -0.5993 -0.0980
 9556TIP3    H250084   3.487   2.357  10.874 -0.9138 -0.0442 -0.3016
 9557TIP3   OH250085   6.332   3.106  12.726 -0.0697  0.9388  0.1619
 9557TIP3    H150086   6.275   3.078  12.654  1.5974 -0.5136 -0.6838
 9557TIP3    H250087   6.382   3.179  12.689 -0.6948  1.6070  0.6000
 9558TIP3   OH250088   6.707   0.486   0.371  0.0337 -0.2094  0.2760
 9558TIP3    H150089   6.716   0.411   0.430  1.4315 -0.0859  0.2664
 9558TIP3    H250090   6.685   0.560   0.428 -0.3980 -0.4392  0.4065
 9559TIP3   OH250091   3.193   3.862  13.542  0.3742  0.7680 -0.0445
 9559TIP3    H150092   3.283   3.893  13.547  0.8419 -0.4163 -0.7218
 9559TIP3    H250093   3.190   3.787  13.601 -0.1651  0.7842 -0.0463
 9560TIP3   OH250094   1.203   6.039   2.546 -0.1712  0.5159  0.3819
 9560TIP3    H150095   1.232   5.969   2.487 -1.3300 -0.5864  1.0643
 9560TIP3    H250096   1.181   6.112   2.488 -0.7684 -0.3534 -0.5153
 9561TIP3   OH250097   0.951   2.046  16.275 -0.0804  0.2417 -0.0702
 9561TIP3    H150098   0.908   1.970  16.316 -0.6418  0.4662 -0.2269
 9561TIP3    H250099   1.011   2.079  16.342  0.5022 -0.6088 -0.1589
 9562TIP3   OH250100   6.705   5.515   4.730  0.4186 -0.1984  0.3464
 9562TIP3    H150101   6.740   5.590   4.777 -0.4916  0.6142 -0.2170
 9562TIP3    H250102   6.732   5.530   4.639 -1.0553  0.2734 -0.0364
 9563TIP3   OH250103   3.579   6.617  14.593  0.2170 -0.6873 -0.0404
 9563TIP3    H150104   3.514   6.558  14.631 -2.3899  1.9163 -0.0203
 9563TIP3    H250105   3.599   6.679  14.664 -0.0297  0.6185 -1.0629
 9564TIP3   OH250106   3.845   2.439   4.625  0.2418  0.3480  0.5187
 9564TIP3    H150107   3.894   2.437   4.543  1.0505 -1.3287  1.0002
 9564TIP3    H250108   3.786   2.514   4.616  1.7850  1.4669 -0.7192
 9565TIP3   OH250109   5.068   3.114   3.482  0.3102  0.0189 -0.0271
 9565TIP3    H150110   4.974   3.098   3.496  0.2059  0.1839 -0.5057
 9565TIP3    H250111   5.096   3.162   3.559 -0.5840  2.2670 -1.0055
 9566TIP3   OH250112   5.256   5.146   4.905 -0.2580  0.2843 -0.7813
 9566TIP3    H150113   5.254   5.222   4.964  0.4162 -0.9203  0.8707
 9566TIP3    H250114   5.337   5.157   4.855  1.3053 -0.6669  1.3914
 9567TIP3   OH250115   4.808   2.346  13.224 -0.0551 -0.0059 -0.0940
 9567TIP3    H150116   4.891   2.391  13.210  0.9191 -1.6267  0.1655
 9567TIP3    H250117   4.757   2.365  13.146 -0.2535  2.6351  0.6070
 9568TIP3   OH250118   6.378   0.950   0.572 -0.0889  0.2413 -0.6293
 9568TIP3    H150119   6.421   0.909   0.647  1.2296  2.9059  0.2234
 9568TIP3    H250120   6.304   0.998   0.610  0.9541  2.1196 -0.8568
 9569TIP3   OH250121   5.676   0.241   1.693 -0.3049  0.3729  0.1552
 9569TIP3    H150122   5.621   0.219   1.618 -0.9457 -2.7690  1.3883
 9569TIP3    H250123   5.636   0.320   1.730 -1.4734  0.5225 -1.3573
 9570TIP3   OH250124   4.551   3.285  16.430 -0.1216  0.2916  0.2459
 9570TIP3    H150125   4.626   3.332  16.393  0.4064  0.3873  1.3808
 9570TIP3    H250126   4.481   3.295  16.365  0.7676  0.4143 -0.7163
 9571TIP3   OH250127   3.548   5.676   4.224  0.6868  0.2414  0.4555
 9571TIP3    H150128   3.607   5.736   4.178  5.2407 -3.0723  1.3493
 9571TIP3    H250129   3.576   5.681   4.316 -0.1015 -1.8529  0.8549
 9572TIP3   OH250130   2.989   0.465  11.754  0.3255  0.0771  0.0180
 9572TIP3    H150131   3.045   0.494  11.682  1.0109 -1.2345  0.0025
 9572TIP3    H250132   2.960   0.546  11.796  2.4752  0.8045  0.2220
 9573TIP3   OH250133   2.927   1.617   3.779 -0.5145  0.2286  0.0531
 9573TIP3    H150134   3.019   1.590   3.785 -0.1835  0.7347 -2.0162
 9573TIP3    H250135   2.883   1.566   3.847  1.2695 -0.1128  1.0176
 9574TIP3   OH250136   3.507   5.115  11.812 -0.1795  0.7995 -0.4079
 9574TIP3    H150137   3.534   5.053  11.879  0.7849  1.0120 -0.5834
 9574TIP3    H250138   3.589   5.154  11.781 -0.7736  2.3952 -0.0722
 9575TIP3   OH250139   4.220   0.414  11.772  0.6273  0.0380  0.4032
 9575TIP3    H150140   4.278   0.389  11.844  2.1767  0.2576 -0.7133
 9575TIP3    H250141   4.278   0.420  11.696 -1.0766 -0.8220 -1.0133
 9576TIP3   OH250142   2.995   5.762   2.867 -0.2301  0.5768 -0.5615
 9576TIP3    H150143   2.935   5.776   2.941 -2.4226 -2.2877 -1.5914
 9576TIP3    H250144   3.067   5.711   2.904 -0.6118  0.3467 -0.1197
 9577TIP3   OH250145   3.797   2.122  14.484 -0.5040 -0.7758 -0.5077
 9577TIP3    H150146   3.857   2.067  14.534 -2.1049 -1.5660  0.6504
 9577TIP3    H250147   3.825   2.112  14.393  3.7284  2.1835  0.1873
 9578TIP3   OH250148   3.797   5.785  14.627  0.0161  0.2145  0.5412
 9578TIP3    H150149   3.792   5.703  14.675 -0.7766  0.9937  1.8576
 9578TIP3    H250150   3.819   5.759  14.537  2.5306 -1.2132  1.4690
 9579TIP3   OH250151   3.300   5.606  14.921 -0.6665 -0.2138 -0.7877
 9579TIP3    H150152   3.310   5.595  14.826  0.9177 -2.7196 -0.4260
 9579TIP3    H250153   3.351   5.684  14.942 -1.0448  0.3727 -1.9845
 9580TIP3   OH250154   5.779   3.207  11.575  0.8249  0.3255 -0.0498
 9580TIP3    H150155   5.731   3.195  11.657  0.2198 -0.0020 -0.4412
 9580TIP3    H250156   5.712   3.229  11.511  1.0639 -1.0379 -0.8061
 9581TIP3   OH250157   1.656   1.445   3.180 -0.7907 -1.1366  0.9961
 9581TIP3    H150158   1.628   1.384   3.112  0.3689 -1.4154  0.7571
 9581TIP3    H250159   1.711   1.508   3.135  1.5309 -2.3658  1.9095
 9582TIP3   OH250160   4.688   1.547   0.122 -0.3512  0.1261  0.5137
 9582TIP3    H150161   4.664   1.586   0.038  1.2285  0.6710  0.2777
 9582TIP3    H250162   4.721   1.620   0.175  2.4414 -0.7318  0.1551
 9583TIP3   OH250163   3.266   4.790  12.627 -0.9673 -0.5009  0.2909
 9583TIP3    H150164   3.215   4.859  12.584 -1.7297 -1.2373 -0.0185
 9583TIP3    H250165   3.211   4.761  12.700  0.3068  0.7199  1.8180
 9584TIP3   OH250166   5.963   4.917   5.412 -0.0811 -0.3490  0.5684
 9584TIP3    H150167   5.934   4.961   5.332 -2.0897 -0.6527  1.0622
 9584TIP3    H250168   5.900   4.946   5.478  0.9620 -0.8707  1.8181
 9585TIP3   OH250169   2.546   2.990   4.219 -0.2033 -0.2018  0.0948
 9585TIP3    H150170   2.528   3.081   4.241  2.3837  0.2598  0.5517
 9585TIP3    H250171   2.511   2.979   4.131  0.7422  1.6831 -0.5611
 9586TIP3   OH250172   6.533   0.742  13.555 -0.8110  0.1314 -0.5408
 9586TIP3    H150173   6.603   0.749  13.489  0.3150  1.5821  0.7429
 9586TIP3    H250174   6.552   0.661  13.601  0.7762  1.0732  0.5518
 9587TIP3   OH250175   5.393   2.617   3.136  0.4474  0.0217  0.3957
 9587TIP3    H150176   5.483   2.592   3.112  0.3067 -0.0294 -0.0813
 9587TIP3    H250177   5.402   2.653   3.224  0.7853 -0.9258  0.7621
 9588TIP3   OH250178   6.392   3.741  15.078 -0.0135  0.5082  0.3592
 9588TIP3    H150179   6.419   3.819  15.126  0.6473 -0.1164  1.0091
 9588TIP3    H250180   6.432   3.751  14.992  1.0558  0.3216  0.8219
 9589TIP3   OH250181   5.163   3.065   4.436  0.0255  0.4936  0.1097
 9589TIP3    H150182   5.111   2.985   4.436 -0.0038  0.5122  0.5432
 9589TIP3    H250183   5.251   3.036   4.410  0.4086  0.0513  1.7883
 9590TIP3   OH250184   2.828   6.002  16.325 -0.3845  0.5571 -0.1728
 9590TIP3    H150185   2.854   5.916  16.360 -2.4021 -0.0538 -0.0646
 9590TIP3    H250186   2.824   6.058  16.402  2.2582  1.1808 -0.3936
 9591TIP3   OH250187   5.931   4.937  14.520  0.0256 -0.4465  0.0389
 9591TIP3    H150188   5.974   5.015  14.556 -1.7441  1.0188 -0.8127
 9591TIP3    H250189   5.861   4.917  14.582  0.6338 -1.5614  0.3916
 9592TIP3   OH250190   6.483   6.281   0.485  0.3850 -0.3334  0.3513
 9592TIP3    H150191   6.495   6.364   0.438  2.2868  0.1346  1.5634
 9592TIP3    H250192   6.536   6.218   0.436 -2.4141 -1.3855 -1.6176
 9593TIP3   OH250193   4.084   3.533   1.040 -0.3915  0.4410  0.0751
 9593TIP3    H150194   4.074   3.614   0.990  0.2311  0.9018  0.6708
 9593TIP3    H250195   4.051   3.554   1.128 -1.0630 -0.2260 -0.0078
 9594TIP3   OH250196   2.707   5.807  17.256 -0.4311  0.3415 -0.2217
 9594TIP3    H150197   2.791   5.785  17.216 -0.4557 -3.2673  1.2928
 9594TIP3    H250198   2.713   5.901  17.273  2.6531  0.5233 -1.5390
 9595TIP3   OH250199   2.281   0.008   4.080 -0.1488 -0.1484 -0.1716
 9595TIP3    H150200   2.242  -0.032   4.157  0.6621 -0.2031  0.2230
 9595TIP3    H250201   2.267   0.102   4.092 -0.7723 -0.2084 -0.3856
 9596TIP3   OH250202   4.853   5.282  14.384  0.3399 -0.0123 -0.5973
 9596TIP3    H150203   4.806   5.202  14.407 -0.7515  0.9551  0.7254
 9596TIP3    H250204   4.784   5.347  14.369  1.2209  1.2151  0.4758
 9597TIP3   OH250205   6.759   3.028  16.824  0.2368  0.3335 -0.5323
 9597TIP3    H150206   6.802   3.096  16.875  0.3521  0.0813 -0.2897
 9597TIP3    H250207   6.821   3.008  16.754  0.0862  0.6672 -0.7620
 9598TIP3   OH250208   4.849   5.403   0.796 -0.5911 -0.2679 -0.3761
 9598TIP3    H150209   4.892   5.408   0.711  1.0864  0.5383  0.4690
 9598TIP3    H250210   4.898   5.336   0.844  0.1965  1.1179  0.8287
 9599TIP3   OH250211   1.160   1.050  16.342 -0.4245  0.5702  0.4643
 9599TIP3    H150212   1.085   1.060  16.283  0.3009  0.0279 -0.5828
 9599TIP3    H250213   1.123   1.009  16.420 -1.4642  1.5933  0.5412
 9600TIP3   OH250214   4.460   1.816   1.848 -0.1389  0.0111 -0.5784
 9600TIP3    H150215   4.384   1.813   1.789 -3.6575  1.8797  3.3094
 9600TIP3    H250216   4.482   1.909   1.855 -0.0269 -0.1062  1.1281
 9601TIP3   OH250217   1.114   4.849   1.098 -0.1435  0.6011 -0.0630
 9601TIP3    H150218   1.137   4.803   1.179  4.3188 -0.6107 -1.7321
 9601TIP3    H250219   1.052   4.791   1.054  1.6383 -1.5327  0.0981
 9602TIP3   OH250220   4.814   5.416  11.714 -0.1125 -0.4483 -0.0050
 9602TIP3    H150221   4.895   5.439  11.669 -0.0872  0.3045  0.4076
 9602TIP3    H250222   4.815   5.469  11.794 -1.0396 -0.3927 -0.0213
 9603TIP3   OH250223   3.244   0.415   5.313 -0.0321  0.2797  0.5124
 9603TIP3    H150224   3.242   0.322   5.336  0.7492 -0.5833 -2.4981
 9603TIP3    H250225   3.333   0.443   5.334 -0.5433  0.6805  2.3331
 9604TIP3   OH250226   2.866   1.938   1.639 -0.0280  0.0629  0.1495
 9604TIP3    H150227   2.850   1.949   1.545 -0.1881  1.2995  0.3143
 9604TIP3    H250228   2.849   2.024   1.677 -0.7102 -0.6154  1.4255
 9605TIP3   OH250229   0.090   1.862   2.938  0.0111 -0.1965  0.2893
 9605TIP3    H150230   0.101   1.905   2.854 -0.3940 -1.9024 -0.6847
 9605TIP3    H250231   0.001   1.884   2.966 -0.9614 -1.9317 -1.1879
 9606TIP3   OH250232   3.154   4.442  15.719  0.7458  0.1529  0.2410
 9606TIP3    H150233   3.084   4.496  15.682  0.4928 -1.4121 -1.7534
 9606TIP3    H250234   3.228   4.454  15.659  0.0507 -3.1276 -1.5533
 9607TIP3   OH250235   0.262   6.292   1.375 -0.4217 -0.1277 -0.1886
 9607TIP3    H150236   0.336   6.332   1.330 -0.6866 -2.5752 -3.1239
 9607TIP3    H250237   0.295   6.273   1.462  1.5476  1.1072 -0.5869
 9608TIP3   OH250238   3.945   5.595   1.447  0.4490 -0.4392 -0.4256
 9608TIP3    H150239   3.930   5.586   1.353 -0.8904 -0.1874 -0.2547
 9608TIP3    H250240   3.904   5.678   1.470  3.6303  1.2394 -0.1652
 9609TIP3   OH250241   0.667   0.574   5.343  0.4649 -0.4153  0.2889
 9609TIP3    H150242   0.651   0.598   5.434  1.0810  2.3534 -0.2284
 9609TIP3    H250243   0.760   0.552   5.340  0.1465 -1.9000  0.5444
 9610TIP3   OH250244   5.098   5.580  14.732  0.2245  0.4352  0.4829
 9610TIP3    H150245   5.010   5.597  14.700 -0.0168 -0.7884  0.4276
 9610TIP3    H250246   5.099   5.614  14.821  0.1351  1.6699  0.0271
 9611TIP3   OH250247   3.494   1.754   2.272  0.2420 -0.4770  0.3758
 9611TIP3    H150248   3.574   1.782   2.226  0.0951  0.6303  0.7510
 9611TIP3    H250249   3.520   1.675   2.319  0.6124 -1.1673 -0.9398
 9612TIP3   OH250250   5.011   1.690  13.318 -0.6726  0.1442  0.7378
 9612TIP3    H150251   5.013   1.723  13.228  1.1817  0.6263  0.9270
 9612TIP3    H250252   5.102   1.690  13.347 -1.2125 -0.0156  2.6235
 9613TIP3   OH250253   1.846   6.407   4.995  0.1472 -0.0453 -0.0836
 9613TIP3    H150254   1.898   6.341   4.949  0.0367  0.6777 -1.2800
 9613TIP3    H250255   1.910   6.472   5.023 -0.0094  0.4904 -0.9390
 9614TIP3   OH250256   3.284   3.625   0.214  0.2678  0.2315  0.1621
 9614TIP3    H150257   3.255   3.571   0.288  1.8615  0.3101  0.8785
 9614TIP3    H250258   3.221   3.606   0.145 -0.5320 -0.8101  1.1276
 9615TIP3   OH250259   0.906   5.929   3.728 -0.0415  0.1666 -0.4252
 9615TIP3    H150260   0.959   5.947   3.650  0.0832  0.5659 -0.2503
 9615TIP3    H250261   0.937   5.844   3.759  0.2034  0.2056 -0.5621
 9616TIP3   OH250262   0.879   3.088  11.956 -0.1106 -0.1151  0.3433
 9616TIP3    H150263   0.807   3.069  12.016  0.1040 -0.1795  0.5855
 9616TIP3    H250264   0.944   3.133  12.011 -0.0813  0.1830  0.0654
 9617TIP3   OH250265   4.222   6.606  11.786 -0.2767 -0.6579 -0.2330
 9617TIP3    H150266   4.144   6.610  11.729  1.2067  1.8268 -2.3214
 9617TIP3    H250267   4.211   6.678  11.847  0.4366 -0.1504 -0.6838
 9618TIP3   OH250268   4.893   1.187  15.474  0.5625  0.0863 -0.0524
 9618TIP3    H150269   4.873   1.278  15.494 -1.3198  0.2130 -2.0728
 9618TIP3    H250270   4.874   1.178  15.381  1.1371 -2.2773 -0.0163
 9619TIP3   OH250271   3.316   3.752   2.854  0.2627 -0.1497  0.2232
 9619TIP3    H150272   3.269   3.835   2.840 -2.3350 -0.8205  3.7281
 9619TIP3    H250273   3.374   3.769   2.928 -0.0598 -1.3618  0.7699
 9620TIP3   OH250274   1.396   5.593  15.099 -0.1760 -0.1697  0.8230
 9620TIP3    H150275   1.387   5.686  15.080  1.7665 -0.0241  0.3894
 9620TIP3    H250276   1.327   5.551  15.048 -1.2625  1.0394  1.2560
 9621TIP3   OH250277   3.798   1.178   4.269 -0.3012 -0.8255  0.1161
 9621TIP3    H150278   3.802   1.132   4.185  2.4240 -1.5411  0.5412
 9621TIP3    H250279   3.848   1.259   4.255 -2.1625  0.4466  0.3476
 9622TIP3   OH250280   6.664   6.722   2.787 -0.2091  0.7250 -0.3372
 9622TIP3    H150281   6.659   6.626   2.793 -1.2138  0.7317 -0.9628
 9622TIP3    H250282   6.686   6.740   2.696  2.9521  1.0307  0.3773
 9623TIP3   OH250283   2.596   0.073  15.508 -0.2353 -0.1814 -0.6088
 9623TIP3    H150284   2.628  -0.013  15.536 -1.7983 -0.5914 -0.0180
 9623TIP3    H250285   2.530   0.097  15.573 -0.1757  1.2684 -1.0382
 9624TIP3   OH250286   2.320   6.387   5.223 -0.5344 -0.2780  0.1113
 9624TIP3    H150287   2.372   6.458   5.260 -0.5691  0.4646 -1.2031
 9624TIP3    H250288   2.374   6.354   5.150 -1.4078 -0.2321 -0.5715
 9625TIP3   OH250289   5.460   1.488  13.870  0.5463 -0.2588  0.2121
 9625TIP3    H150290   5.524   1.524  13.931  1.5482 -1.8364  0.1455
 9625TIP3    H250291   5.512   1.444  13.803 -0.5974 -1.5127  0.1067
 9626TIP3   OH250292   5.844   5.193  13.887  0.0842  0.8911 -0.3493
 9626TIP3    H150293   5.868   5.112  13.842  1.7827  0.0789  1.8189
 9626TIP3    H250294   5.921   5.249  13.879 -0.0545  1.2074  0.4380
 9627TIP3   OH250295   0.676   1.739  17.072  0.2592  0.2961 -0.1775
 9627TIP3    H150296   0.653   1.716  17.162 -0.1606  3.5636  0.6710
 9627TIP3    H250297   0.607   1.700  17.019 -0.3168 -0.4355  1.0431
 9628TIP3   OH250298   3.335   5.941   6.837 -0.0359  0.5265  0.0407
 9628TIP3    H150299   3.292   5.858   6.857 -0.3431  0.8576  0.7813
 9628TIP3    H250300   3.427   5.918   6.825  0.1306  0.2614  1.5979
 9629TIP3   OH250301   0.366   3.265   0.018  0.1845 -0.2579 -0.1722
 9629TIP3    H150302   0.445   3.310  -0.009 -1.0052  1.1198 -1.5402
 9629TIP3    H250303   0.331   3.227  -0.063 -1.2425  0.3213  0.1426
 9630TIP3   OH250304   4.023   5.914   3.869  0.2529  0.4083 -0.4317
 9630TIP3    H150305   4.069   5.954   3.943 -1.5662  0.6495  0.6232
 9630TIP3    H250306   4.026   5.820   3.887  1.2380  0.3398 -0.9247
 9631TIP3   OH250307   0.583   0.112   2.812  0.4004 -0.0918 -0.3733
 9631TIP3    H150308   0.553   0.111   2.721 -0.8860  1.3031 -0.0173
 9631TIP3    H250309   0.532   0.182   2.853  0.5351 -1.0526  1.5682
 9632TIP3   OH250310   2.383   4.499   2.139  0.1243  0.7144 -0.2720
 9632TIP3    H150311   2.472   4.509   2.106  0.3564 -1.8362 -0.5588
 9632TIP3    H250312   2.394   4.466   2.228 -0.5141 -0.7381 -0.7142
 9633TIP3   OH250313   3.045   0.572  12.368 -0.5033  0.8839 -0.4832
 9633TIP3    H150314   3.049   0.479  12.392  0.0314  1.5537  2.5254
 9633TIP3    H250315   3.136   0.598  12.359 -0.4190  1.7414  1.9870
 9634TIP3   OH250316   0.163   0.231   5.852 -0.4542 -0.1177 -0.3609
 9634TIP3    H150317   0.100   0.168   5.818  0.0330 -1.4059  0.9850
 9634TIP3    H250318   0.248   0.188   5.844 -0.0003  0.7154 -0.1998
 9635TIP3   OH250319   0.989   3.459   0.776  0.5838 -0.6174 -0.2287
 9635TIP3    H150320   1.065   3.403   0.764 -0.5204 -1.8274 -2.2335
 9635TIP3    H250321   0.952   3.467   0.688 -1.0058  0.8006  0.5169
 9636TIP3   OH250322   4.811   1.975  11.924 -0.8618 -0.5930  0.0915
 9636TIP3    H150323   4.743   2.043  11.921 -0.4105 -0.1542 -1.4283
 9636TIP3    H250324   4.892   2.024  11.938 -0.7525 -1.0288  1.0230
 9637TIP3   OH250325   5.804   1.227   4.159 -0.1781  0.2550 -0.4807
 9637TIP3    H150326   5.833   1.218   4.250 -0.2443  0.6543 -0.4174
 9637TIP3    H250327   5.802   1.137   4.125 -1.1239 -0.0064  0.2131
 9638TIP3   OH250328   0.531   5.673   1.750  0.1339 -0.1934 -0.1523
 9638TIP3    H150329   0.478   5.625   1.687 -1.6904 -1.7066  2.3098
 9638TIP3    H250330   0.599   5.610   1.777 -0.0193 -0.1159  0.4379
 9639TIP3   OH250331   6.338   3.206  16.828  0.9519 -0.4800  0.5948
 9639TIP3    H150332   6.373   3.129  16.872  1.5509 -1.2284 -1.1258
 9639TIP3    H250333   6.399   3.224  16.757 -0.3444  0.2413 -0.3931
 9640TIP3   OH250334   5.171   0.169  17.066 -0.3026  0.4764  0.0324
 9640TIP3    H150335   5.103   0.109  17.038 -0.2298  0.4749 -0.1414
 9640TIP3    H250336   5.171   0.238  17.000 -0.4406  0.7095  0.2719
 9641TIP3   OH250337   3.696   0.514   6.388  0.2711  0.3234  0.2923
 9641TIP3    H150338   3.601   0.525   6.382  0.0467 -1.2761  0.5046
 9641TIP3    H250339   3.730   0.559   6.311 -0.8706 -1.1124 -1.1313
 9642TIP3   OH250340   0.699   0.140  16.698 -0.5885  0.6197  0.4008
 9642TIP3    H150341   0.699   0.124  16.603 -0.3029  1.5714  0.2321
 9642TIP3    H250342   0.631   0.206  16.711 -2.4278 -1.2968  1.2134
 9643TIP3   OH250343   3.444   3.475   4.909  0.7877  0.0296 -0.1342
 9643TIP3    H150344   3.534   3.505   4.925  0.7128  0.0016  0.3367
 9643TIP3    H250345   3.412   3.534   4.840  1.8732 -1.3022 -1.8809
 9644TIP3   OH250346   5.617   2.850  11.603 -0.2272 -0.3080 -0.3509
 9644TIP3    H150347   5.608   2.942  11.626  2.6483 -0.4255  1.7676
 9644TIP3    H250348   5.651   2.852  11.513  0.6371  0.7826 -0.0317
 9645TIP3   OH250349   6.753   3.010  16.209 -0.4923  0.0193 -0.5932
 9645TIP3    H150350   6.811   2.993  16.135 -0.7892 -0.3541 -0.7473
 9645TIP3    H250351   6.806   3.060  16.271  0.0242 -0.4202 -0.6754
 9646TIP3   OH250352   3.261   2.025   5.026  0.0825 -0.2429  0.2590
 9646TIP3    H150353   3.266   2.110   4.980 -0.2938  0.1193  0.8697
 9646TIP3    H250354   3.347   1.985   5.012  0.3537  0.3547  0.1713
 9647TIP3   OH250355   5.054   2.827   1.261 -0.4563  0.1472 -0.0302
 9647TIP3    H150356   5.081   2.865   1.178 -0.6699 -0.0365 -0.1823
 9647TIP3    H250357   4.966   2.794   1.246  0.0514 -1.2000 -0.1548
 9648TIP3   OH250358   1.098   3.503  16.205 -0.0011  0.0485  0.6948
 9648TIP3    H150359   1.129   3.588  16.236  1.5964  0.2373 -1.1989
 9648TIP3    H250360   1.170   3.443  16.226 -0.3031 -0.4493  0.3234
 9649TIP3   OH250361   5.254   2.607   5.399  0.0748 -0.2300 -0.6191
 9649TIP3    H150362   5.218   2.674   5.456  2.5696  1.0181 -0.3959
 9649TIP3    H250363   5.187   2.594   5.332 -0.6935  2.1427 -0.3851
 9650TIP3   OH250364   4.929   1.263  17.021 -0.1832 -0.2064 -0.0131
 9650TIP3    H150365   4.883   1.283  16.939 -0.9673 -0.2651  0.4096
 9650TIP3    H250366   4.965   1.175  17.007  1.0419  0.3921 -0.8786
 9651TIP3   OH250367   0.257   1.062  11.988 -0.2044 -0.3641 -0.6097
 9651TIP3    H150368   0.182   1.083  11.932  0.4244  0.2911 -1.2408
 9651TIP3    H250369   0.332   1.098  11.941  0.7866 -2.7186 -0.9960
 9652TIP3   OH250370   6.507   2.551   0.930  0.1099  0.1447 -0.3725
 9652TIP3    H150371   6.530   2.554   0.837  0.2258  0.7269 -0.3302
 9652TIP3    H250372   6.436   2.614   0.939  1.2014  1.3400  0.2231
 9653TIP3   OH250373   6.487   1.211   2.704  0.1297  0.0049  0.4992
 9653TIP3    H150374   6.507   1.294   2.747 -1.4537  0.0661  1.2086
 9653TIP3    H250375   6.421   1.233   2.639  0.7368 -0.4887 -0.2980
 9654TIP3   OH250376   0.322   2.202  15.938 -0.5268 -0.0892  0.1468
 9654TIP3    H150377   0.269   2.138  15.986  0.3403  0.5366  2.0102
 9654TIP3    H250378   0.386   2.233  16.002  0.2907  1.2449 -1.2676
 9655TIP3   OH250379   2.290   1.003   6.371  0.3999 -0.0267 -0.3163
 9655TIP3    H150380   2.320   0.913   6.384  0.3207 -0.0333 -0.1888
 9655TIP3    H250381   2.368   1.049   6.340  0.4538 -0.1261 -0.3308
 9656TIP3   OH250382   6.286   4.562  15.964 -0.1290  0.6291 -0.0831
 9656TIP3    H150383   6.289   4.652  15.931 -0.1069  0.0731 -1.6984
 9656TIP3    H250384   6.342   4.563  16.041 -0.1509  2.0038 -0.0589
 9657TIP3   OH250385   3.737   2.539  13.436  0.2005 -0.4481  0.0674
 9657TIP3    H150386   3.784   2.561  13.355  1.7686 -1.2244  0.7392
 9657TIP3    H250387   3.765   2.605  13.499  0.4904 -0.9908  0.5132
 9658TIP3   OH250388   2.141   4.094   2.828 -0.4649  0.3263 -0.0596
 9658TIP3    H150389   2.059   4.048   2.814 -1.3417  1.5276  0.9061
 9658TIP3    H250390   2.115   4.182   2.855  1.0837  0.2111  2.0864
 9659TIP3   OH250391   3.662   4.401   3.969  0.3931  0.1474  0.4356
 9659TIP3    H150392   3.728   4.455   3.926  1.3102 -2.2449 -1.3718
 9659TIP3    H250393   3.585   4.458   3.975  0.8494  1.2745 -2.6361
 9660TIP3   OH250394   1.910   4.939  15.647  0.3461  0.2058 -0.0471
 9660TIP3    H150395   1.833   4.977  15.689 -0.8722 -0.3922 -1.6249
 9660TIP3    H250396   1.892   4.845  15.643  2.0168 -0.1986  1.2111
 9661TIP3   OH250397   4.671   5.564  12.971  0.5168 -0.7201 -0.2019
 9661TIP3    H150398   4.753   5.581  12.925  1.1911  0.5700  1.3574
 9661TIP3    H250399   4.690   5.488  13.026  0.6209 -0.5218  0.0375
 9662TIP3   OH250400   2.574   2.790   5.517 -0.3408 -0.0880  0.3632
 9662TIP3    H150401   2.549   2.725   5.452  2.2614 -0.3984 -0.4190
 9662TIP3    H250402   2.636   2.847   5.472 -1.1537  1.8721  1.5795
 9663TIP3   OH250403   4.227   1.793   1.658 -0.1896 -0.5486  0.1634
 9663TIP3    H150404   4.182   1.728   1.605 -1.9280  1.0557 -0.4604
 9663TIP3    H250405   4.308   1.813   1.610 -0.4613 -1.0298 -0.5002
 9664TIP3   OH250406   3.168   6.406  16.595  0.1614  0.2845 -0.2173
 9664TIP3    H150407   3.186   6.444  16.681 -0.2282 -0.3469  0.1464
 9664TIP3    H250408   3.083   6.363  16.605  1.5599 -2.6246  0.0451
 9665TIP3   OH250409   0.801   0.246  12.492  0.0182  0.0087 -0.3816
 9665TIP3    H150410   0.854   0.321  12.465 -0.5415  0.6482  0.2497
 9665TIP3    H250411   0.743   0.281  12.560  0.0339 -1.0920  0.2298
 9666TIP3   OH250412   1.427   1.720   5.126 -0.2375 -0.1027 -0.1872
 9666TIP3    H150413   1.452   1.627   5.130  1.2406  0.1509 -1.9493
 9666TIP3    H250414   1.482   1.756   5.056 -3.0163  1.3927 -1.7587
 9667TIP3   OH250415   3.150   2.285   3.111  0.4566 -0.3485 -0.4342
 9667TIP3    H150416   3.159   2.250   3.200  1.1907 -1.3133 -0.8595
 9667TIP3    H250417   3.056   2.284   3.094  0.0151  2.2583  1.2253
 9668TIP3   OH250418   0.658   5.488  10.904 -0.3974 -0.1708  0.0481
 9668TIP3    H150419   0.743   5.456  10.936 -0.5656 -1.1299 -0.4209
 9668TIP3    H250420   0.663   5.583  10.915  1.2989 -0.0515 -1.2863
 9669TIP3   OH250421   0.451   1.153   0.491  0.0383  0.3990 -0.5515
 9669TIP3    H150422   0.413   1.194   0.568 -0.9865  0.1007 -0.8881
 9669TIP3    H250423   0.376   1.133   0.435  0.6834 -0.2773 -1.1905
 9670TIP3   OH250424   3.374   0.076  14.676 -0.6160  0.1319 -0.8653
 9670TIP3    H150425   3.316   0.008  14.712 -0.4723  0.5423  0.1609
 9670TIP3    H250426   3.316   0.132  14.624 -1.2112  0.6734  0.3443
 9671TIP3   OH250427   1.527   0.889   5.420 -0.3168 -0.6393  0.0663
 9671TIP3    H150428   1.598   0.881   5.483 -0.8584  1.1532  0.9709
 9671TIP3    H250429   1.495   0.978   5.430 -2.0669 -1.0836 -1.0004
 9672TIP3   OH250430   1.587   1.384   5.885  0.0468  0.5421  0.0213
 9672TIP3    H150431   1.645   1.456   5.913 -0.6051  0.4183  1.8598
 9672TIP3    H250432   1.593   1.320   5.956 -0.5633 -0.5343 -0.8737
 9673TIP3   OH250433   4.171   5.555   3.520 -0.2746 -0.4068 -0.2676
 9673TIP3    H150434   4.132   5.501   3.588 -0.4650  1.5671  1.2639
 9673TIP3    H250435   4.096   5.589   3.470 -0.1133 -2.9589 -2.5164
 9674TIP3   OH250436   1.596   2.244  14.616  0.2333 -0.7265  0.0289
 9674TIP3    H150437   1.531   2.178  14.642 -0.6442 -0.5421 -1.5608
 9674TIP3    H250438   1.619   2.289  14.697 -0.5704 -1.7378  0.8399
 9675TIP3   OH250439   0.608   4.822   0.088  0.7830  0.1830 -0.0574
 9675TIP3    H150440   0.682   4.813   0.027 -0.4798  0.9337 -1.7846
 9675TIP3    H250441   0.594   4.734   0.122 -0.4732 -1.0335 -3.3610
 9676TIP3   OH250442   2.303   1.264  13.492  0.1226  0.6875 -0.3414
 9676TIP3    H150443   2.334   1.324  13.424 -2.1775  2.4466  0.0274
 9676TIP3    H250444   2.356   1.284  13.568  0.7021  0.8301 -0.7733
 9677TIP3   OH250445   4.033   0.520  15.695 -0.1219 -0.3332  0.1522
 9677TIP3    H150446   4.065   0.500  15.607  0.7786 -0.3874  0.4773
 9677TIP3    H250447   4.025   0.615  15.697 -0.0866 -0.3276  0.0263
 9678TIP3   OH250448   3.954   1.878   2.106  0.5217  0.5214  0.2624
 9678TIP3    H150449   4.012   1.948   2.135  0.0033  1.2336 -0.3961
 9678TIP3    H250450   3.976   1.864   2.014  2.1612 -1.7393  0.9108
 9679TIP3   OH250451   2.382   4.770  11.793 -0.8681 -0.7636 -0.1191
 9679TIP3    H150452   2.410   4.787  11.883 -0.1439 -1.3881 -0.2189
 9679TIP3    H250453   2.298   4.724  11.802 -1.9528  1.1729  0.1757
 9680TIP3   OH250454   1.235   2.193  11.611 -0.0054 -0.3796 -0.2479
 9680TIP3    H150455   1.243   2.144  11.693  1.4057 -0.1809 -0.2350
 9680TIP3    H250456   1.187   2.134  11.553  0.7488 -1.3739  0.0954
 9681TIP3   OH250457   2.061   6.080   2.958  0.0786 -0.0766 -0.2473
 9681TIP3    H150458   2.108   6.160   2.979 -2.0440  1.7617 -1.9069
 9681TIP3    H250459   1.977   6.110   2.922 -0.2890 -2.9913 -2.2504
 9682TIP3   OH250460   1.015   3.997  11.659  0.2098  0.1635  0.6118
 9682TIP3    H150461   0.978   4.078  11.696 -1.8870 -0.8412  0.8929
 9682TIP3    H250462   1.085   3.973  11.719 -1.9441 -0.4656  3.0935
 9683TIP3   OH250463   3.269   6.242  12.531 -0.0827 -0.4828 -0.6577
 9683TIP3    H150464   3.259   6.309  12.598  1.8760  0.0524 -0.8406
 9683TIP3    H250465   3.188   6.190  12.536  0.1114 -0.6565  2.2932
 9684TIP3   OH250466   1.849   0.760  11.820  0.1299  0.0787  0.0625
 9684TIP3    H150467   1.847   0.665  11.833 -0.8278  0.0981  0.0670
 9684TIP3    H250468   1.856   0.771  11.725 -1.3560  0.0059 -0.0717
 9685TIP3   OH250469   1.586   4.849  12.805  0.2993 -0.5979  0.3589
 9685TIP3    H150470   1.536   4.770  12.828 -1.0763 -0.1386 -0.9034
 9685TIP3    H250471   1.643   4.821  12.734  1.6695 -1.0351  1.5720
 9686TIP3   OH250472   2.651   0.763   0.365  0.0726  0.0120 -0.3080
 9686TIP3    H150473   2.557   0.760   0.385 -0.0610 -0.1589 -0.9227
 9686TIP3    H250474   2.665   0.685   0.310  0.9831 -1.1140  1.4317
 9687TIP3   OH250475   6.587   3.371   4.727 -0.6562 -0.3494 -0.2646
 9687TIP3    H150476   6.566   3.297   4.669  2.1016 -1.8875  0.4961
 9687TIP3    H250477   6.611   3.442   4.668 -0.7610 -0.9265 -1.0137
 9688TIP3   OH250478   2.715   0.636  13.444 -0.4394  0.1892  0.1348
 9688TIP3    H150479   2.770   0.575  13.493  2.7163  2.2180 -0.5762
 9688TIP3    H250480   2.643   0.657  13.504  0.0243 -1.8871  1.5166
 9689TIP3   OH250481   5.378   0.934  12.146  0.0478 -0.6584 -0.7435
 9689TIP3    H150482   5.438   0.948  12.219 -1.0373 -0.6589  0.1875
 9689TIP3    H250483   5.430   0.889  12.080  0.9742 -0.9780  0.1821
 9690TIP3   OH250484   5.510   6.360   4.948 -0.0911  0.6602  0.9254
 9690TIP3    H150485   5.428   6.409   4.958 -0.8939 -0.6455  0.9391
 9690TIP3    H250486   5.502   6.287   5.009  0.1212 -0.7259 -0.6237
 9691TIP3   OH250487   2.447   3.974  11.371  0.1052 -0.2159  0.3037
 9691TIP3    H150488   2.368   4.000  11.325 -0.4912 -0.0489  1.3856
 9691TIP3    H250489   2.429   3.886  11.403  0.9001 -0.7309 -0.6283
 9692TIP3   OH250490   6.155   4.132  15.505 -0.0471  0.0131  0.3898
 9692TIP3    H150491   6.202   4.049  15.497 -1.4888 -0.7337 -0.9363
 9692TIP3    H250492   6.095   4.133  15.430  0.8662  2.8903 -0.4335
 9693TIP3   OH250493   0.763   4.047  15.820 -0.3978 -0.2739  0.1882
 9693TIP3    H150494   0.802   4.075  15.737  0.6923 -0.4826  0.6129
 9693TIP3    H250495   0.776   4.122  15.879 -2.0940  0.2848 -0.0812
 9694TIP3   OH250496   1.328   4.289   4.999 -0.1007  0.1664  0.0368
 9694TIP3    H150497   1.397   4.288   5.066 -0.3300  1.2168  0.3108
 9694TIP3    H250498   1.254   4.245   5.040  0.7027 -1.9114 -0.6271
 9695TIP3   OH250499   2.131   2.629   3.089 -0.0084 -0.4991 -0.3987
 9695TIP3    H150500   2.192   2.574   3.040  0.6832  0.7927 -1.0357
 9695TIP3    H250501   2.071   2.567   3.130  0.3944 -1.6989 -1.5385
 9696TIP3   OH250502   5.628   1.244   3.538  0.0335  0.0156  0.2666
 9696TIP3    H150503   5.650   1.286   3.621 -0.2531  1.3105 -0.2883
 9696TIP3    H250504   5.656   1.306   3.471 -4.3106  1.5148 -0.5353
 9697TIP3   OH250505   0.644   0.933  14.102 -0.1620  0.0838 -0.0726
 9697TIP3    H150506   0.643   0.853  14.154  0.4232 -0.7480 -1.2980
 9697TIP3    H250507   0.624   1.003  14.165 -2.7229 -1.1799  0.6685
 9698TIP3   OH250508   0.382   4.093   0.435  1.2175 -0.4520  0.4331
 9698TIP3    H150509   0.349   4.181   0.414  1.0410  0.3510  3.5691
 9698TIP3    H250510   0.303   4.041   0.452  1.3055 -1.3835 -1.6825
 9699TIP3   OH250511   3.156   3.686   3.105  0.2641 -0.0835  0.4466
 9699TIP3    H150512   3.145   3.592   3.090 -2.2010  0.1429  0.2891
 9699TIP3    H250513   3.137   3.726   3.021  0.9630  0.5730  0.5977
 9700TIP3   OH250514   4.143   1.876   5.105 -0.2082 -0.6807 -0.1014
 9700TIP3    H150515   4.083   1.875   5.180  0.6784 -0.8045  0.6196
 9700TIP3    H250516   4.149   1.785   5.078 -1.8997 -0.4344 -1.4687
 9701TIP3   OH250517   0.783   6.725   1.716 -0.4709  0.3293  0.5406
 9701TIP3    H150518   0.839   6.703   1.790  3.2799  0.2921 -2.0430
 9701TIP3    H250519   0.797   6.819   1.701 -1.8253  0.5271  0.2884
 9702TIP3   OH250520   3.520   0.976   0.484  0.3557 -0.3078  0.2497
 9702TIP3    H150521   3.444   1.012   0.438 -0.3526 -2.4965 -0.4305
 9702TIP3    H250522   3.482   0.923   0.554  0.9390 -3.9127 -1.8827
 9703TIP3   OH250523   2.133   1.345   5.172 -0.3216  0.0379 -0.2251
 9703TIP3    H150524   2.075   1.421   5.183 -0.0557  0.2656 -0.3780
 9703TIP3    H250525   2.112   1.289   5.247 -0.8180  0.0615 -0.3404
 9704TIP3   OH250526   0.022   6.043   6.351 -0.4154  0.2479  0.5301
 9704TIP3    H150527   0.107   6.085   6.360  0.6208 -2.0985  2.9167
 9704TIP3    H250528  -0.012   6.036   6.440 -1.7261 -1.5090 -0.0293
 9705TIP3   OH250529   4.533   4.605   3.430  0.1459 -0.1773 -0.4051
 9705TIP3    H150530   4.456   4.555   3.404  0.9840 -1.4968 -0.4365
 9705TIP3    H250531   4.545   4.585   3.523  0.1918  0.3983 -0.2796
 9706TIP3   OH250532   1.008   3.102  17.111  0.3435 -0.5863 -0.4528
 9706TIP3    H150533   0.974   3.165  17.047 -1.8680  0.6838  1.8100
 9706TIP3    H250534   1.101   3.126  17.121  0.3674  0.1202 -2.0656
 9707TIP3   OH250535   3.774   0.467  12.855 -0.0012 -0.3979  0.9158
 9707TIP3    H150536   3.843   0.521  12.818 -0.1280 -0.3701  0.7213
 9707TIP3    H250537   3.819   0.412  12.920  0.4060 -1.1660  0.0072
 9708TIP3   OH250538   5.092   2.396  11.324 -0.1990 -0.1206 -0.3574
 9708TIP3    H150539   5.128   2.376  11.411  1.1982  1.1708 -0.5996
 9708TIP3    H250540   5.167   2.391  11.265 -0.8495  0.4614 -1.2667
 9709TIP3   OH250541   6.503   6.415   3.018 -0.9214 -0.0662  0.1595
 9709TIP3    H150542   6.508   6.365   3.100 -0.8439 -0.2140  0.0653
 9709TIP3    H250543   6.525   6.352   2.950  3.9004  1.0782  0.3320
 9710TIP3   OH250544   0.740   2.734  16.609 -0.3021 -0.0089 -0.2400
 9710TIP3    H150545   0.777   2.646  16.595  0.0441 -0.2579  1.9138
 9710TIP3    H250546   0.648   2.719  16.628 -0.0062 -0.0712  1.3092
 9711TIP3   OH250547   1.921   0.107   0.676  0.2343  0.2154 -0.1133
 9711TIP3    H150548   1.865   0.078   0.748  0.7495 -0.2204  0.1167
 9711TIP3    H250549   2.001   0.137   0.719 -0.3766  2.2759 -0.3137
 9712TIP3   OH250550   2.439   5.081   4.181  0.7550  0.2339 -0.2062
 9712TIP3    H150551   2.352   5.061   4.146 -0.8368  0.8856  3.0214
 9712TIP3    H250552   2.462   5.003   4.232  1.0793  0.8890  0.6647
 9713TIP3   OH250553   5.001   1.323   1.256  0.1968 -0.7923  0.0485
 9713TIP3    H150554   4.937   1.271   1.208  0.9610 -0.8070 -0.9920
 9713TIP3    H250555   5.008   1.405   1.206  1.7301 -1.2059 -0.4723
 9714TIP3   OH250556   6.408   1.863  15.860 -0.4258 -0.0610 -0.3787
 9714TIP3    H150557   6.388   1.859  15.954 -2.5107 -1.1445 -0.8248
 9714TIP3    H250558   6.448   1.950  15.849 -0.2943  0.1692  1.4604
 9715TIP3   OH250559   2.503   5.051  14.595 -0.0888  0.2579  0.1634
 9715TIP3    H150560   2.487   5.099  14.514  0.0655  0.8375  0.4715
 9715TIP3    H250561   2.581   5.091  14.632 -2.0276  2.3744  2.3195
 9716TIP3   OH250562   5.906   2.460  11.765  0.1140 -0.0498  0.6683
 9716TIP3    H150563   5.943   2.429  11.682 -1.8817  2.0996 -1.1675
 9716TIP3    H250564   5.981   2.496  11.813  1.4117 -1.9146  0.1603
 9717TIP3   OH250565   1.087   1.136   3.568  0.3674  0.1640  0.4997
 9717TIP3    H150566   1.059   1.157   3.479 -0.3427  1.0990  0.9255
 9717TIP3    H250567   1.005   1.125   3.617  0.7517 -0.8643  0.9225
 9718TIP3   OH250568   5.223   2.886  15.058  0.1513 -0.3694 -0.2024
 9718TIP3    H150569   5.267   2.811  15.097  1.2900 -0.0812 -0.8850
 9718TIP3    H250570   5.164   2.918  15.126  1.5099 -0.3477  1.0093
 9719TIP3   OH250571   2.767   5.338   2.977  0.8239  0.0430 -0.5293
 9719TIP3    H150572   2.783   5.377   3.063 -3.3019  1.4946 -0.2184
 9719TIP3    H250573   2.771   5.412   2.916 -1.9505  0.1543 -0.6751
 9720TIP3   OH250574   2.985   1.998  15.618 -0.2092  0.6694 -0.4807
 9720TIP3    H150575   3.020   2.057  15.685  2.1556 -1.1432  0.0284
 9720TIP3    H250576   2.891   2.014  15.619 -0.0388  2.0786  1.9031
 9721TIP3   OH250577   4.839   5.344  15.776 -0.2548  0.0230  0.4916
 9721TIP3    H150578   4.894   5.352  15.854 -0.7881  2.1938  0.7268
 9721TIP3    H250579   4.750   5.333  15.811 -0.2107 -1.7650  0.1277
 9722TIP3   OH250580   2.290   6.096   2.757 -0.7649  0.2643  0.4757
 9722TIP3    H150581   2.199   6.113   2.782 -0.6461  1.1038  0.3678
 9722TIP3    H250582   2.295   6.001   2.749 -1.7398  0.2313  0.0755
 9723TIP3   OH250583   3.707   3.752   0.657  0.2328  0.0885 -0.3710
 9723TIP3    H150584   3.711   3.724   0.749 -2.9356  1.9355  0.5215
 9723TIP3    H250585   3.760   3.832   0.654  1.3113 -0.6197 -0.4767
 9724TIP3   OH250586   5.092   5.951   5.334 -0.2660  0.0541 -0.5955
 9724TIP3    H150587   5.081   6.046   5.337  3.5353  0.5944  0.6005
 9724TIP3    H250588   5.117   5.932   5.244  0.4324  0.3945 -0.4735
 9725TIP3   OH250589   1.788   6.063   6.524  0.3479  0.1543  0.5179
 9725TIP3    H150590   1.817   5.979   6.560 -0.1562 -0.1240  0.2917
 9725TIP3    H250591   1.704   6.080   6.568 -1.0606 -0.9424 -1.5589
 9726TIP3   OH250592   5.493   4.570   1.418 -0.0792 -0.0577 -0.0980
 9726TIP3    H150593   5.504   4.625   1.341  1.9573 -1.3700 -0.8060
 9726TIP3    H250594   5.477   4.632   1.490 -1.1188  1.2258 -1.3845
 9727TIP3   OH250595   5.659   6.709  12.810  0.4077 -0.2690 -0.3069
 9727TIP3    H150596   5.651   6.760  12.729  1.7667 -0.7783 -0.7772
 9727TIP3    H250597   5.660   6.618  12.782  1.3595 -0.4389  0.2318
 9728TIP3   OH250598   0.540   3.836   1.592  0.2901  0.0448 -0.2523
 9728TIP3    H150599   0.489   3.907   1.553 -0.2366 -0.9277 -1.4066
 9728TIP3    H250600   0.474   3.781   1.636  0.4178 -0.7772 -1.0540
 9729TIP3   OH250601   3.996   3.921  11.022 -0.3736  0.0920 -0.6372
 9729TIP3    H150602   4.004   3.964  10.937 -0.6115 -1.0071 -1.2307
 9729TIP3    H250603   3.902   3.918  11.038 -0.4090 -0.9359 -0.9918
 9730TIP3   OH250604   1.528   1.112  13.715  0.2946  0.0339 -0.3032
 9730TIP3    H150605   1.438   1.122  13.748 -0.0487 -0.9597 -0.9051
 9730TIP3    H250606   1.540   1.018  13.706  1.2759  0.1788 -0.5725
 9731TIP3   OH250607   0.728   4.688  12.597  0.0640 -0.0102 -0.6553
 9731TIP3    H150608   0.634   4.692  12.613  0.0661 -0.7714 -0.3904
 9731TIP3    H250609   0.743   4.599  12.564  0.7290 -0.0002 -0.3983
 9732TIP3   OH250610   2.418   0.747  11.989 -0.2718  0.5644  0.1492
 9732TIP3    H150611   2.388   0.806  11.920 -0.7002  0.1576 -0.0197
 9732TIP3    H250612   2.458   0.674  11.943  0.9470  1.0607  0.3724
 9733TIP3   OH250613   4.580   3.902  17.061 -0.0970 -0.3991 -0.7833
 9733TIP3    H150614   4.568   3.915  17.155  1.9644  1.5556 -0.7190
 9733TIP3    H250615   4.638   3.973  17.033 -0.1843 -1.2410 -3.4466
 9734TIP3   OH250616   6.002   3.769   4.982  1.0355 -0.0841 -0.1342
 9734TIP3    H150617   5.948   3.733   5.052  1.1387  0.8675  0.4633
 9734TIP3    H250618   5.977   3.862   4.978  1.1409 -0.0894 -1.2629
 9735TIP3   OH250619   0.118   4.793  14.635  0.1634  0.3152  0.3712
 9735TIP3    H150620   0.194   4.751  14.595 -0.2125 -0.2290  0.2287
 9735TIP3    H250621   0.086   4.729  14.699  0.2601  0.8396  0.9622
 9736TIP3   OH250622   3.350   6.286  16.979 -0.1199 -0.1666 -0.0163
 9736TIP3    H150623   3.352   6.192  16.962  0.0220  0.0394 -1.2167
 9736TIP3    H250624   3.438   6.317  16.955 -0.1388  0.2601  0.4475
 9737TIP3   OH250625   3.972   5.348  12.541  0.1306 -0.5168  0.0640
 9737TIP3    H150626   3.991   5.371  12.632  1.1505 -1.2108  0.0427
 9737TIP3    H250627   3.962   5.253  12.542 -0.9906 -0.4216 -0.3710
 9738TIP3   OH250628   0.583   2.837  15.653 -0.0176  0.6533 -0.0868
 9738TIP3    H150629   0.584   2.752  15.697  0.9081  1.8102  2.3217
 9738TIP3    H250630   0.531   2.823  15.574 -0.5447 -1.9389  0.6321
 9739TIP3   OH250631   2.188   1.099  12.321  0.0653  0.0590  0.4244
 9739TIP3    H150632   2.198   1.012  12.281 -1.4102  0.3521 -0.6759
 9739TIP3    H250633   2.164   1.081  12.412 -0.5634 -0.7093  0.1243
 9740TIP3   OH250634   2.973   0.583  16.048  0.2376 -0.4486 -0.0184
 9740TIP3    H150635   3.029   0.568  15.973  1.0064  1.8263  0.0165
 9740TIP3    H250636   3.024   0.554  16.123  0.9850  0.6458 -0.0820
 9741TIP3   OH250637   3.924   4.729   2.514 -0.3260  0.1013 -1.1189
 9741TIP3    H150638   3.943   4.789   2.586  2.7181  2.3007 -3.5374
 9741TIP3    H250639   3.975   4.651   2.534 -0.8222  0.0098 -0.1280
 9742TIP3   OH250640   4.760   2.827   0.568  0.3036 -0.1783 -0.0862
 9742TIP3    H150641   4.837   2.845   0.621 -0.0090 -0.3200  0.4260
 9742TIP3    H250642   4.702   2.901   0.584  0.1283 -0.3175 -0.0745
 9743TIP3   OH250643   2.108   6.558   3.535 -0.3294 -0.2279  0.0892
 9743TIP3    H150644   2.114   6.508   3.454  1.1381 -1.9606  1.1754
 9743TIP3    H250645   2.197   6.590   3.550  0.3223 -2.7881  2.6133
 9744TIP3   OH250646   6.098   3.253   5.862 -0.0076  0.0224 -0.2551
 9744TIP3    H150647   6.117   3.230   5.771 -1.1476  0.2819 -0.5761
 9744TIP3    H250648   6.039   3.183   5.892  0.2098  0.0430  0.2272
 9745TIP3   OH250649   1.366   0.284   1.387 -0.7396  0.6236  0.4508
 9745TIP3    H150650   1.411   0.277   1.303 -0.0816 -0.3248  0.8643
 9745TIP3    H250651   1.436   0.294   1.452 -1.1675  0.2515  0.9878
 9746TIP3   OH250652   2.248   5.057   1.716 -0.5393 -0.1531  0.3301
 9746TIP3    H150653   2.210   5.094   1.796 -0.2683  1.0510 -0.0790
 9746TIP3    H250654   2.337   5.032   1.741 -0.2294  0.8398  0.2450
 9747TIP3   OH250655   0.459   2.009  15.145  0.0987  0.3385 -0.2220
 9747TIP3    H150656   0.459   1.984  15.237  1.6800 -1.8093 -0.7189
 9747TIP3    H250657   0.538   2.061  15.134 -0.3529  1.0210 -0.2798
 9748TIP3   OH250658   3.809   3.932   1.841  0.9967 -0.4644 -0.6666
 9748TIP3    H150659   3.809   3.869   1.914  1.3540 -0.7826 -0.9364
 9748TIP3    H250660   3.865   4.003   1.872  0.3488 -0.1320 -0.2405
 9749TIP3   OH250661   2.747   4.569   2.196  0.0399  0.0946  0.1262
 9749TIP3    H150662   2.791   4.495   2.154  0.7281  0.7131 -0.2587
 9749TIP3    H250663   2.818   4.627   2.223 -0.5612  1.8152 -1.7992
 9750TIP3   OH250664   2.252   3.052   1.278  0.3912 -0.2841  0.5465
 9750TIP3    H150665   2.328   3.110   1.282  0.3118 -0.2702  2.3036
 9750TIP3    H250666   2.282   2.978   1.225  1.6138 -0.2413  1.1507
 9751TIP3   OH250667   5.769   0.249  13.053 -0.0331  0.1543  0.6750
 9751TIP3    H150668   5.824   0.171  13.060  1.1660  0.9855  0.9914
 9751TIP3    H250669   5.788   0.284  12.966 -0.5722  0.0973  0.5301
 9752TIP3   OH250670   5.122   5.671   4.220  0.1625 -0.4817 -0.0006
 9752TIP3    H150671   5.068   5.722   4.280 -0.1058 -1.5000  0.6421
 9752TIP3    H250672   5.066   5.599   4.191 -0.0405  0.4865 -2.2371
 9753TIP3   OH250673   6.620   2.156  14.058 -0.0893  0.1647  0.0843
 9753TIP3    H150674   6.635   2.063  14.039 -0.8539 -0.0223  0.3486
 9753TIP3    H250675   6.581   2.157  14.145  0.5599  0.7963  0.3788
 9754TIP3   OH250676   4.075   4.901  16.009 -0.2500  0.2810 -0.4644
 9754TIP3    H150677   4.148   4.872  15.955  0.7991 -1.5768  1.7783
 9754TIP3    H250678   4.093   4.994  16.025 -0.3510  0.7612 -2.7876
 9755TIP3   OH250679   6.183   4.836  14.287 -0.0785 -0.5361  0.6619
 9755TIP3    H150680   6.098   4.814  14.248  0.9144 -0.8040 -1.4761
 9755TIP3    H250681   6.207   4.758  14.337 -1.2319 -0.3113  1.6284
 9756TIP3   OH250682   6.718   5.572   0.769  0.6893 -0.2376  0.1117
 9756TIP3    H150683   6.667   5.497   0.799 -1.3313  1.3900  1.0580
 9756TIP3    H250684   6.684   5.591   0.682 -0.8343  1.1636  0.9446
 9757TIP3   OH250685   6.536   6.708   3.728 -0.1554 -0.0361  0.2036
 9757TIP3    H150686   6.610   6.766   3.708 -0.3057  1.0917  2.6309
 9757TIP3    H250687   6.577   6.622   3.743  0.7831  0.6768  2.0132
 9758TIP3   OH250688   6.658   6.745  14.229 -0.1644 -0.0704 -0.0490
 9758TIP3    H150689   6.730   6.707  14.280 -0.5427  0.5965  1.0236
 9758TIP3    H250690   6.646   6.832  14.266  0.5806  1.0991 -2.3343
 9759TIP3   OH250691   3.040   5.169  17.045 -0.0862  0.3419 -0.0328
 9759TIP3    H150692   3.090   5.120  17.110 -0.8682 -0.8477 -0.2812
 9759TIP3    H250693   3.016   5.251  17.090  0.9364  0.3535  0.5229
 9760TIP3   OH250694   2.042   0.154   0.963  0.0695  0.5377 -0.5514
 9760TIP3    H150695   2.020   0.239   0.925  0.8655  0.9536 -0.0958
 9760TIP3    H250696   2.129   0.135   0.928 -0.9104 -1.0781 -2.3214
 9761TIP3   OH250697   6.519   3.286  12.257  0.0304  0.2238  0.3959
 9761TIP3    H150698   6.582   3.280  12.186 -0.8340 -2.0807 -0.2584
 9761TIP3    H250699   6.436   3.306  12.214 -0.1635  0.7398  0.9878
 9762TIP3   OH250700   3.471   6.182   5.441  0.2499 -1.3141  0.6014
 9762TIP3    H150701   3.502   6.237   5.513 -1.5635  1.8552 -0.8137
 9762TIP3    H250702   3.376   6.177   5.454  0.0051 -1.5119 -0.9808
 9763TIP3   OH250703   4.347   0.583   1.219 -0.1575 -0.0945 -0.1416
 9763TIP3    H150704   4.366   0.654   1.157 -2.7579  0.9319  0.1139
 9763TIP3    H250705   4.373   0.618   1.304 -0.7049  0.2622 -0.1167
 9764TIP3   OH250706   0.007   2.687   1.052  0.6345  0.6312  0.0084
 9764TIP3    H150707   0.031   2.594   1.053  0.7116  0.6472  1.8456
 9764TIP3    H250708  -0.087   2.687   1.033  0.7707  0.2306 -0.7055
 9765TIP3   OH250709   2.028   3.747  11.997 -0.2065  0.1157 -0.4720
 9765TIP3    H150710   2.101   3.724  11.941 -0.1341 -0.0832 -0.2980
 9765TIP3    H250711   1.971   3.671  11.995  0.2951 -0.3080  0.5300
 9766TIP3   OH250712   1.005   3.418   5.101  0.3734  0.0061  0.7691
 9766TIP3    H150713   0.943   3.390   5.035 -2.4476  0.6793  2.9458
 9766TIP3    H250714   0.970   3.502   5.133  3.6613  1.6180  0.6098
 9767TIP3   OH250715   3.100   3.457  14.951 -0.6966  0.2375 -0.3728
 9767TIP3    H150716   3.093   3.362  14.962 -0.7374  0.0227 -1.9834
 9767TIP3    H250717   3.027   3.480  14.893 -0.6594  1.2545 -0.0387
 9768TIP3   OH250718   0.617   0.768   5.097  0.3181 -0.3194  0.5842
 9768TIP3    H150719   0.655   0.727   5.174 -1.2184  0.0886  1.6159
 9768TIP3    H250720   0.548   0.826   5.132  0.2224  0.6110 -1.0287
 9769TIP3   OH250721   2.540   4.712   5.801  0.1370 -0.0066 -0.0093
 9769TIP3    H150722   2.588   4.792   5.824  0.1145 -0.2921  1.0813
 9769TIP3    H250723   2.520   4.671   5.885 -0.6063 -0.7238 -0.5210
 9770TIP3   OH250724   1.044   5.654  13.801 -0.2091 -0.5229 -0.3532
 9770TIP3    H150725   1.060   5.599  13.724 -0.3766 -1.4962  0.2981
 9770TIP3    H250726   1.033   5.593  13.873  0.7268  0.3977  0.6121
 9771TIP3   OH250727   3.679   1.252   0.272 -0.2599 -0.1357  0.8445
 9771TIP3    H150728   3.592   1.269   0.235 -0.5367 -1.7443  0.6800
 9771TIP3    H250729   3.662   1.190   0.343  0.8289 -1.0023  0.3603
 9772TIP3   OH250730   2.556   3.238  17.174 -0.2058 -0.1304  0.1809
 9772TIP3    H150731   2.527   3.328  17.160 -0.7587 -0.3964 -0.4786
 9772TIP3    H250732   2.568   3.202  17.086  1.0146 -0.3949  0.4405
 9773TIP3   OH250733   6.514   2.487   1.211 -0.0155  0.5687 -0.5419
 9773TIP3    H150734   6.608   2.471   1.214 -0.1162  0.0378  0.0913
 9773TIP3    H250735   6.493   2.487   1.118  0.5509  0.2785 -0.6755
 9774TIP3   OH250736   5.257   2.330  16.073  0.1578 -0.1223 -0.1675
 9774TIP3    H150737   5.229   2.419  16.050 -0.5420  0.1378  1.5157
 9774TIP3    H250738   5.353   2.333  16.068  0.1750  0.8954  0.3370
 9775TIP3   OH250739   5.516   2.608  14.577  0.0262 -0.8724 -0.2269
 9775TIP3    H150740   5.447   2.666  14.610  1.3331 -0.3435  1.7459
 9775TIP3    H250741   5.468   2.535  14.537 -1.6583  1.0976 -2.0562
 9776TIP3   OH250742   5.448   6.570  11.292 -0.4019 -0.5249 -0.2020
 9776TIP3    H150743   5.508   6.569  11.366  0.5191 -0.3649 -0.9321
 9776TIP3    H250744   5.451   6.660  11.259 -0.2699 -0.7623 -0.8546
 9777TIP3   OH250745   5.016   4.148  16.916 -0.1312  0.3431  0.0716
 9777TIP3    H150746   4.949   4.090  16.879  0.9376 -2.4381  2.2099
 9777TIP3    H250747   5.036   4.209  16.845 -3.2575 -0.1410 -1.4004
 9778TIP3   OH250748   0.458   2.725   2.930  0.6438  0.0526  0.1651
 9778TIP3    H150749   0.409   2.738   3.012 -0.4532  1.3776 -0.6340
 9778TIP3    H250750   0.394   2.687   2.870  1.1629 -0.0483 -0.3311
 9779TIP3   OH250751   5.039   3.772   5.215 -0.5927  0.3231 -0.0012
 9779TIP3    H150752   4.979   3.845   5.198  0.3625  1.2569  0.4999
 9779TIP3    H250753   5.122   3.800   5.176  0.3586  0.4528  1.9859
 9780TIP3   OH250754   5.350   0.933   3.418  0.4129  0.3054  0.1811
 9780TIP3    H150755   5.365   0.870   3.488  2.0643  1.1274  0.6254
 9780TIP3    H250756   5.407   0.904   3.347 -2.9890 -1.9616 -1.9395
 9781TIP3   OH250757   4.378   4.502  12.697  0.2152 -0.2214  0.1806
 9781TIP3    H150758   4.289   4.480  12.723 -0.6263  0.5802 -1.8168
 9781TIP3    H250759   4.376   4.597  12.682  1.8002  0.0548  1.4860
 9782TIP3   OH250760   6.512   3.012  16.930  0.0049  0.8664  0.0318
 9782TIP3    H150761   6.537   2.947  16.995  1.3437  0.9808 -0.3367
 9782TIP3    H250762   6.585   3.013  16.868 -1.3987  0.4429 -1.7263
 9783TIP3   OH250763   4.702   3.391   3.121 -0.2397  0.2935  0.7253
 9783TIP3    H150764   4.769   3.454   3.093  1.7337 -0.6586  2.9357
 9783TIP3    H250765   4.719   3.313   3.068  0.4790  0.0348  1.3198
 9784TIP3   OH250766   3.217   3.381   4.581  0.5507  0.0049  0.5258
 9784TIP3    H150767   3.165   3.459   4.562  0.8759  0.0932 -0.0134
 9784TIP3    H250768   3.267   3.365   4.501 -0.5812 -1.6194  0.0797
 9785TIP3   OH250769   4.223   2.005   5.369 -0.2624  0.4347 -0.0194
 9785TIP3    H150770   4.294   1.984   5.308 -0.8624  0.9494 -0.9155
 9785TIP3    H250771   4.172   1.925   5.375 -0.8020  0.6801 -1.0418
 9786TIP3   OH250772   6.653   4.292  14.139  0.3856 -0.1504 -0.3627
 9786TIP3    H150773   6.683   4.227  14.202  1.3843 -1.7279 -2.3818
 9786TIP3    H250774   6.730   4.312  14.086 -0.7178  0.1006 -1.9391
 9787TIP3   OH250775   0.918   4.747  12.053  0.3911  0.0869 -0.2136
 9787TIP3    H150776   0.937   4.832  12.092 -0.1203  0.2526 -0.3139
 9787TIP3    H250777   0.867   4.767  11.974  1.1722 -0.2572 -0.8161
 9788TIP3   OH250778   0.789   6.656   4.458 -0.2846  0.0946  0.5077
 9788TIP3    H150779   0.731   6.733   4.453 -3.5221 -2.1834 -0.5116
 9788TIP3    H250780   0.824   6.647   4.369  2.1686  1.6610  1.1966
 9789TIP3   OH250781   6.404   1.966  11.324  0.4665 -0.3509  0.3163
 9789TIP3    H150782   6.318   1.942  11.358  0.3743  0.0141  0.3453
 9789TIP3    H250783   6.448   1.882  11.307 -0.5326 -0.5687 -1.3844
 9790TIP3   OH250784   4.414   5.796   1.906 -0.0324  0.0427 -0.5734
 9790TIP3    H150785   4.457   5.875   1.873  1.7140 -0.4396  0.4230
 9790TIP3    H250786   4.459   5.723   1.862 -0.8711 -0.4428 -0.6473
 9791TIP3   OH250787   2.782   2.502   0.876  0.0133  0.0539 -0.2808
 9791TIP3    H150788   2.767   2.592   0.905 -0.5102  0.3328 -1.3677
 9791TIP3    H250789   2.740   2.448   0.942 -1.9648  0.7030 -0.9453
 9792TIP3   OH250790   3.551   4.871  12.478 -0.5651  0.1310 -0.7463
 9792TIP3    H150791   3.645   4.863  12.460 -0.2337  0.2817  0.7975
 9792TIP3    H250792   3.511   4.797  12.431  0.5337 -0.9867  0.0261
 9793TIP3   OH250793   3.293   6.419  12.753  0.3055 -0.0255  0.4047
 9793TIP3    H150794   3.349   6.360  12.805 -0.5044 -2.7520 -1.5925
 9793TIP3    H250795   3.226   6.448  12.815  0.9524 -0.9108  1.5773
 9794TIP3   OH250796   4.982   6.304   5.103 -0.3064  0.8668 -0.5680
 9794TIP3    H150797   4.904   6.282   5.051 -1.1529  2.2331  0.0655
 9794TIP3    H250798   4.954   6.378   5.157  0.3924 -0.7152  2.1573
 9795TIP3   OH250799   3.323   4.277  17.166  0.4349 -0.1471  0.4288
 9795TIP3    H150800   3.247   4.254  17.112  0.9719 -1.0391  0.0246
 9795TIP3    H250801   3.373   4.196  17.172  0.6668  0.0777  1.8381
 9796TIP3   OH250802   6.391   4.884   4.911 -0.0701  0.4386 -0.7922
 9796TIP3    H150803   6.434   4.938   4.845  0.8768 -1.9628 -2.2680
 9796TIP3    H250804   6.462   4.847   4.962 -0.6215 -0.3673 -0.5938
 9797TIP3   OH250805   6.273   4.348  15.793  0.3178 -0.3609 -0.1050
 9797TIP3    H150806   6.278   4.417  15.859 -1.5576 -0.4471  0.1974
 9797TIP3    H250807   6.240   4.392  15.715 -3.3948 -1.2118  0.7929
 9798TIP3   OH250808   5.548   4.037   0.410  0.0379  0.1442  0.2806
 9798TIP3    H150809   5.571   4.123   0.377 -1.4464  0.3914 -0.1774
 9798TIP3    H250810   5.528   4.052   0.503 -1.3155  0.5260 -0.0552
 9799TIP3   OH250811   6.190   1.811   2.903 -0.3344 -0.4947  0.5279
 9799TIP3    H150812   6.103   1.847   2.887  1.0606  2.1562 -2.0715
 9799TIP3    H250813   6.225   1.864   2.975  0.4676  1.3389 -1.0851
 9800TIP3   OH250814   1.528   6.502   1.269  0.0202 -0.0271  0.2475
 9800TIP3    H150815   1.614   6.483   1.307  0.4746  0.8070 -0.3239
 9800TIP3    H250816   1.474   6.428   1.295  0.3586  0.3619  2.3053
 9801TIP3   OH250817   5.052   6.261  12.202  0.6176 -0.6319  0.5471
 9801TIP3    H150818   5.020   6.248  12.113  1.3501 -2.2590  0.4934
 9801TIP3    H250819   5.001   6.335  12.235  0.5115  0.1806 -1.2997
 9802TIP3   OH250820   2.827   1.482   3.062 -0.5829 -0.0331 -0.1343
 9802TIP3    H150821   2.770   1.431   3.005 -0.8249 -0.5304  0.5297
 9802TIP3    H250822   2.798   1.573   3.050 -1.3786 -0.2587  0.0337
 9803TIP3   OH250823   0.415   5.763  12.597  0.4630  0.0431 -0.7078
 9803TIP3    H150824   0.349   5.694  12.599  0.1911  0.3151 -0.3508
 9803TIP3    H250825   0.423   5.785  12.504  2.2486 -2.0844 -1.1350
 9804TIP3   OH250826   5.689   4.558  10.627  0.0490  0.4016 -0.0272
 9804TIP3    H150827   5.697   4.587  10.718 -0.3004  0.8687 -0.1375
 9804TIP3    H250828   5.738   4.477  10.622  2.2917  1.6750 -0.0427
 9805TIP3   OH250829   1.396   5.034  17.125  0.0651  0.1462  0.5605
 9805TIP3    H150830   1.438   4.986  17.196 -1.6073  0.6223  1.9405
 9805TIP3    H250831   1.319   4.982  17.103 -0.4969  1.0107  0.4594
 9806TIP3   OH250832   3.720   5.791   1.973  0.1493  0.4547  0.4199
 9806TIP3    H150833   3.784   5.790   2.045 -0.3778  0.9070  0.9026
 9806TIP3    H250834   3.761   5.739   1.904  1.1148  0.8614  0.6628
 9807TIP3   OH250835   4.353   0.225  13.111 -0.1961  0.1928  0.2029
 9807TIP3    H150836   4.287   0.226  13.180 -0.6878  1.3624 -0.2633
 9807TIP3    H250837   4.309   0.183  13.037 -0.0661  0.0357  0.2133
 9808TIP3   OH250838   0.886   2.459  12.065 -0.6209  0.1379  0.3540
 9808TIP3    H150839   0.972   2.437  12.100 -1.1922 -0.7024  1.2994
 9808TIP3    H250840   0.899   2.540  12.017  1.1556 -1.1297 -1.4391
 9809TIP3   OH250841   4.763   4.990   5.791  0.3203  0.1191 -0.2043
 9809TIP3    H150842   4.772   5.016   5.700  0.7611 -1.8876 -0.7955
 9809TIP3    H250843   4.806   5.059   5.841 -1.4623  2.1735 -1.3179
 9810TIP3   OH250844   4.610   5.103  13.066 -0.3353  0.1417  0.7228
 9810TIP3    H150845   4.559   5.049  13.005 -0.8356  1.8588 -0.4255
 9810TIP3    H250846   4.555   5.179  13.082  1.4345  1.5799  0.2482
 9811TIP3   OH250847   0.957   6.065   3.973 -0.3262 -0.0640 -0.1988
 9811TIP3    H150848   1.004   6.007   4.033 -2.6942 -0.5753  1.2599
 9811TIP3    H250849   0.943   6.012   3.894  0.2978 -0.3512 -0.1248
 9812TIP3   OH250850   0.048   6.723   2.989  0.6107  0.1824 -0.3750
 9812TIP3    H150851   0.003   6.713   2.905 -0.7984 -1.2794  0.5064
 9812TIP3    H250852   0.056   6.817   3.001 -1.3886  0.4800 -1.0178
 9813TIP3   OH250853   1.463   4.330  15.705  0.2754  0.6048 -0.0749
 9813TIP3    H150854   1.539   4.317  15.762  1.7771  1.3755 -1.8263
 9813TIP3    H250855   1.395   4.275  15.743  1.6807 -0.0821  1.5661
 9814TIP3   OH250856   0.785   4.552   3.145 -0.5995 -0.5227 -0.1448
 9814TIP3    H150857   0.749   4.606   3.074 -1.4619 -1.8853 -0.7819
 9814TIP3    H250858   0.736   4.470   3.140  0.1506 -1.0886  1.2897
 9815TIP3   OH250859   0.349   3.114  17.084 -0.3942  0.3191 -0.5218
 9815TIP3    H150860   0.276   3.158  17.040 -0.1582  0.3139 -0.9342
 9815TIP3    H250861   0.330   3.020  17.075 -0.9747  0.3310  0.4958
 9816TIP3   OH250862   6.633   2.758   2.673  0.3689  0.4873  0.4217
 9816TIP3    H150863   6.648   2.821   2.744 -2.6911  0.7743  0.9238
 9816TIP3    H250864   6.547   2.781   2.638 -0.1206 -2.3739 -0.5050
 9817TIP3   OH250865   6.721   4.452   2.001 -0.5182 -0.0088 -0.2085
 9817TIP3    H150866   6.670   4.430   1.924  0.7092 -0.3179 -0.9693
 9817TIP3    H250867   6.811   4.428   1.978  0.1840  1.6382  0.5912
 9818TIP3   OH250868   5.331   1.390  15.870  0.0669  0.4948 -0.1004
 9818TIP3    H150869   5.386   1.355  15.799 -0.5981 -0.9292  0.0371
 9818TIP3    H250870   5.391   1.402  15.943  0.5762  1.0148 -0.5967
 9819TIP3   OH250871   3.748   2.412   5.361 -0.2824 -0.1446  0.2013
 9819TIP3    H150872   3.720   2.326   5.394 -1.4748  0.6286  1.3033
 9819TIP3    H250873   3.691   2.428   5.286  0.1930 -0.4560 -0.2370
 9820TIP3   OH250874   0.313   6.661   2.930  0.3176  0.0011 -0.2536
 9820TIP3    H150875   0.370   6.712   2.988 -0.8693  0.7192  0.3132
 9820TIP3    H250876   0.227   6.702   2.938  0.0297 -0.1221 -2.2649
 9821TIP3   OH250877   2.137   4.016  11.271  0.0311 -0.1096 -0.4494
 9821TIP3    H150878   2.124   3.988  11.361  4.2793  3.5256  1.6932
 9821TIP3    H250879   2.071   4.084  11.257  1.1205  1.3347  1.1201
 9822TIP3   OH250880   3.775   2.556   3.142 -0.5439 -0.6873  0.0574
 9822TIP3    H150881   3.835   2.588   3.075 -0.0811 -3.4464 -0.9756
 9822TIP3    H250882   3.713   2.500   3.095 -2.8136  0.5839  1.3869
 9823TIP3   OH250883   2.930   2.606   0.354  0.1943 -0.3595  0.1200
 9823TIP3    H150884   2.862   2.628   0.291  1.0459 -0.9635 -1.0410
 9823TIP3    H250885   2.885   2.606   0.439 -1.5993 -2.1648 -0.7465
 9824TIP3   OH250886   1.212   5.152  15.979 -0.1598  0.6088  0.2042
 9824TIP3    H150887   1.171   5.198  16.051 -0.0694  0.7654  0.1561
 9824TIP3    H250888   1.225   5.219  15.911 -0.9424  0.3064 -0.2488
 9825TIP3   OH250889   0.852   3.898  10.977 -0.4117 -0.7323  0.6924
 9825TIP3    H150890   0.879   3.809  10.954 -0.8236 -0.8778  0.7504
 9825TIP3    H250891   0.783   3.919  10.913 -0.3829 -0.4921  0.7400
 9826TIP3   OH250892   0.710   3.649   0.480  0.5408  0.5272 -0.6056
 9826TIP3    H150893   0.674   3.618   0.397 -0.1298 -0.2761 -0.0327
 9826TIP3    H250894   0.634   3.659   0.538  1.1682 -1.4569  0.7020
 9827TIP3   OH250895   6.751   3.097   3.458  0.5289 -0.1392  0.2874
 9827TIP3    H150896   6.808   3.148   3.515 -0.7767 -0.5389  2.0412
 9827TIP3    H250897   6.680   3.156   3.435  0.5519 -0.2764 -0.1604
 9828TIP3   OH250898   4.956   6.192   5.348 -0.4568  0.0349 -0.2594
 9828TIP3    H150899   4.993   6.228   5.268 -0.2823 -1.6062 -0.9665
 9828TIP3    H250900   4.922   6.268   5.396 -0.5376  1.0495 -1.8593
 9829TIP3   OH250901   5.134   4.889   4.036  0.3133  0.5057  0.6952
 9829TIP3    H150902   5.087   4.971   4.050 -1.2878 -0.3187  0.4423
 9829TIP3    H250903   5.147   4.853   4.123  1.5796  1.2836  0.8586
 9830TIP3   OH250904   6.307   3.705   2.268  0.1486  0.1216  0.3913
 9830TIP3    H150905   6.287   3.781   2.322  1.4362 -0.1363  1.2761
 9830TIP3    H250906   6.337   3.639   2.330  0.5240 -0.5959 -0.5294
 9831TIP3   OH250907   0.020   5.220   1.055 -0.3706 -0.2428  0.3218
 9831TIP3    H150908   0.043   5.290   1.116 -2.0715 -1.0939  2.0477
 9831TIP3    H250909  -0.028   5.157   1.108 -1.0139 -1.5528 -1.7018
 9832TIP3   OH250910   2.654   5.740  11.226 -0.4133 -0.4649 -0.1860
 9832TIP3    H150911   2.593   5.756  11.153 -3.0740  0.2292  2.0247
 9832TIP3    H250912   2.631   5.806  11.291  1.6759 -1.2235  1.4198
 9833TIP3   OH250913   3.696   6.554  13.141  0.2564  0.3846 -0.3753
 9833TIP3    H150914   3.671   6.461  13.139  0.0417  0.4229  0.3629
 9833TIP3    H250915   3.613   6.601  13.150  0.2931  0.6955 -1.5082
 9834TIP3   OH250916   3.670   1.156  14.270  0.0125 -0.7983  0.4102
 9834TIP3    H150917   3.723   1.086  14.308  1.8331  0.0563 -0.3850
 9834TIP3    H250918   3.692   1.233  14.322  0.9023 -0.0749 -0.9525
 9835TIP3   OH250919   0.325   1.935  13.665 -0.0240  0.5852 -0.1389
 9835TIP3    H150920   0.335   1.843  13.689  0.5083  0.9822  1.2607
 9835TIP3    H250921   0.236   1.958  13.691 -0.4562  0.2719 -1.2660
 9836TIP3   OH250922   1.551   4.247   5.373  0.3591  0.2795 -0.5560
 9836TIP3    H150923   1.532   4.154   5.385 -0.2069  0.2802 -1.3662
 9836TIP3    H250924   1.578   4.277   5.460  0.1652 -0.5444 -0.1955
 9837TIP3   OH250925   2.596   6.466  16.548  0.1364 -0.9262  0.3053
 9837TIP3    H150926   2.539   6.445  16.621 -0.8381 -1.6507 -0.6477
 9837TIP3    H250927   2.539   6.505  16.482  1.4297  2.4677  0.9751
 9838TIP3   OH250928   0.113   3.880   1.018  0.1223 -0.1165  0.1609
 9838TIP3    H150929   0.136   3.961   1.064 -2.1720 -0.0350  1.2795
 9838TIP3    H250930   0.040   3.844   1.068 -2.1660 -0.3446 -3.0661
 9839TIP3   OH250931   2.746   3.549   2.870  0.0108  0.3620  0.2611
 9839TIP3    H150932   2.766   3.477   2.810  0.0345 -1.4980  2.3556
 9839TIP3    H250933   2.650   3.552   2.874 -0.0015  0.8480 -0.2393
 9840TIP3   OH250934   2.599   0.776   1.760 -0.4478 -0.1438  0.0478
 9840TIP3    H150935   2.663   0.709   1.783 -0.4586  0.0231  0.5801
 9840TIP3    H250936   2.626   0.806   1.673 -1.3415 -1.8907 -0.8732
 9841TIP3   OH250937   4.102   6.030  14.433  0.2651 -0.0787  0.2598
 9841TIP3    H150938   4.073   6.008  14.522  0.0504 -0.0903  0.1883
 9841TIP3    H250939   4.104   6.126  14.432  1.3396 -0.0893  0.6131
 9842TIP3   OH250940   5.512   1.830   6.149  0.3253  0.0355  0.1294
 9842TIP3    H150941   5.446   1.890   6.113 -0.3703 -1.7636 -1.7729
 9842TIP3    H250942   5.586   1.886   6.169 -0.3440  1.5736 -1.4456
 9843TIP3   OH250943   3.038   6.046   3.147  0.2838  0.8654  0.5660
 9843TIP3    H150944   3.026   5.952   3.160  0.4649  0.7717  0.0681
 9843TIP3    H250945   3.118   6.067   3.196  0.9141  0.5290 -0.2947
 9844TIP3   OH250946   1.916   6.138  15.078 -0.1918  0.1408 -0.2603
 9844TIP3    H150947   1.840   6.113  15.130  1.7571 -0.3200  2.6177
 9844TIP3    H250948   1.889   6.216  15.030 -2.5882 -0.3096  0.2530
 9845TIP3   OH250949   4.142   6.620   0.182 -0.0286  0.4757 -0.0008
 9845TIP3    H150950   4.083   6.569   0.238  0.1268 -0.9417 -1.0798
 9845TIP3    H250951   4.229   6.608   0.221 -0.0315  0.1074 -0.1027
 9846TIP3   OH250952   5.804   6.432  11.319  0.1437  0.0476  0.1201
 9846TIP3    H150953   5.893   6.438  11.353  0.2780  0.1802 -0.2538
 9846TIP3    H250954   5.758   6.508  11.355 -0.3684 -1.0438  1.9119
 9847TIP3   OH250955   1.181   4.598  11.324  0.1898 -0.4508 -0.0752
 9847TIP3    H150956   1.162   4.620  11.415  1.7039  1.5394 -0.1617
 9847TIP3    H250957   1.108   4.635  11.275 -0.7630 -1.7558  0.3129
 9848TIP3   OH250958   0.355   1.067   5.549  0.2840  0.0885  0.1604
 9848TIP3    H150959   0.426   1.005   5.569 -0.0250 -0.9510 -1.7393
 9848TIP3    H250960   0.396   1.153   5.558  1.1647 -0.4273  1.3130
 9849TIP3   OH250961   2.423   1.797   5.374  0.5052  0.5143  0.4847
 9849TIP3    H150962   2.496   1.854   5.352  0.3987  0.4947  0.0853
 9849TIP3    H250963   2.345   1.844   5.345  0.5028 -0.4787 -1.2350
 9850TIP3   OH250964   2.665   6.251  16.863  0.3357  0.6898 -0.2982
 9850TIP3    H150965   2.586   6.286  16.821  0.9853  0.8211 -1.4677
 9850TIP3    H250966   2.654   6.156  16.859  0.9625  0.6513 -1.9985
 9851TIP3   OH250967   2.629   4.082   2.668 -0.6246  0.1457 -0.0008
 9851TIP3    H150968   2.701   4.046   2.720 -0.4534  0.9127  0.3206
 9851TIP3    H250969   2.559   4.018   2.675 -0.0446 -0.5127 -0.1441
 9852TIP3   OH250970   1.361   1.261   1.816 -0.7111 -0.2673  0.4930
 9852TIP3    H150971   1.401   1.336   1.772  1.6750 -0.9327  1.3746
 9852TIP3    H250972   1.323   1.298   1.895  1.2267 -0.0255  1.3762
 9853TIP3   OH250973   3.692   2.182   2.066  0.5576 -0.0891  0.6881
 9853TIP3    H150974   3.722   2.254   2.011 -0.8629 -0.6658 -0.9339
 9853TIP3    H250975   3.711   2.210   2.155  1.8469  1.4029 -0.0072
 9854TIP3   OH250976   4.378   3.815   4.210  0.3470  0.2285  0.0613
 9854TIP3    H150977   4.405   3.843   4.297 -0.4595  0.0876  0.3687
 9854TIP3    H250978   4.285   3.839   4.204 -0.1390 -1.4805 -0.0073
 9855TIP3   OH250979   0.157   6.600  12.086 -0.4396 -0.0437  0.1805
 9855TIP3    H150980   0.216   6.654  12.139  0.4136 -0.4387 -0.3341
 9855TIP3    H250981   0.195   6.512  12.091  0.0410  0.0169 -1.5792
 9856TIP3   OH250982   3.176   6.108   6.683  0.5836  0.1331 -0.0353
 9856TIP3    H150983   3.187   6.179   6.746  0.5353 -1.9488  2.4611
 9856TIP3    H250984   3.232   6.038   6.716  0.5893 -1.0629 -2.3782
 9857TIP3   OH250985   5.880   0.346   0.569  0.0922  0.5328 -0.2061
 9857TIP3    H150986   5.939   0.271   0.559  0.8609  1.1182 -0.1788
 9857TIP3    H250987   5.852   0.366   0.480  1.5320  1.4820 -0.4890
 9858TIP3   OH250988   6.188   3.618   3.087 -0.0716  0.0788 -0.2717
 9858TIP3    H150989   6.269   3.655   3.122 -0.3462  1.1845 -0.7720
 9858TIP3    H250990   6.120   3.682   3.109 -1.1062 -1.5008  1.4439
 9859TIP3   OH250991   2.050   2.779   5.456 -0.2762 -0.0855  0.4251
 9859TIP3    H150992   2.109   2.756   5.384  0.5407  0.8812  0.7618
 9859TIP3    H250993   1.962   2.771   5.418  0.1493  2.1033 -1.2535
 9860TIP3   OH250994   0.626   3.284   0.313 -0.3585  0.8259  0.2262
 9860TIP3    H150995   0.605   3.372   0.345  0.0462  0.9285  0.2259
 9860TIP3    H250996   0.704   3.259   0.364  0.7524  1.2854 -1.1811
 9861TIP3   OH250997   3.499   4.296  14.963  0.3096  0.1676  0.1463
 9861TIP3    H150998   3.478   4.279  14.871 -0.3295 -0.1134  0.3337
 9861TIP3    H250999   3.413   4.303  15.006  0.6018  0.3540  0.7094
 9862TIP3   OH251000   5.908   4.626  11.698 -0.8294  0.3093  0.1793
 9862TIP3    H151001   5.883   4.561  11.632 -1.6145  0.8674 -0.0827
 9862TIP3    H251002   5.926   4.573  11.776  2.1534 -0.5811 -0.9597
 9863TIP3   OH251003   3.832   5.340   1.248  0.0787  0.2767 -0.0348
 9863TIP3    H151004   3.798   5.428   1.266 -0.5081  0.4170 -1.6815
 9863TIP3    H251005   3.864   5.345   1.158  0.3130 -1.1229 -0.0408
 9864TIP3   OH251006   2.238   4.343  15.849 -0.5808 -0.2161  0.1100
 9864TIP3    H151007   2.271   4.432  15.863  1.0750 -0.8958  0.7245
 9864TIP3    H251008   2.202   4.317  15.934 -2.1117  0.2401 -0.3597
 9865TIP3   OH251009   0.805   2.584   1.639  0.4620  0.0095 -0.2814
 9865TIP3    H151010   0.817   2.493   1.666  1.6172  0.2092 -0.0863
 9865TIP3    H251011   0.890   2.611   1.605  0.7286  1.6058  1.4895
 9866TIP3   OH251012   3.049   3.565   5.058 -0.0966 -0.1829 -0.3255
 9866TIP3    H151013   3.104   3.489   5.041  1.2741  0.7808 -0.4398
 9866TIP3    H251014   3.110   3.631   5.092 -1.9398 -0.5896  4.3944
 9867TIP3   OH251015   3.382   6.461  14.987 -0.5065  0.1613  0.1517
 9867TIP3    H151016   3.390   6.446  14.892 -1.2511 -1.4337  0.3040
 9867TIP3    H251017   3.310   6.523  14.995 -0.4417  0.3084 -0.3250
 9868TIP3   OH251018   2.597   3.623   5.127  0.1228  0.1427  0.3165
 9868TIP3    H151019   2.573   3.660   5.212 -2.5117  0.8883 -0.6488
 9868TIP3    H251020   2.572   3.531   5.132 -0.5997  0.3279  0.1616
 9869TIP3   OH251021   1.387   4.581   2.200  0.5403  0.1156  0.9848
 9869TIP3    H151022   1.335   4.642   2.253  0.7248 -0.2944  1.6495
 9869TIP3    H251023   1.454   4.636   2.160  0.7816  0.3418  1.6779
 9870TIP3   OH251024   3.902   0.689   4.771 -0.0132  0.4418  0.4620
 9870TIP3    H151025   3.946   0.664   4.689 -0.6559  0.6846  0.0407
 9870TIP3    H251026   3.971   0.733   4.822 -0.1587  2.4434 -0.9268
 9871TIP3   OH251027   0.774   0.127  13.112 -0.1996  0.6947 -0.4683
 9871TIP3    H151028   0.855   0.150  13.158 -1.6062 -1.1034  3.3482
 9871TIP3    H251029   0.707   0.183  13.152 -1.5922 -1.3005  0.1274
 9872TIP3   OH251030   5.659   5.927   5.229  0.4225  0.9449 -0.0446
 9872TIP3    H151031   5.603   5.939   5.305 -0.7047  3.0147 -1.1106
 9872TIP3    H251032   5.610   5.865   5.174  1.8223 -1.5688  1.3423
 9873TIP3   OH251033   0.083   3.051  15.489 -0.1971 -0.0812  0.5138
 9873TIP3    H151034   0.103   3.017  15.402  0.8355 -0.0653  0.7318
 9873TIP3    H251035  -0.012   3.054  15.493 -0.2502 -0.1622 -0.5828
 9874TIP3   OH251036   2.728   3.234   1.244  0.3415  0.3879  0.5033
 9874TIP3    H151037   2.657   3.232   1.308  0.6437  1.2807  0.8802
 9874TIP3    H251038   2.798   3.184   1.284 -0.7154 -2.2185 -0.7015
 9875TIP3   OH251039   6.010   5.143   4.568 -0.0158  0.0689  0.8970
 9875TIP3    H151040   5.930   5.136   4.514 -0.2083 -1.5428  1.3286
 9875TIP3    H251041   5.994   5.084   4.641  1.6485 -0.4322  0.8959
 9876TIP3   OH251042   1.805   5.367  13.915  0.1157  0.4922 -0.7117
 9876TIP3    H151043   1.789   5.345  13.824 -1.0137 -1.0734 -0.1785
 9876TIP3    H251044   1.842   5.456  13.913 -0.7047  0.8187 -2.6066
 9877TIP3   OH251045   3.149   6.663   5.402 -0.4345  0.2311 -0.5994
 9877TIP3    H151046   3.077   6.707   5.358 -0.4550 -0.6141 -1.4343
 9877TIP3    H251047   3.227   6.713   5.377 -0.7152  1.1539  0.3188
 9878TIP3   OH251048   5.937   3.457  16.495 -0.4601  0.6505 -0.1194
 9878TIP3    H151049   5.857   3.494  16.532  0.1001  0.2272  1.5879
 9878TIP3    H251050   5.971   3.526  16.438 -1.6406  1.1146 -0.2785
 9879TIP3   OH251051   4.811   1.022   3.622  0.1752  0.6467 -0.5248
 9879TIP3    H151052   4.867   1.047   3.695 -0.7001  0.4348  0.2385
 9879TIP3    H251053   4.728   0.999   3.663 -0.1039 -0.1791 -1.5256
 9880TIP3   OH251054   5.417   0.602   6.352  0.0764  0.1750  0.3661
 9880TIP3    H151055   5.354   0.673   6.336 -0.0329  0.2779  1.2278
 9880TIP3    H251056   5.385   0.559   6.431  0.7978 -0.1037  0.5105
 9881TIP3   OH251057   3.112   2.442   2.072  0.2271 -0.6168  0.0925
 9881TIP3    H151058   3.054   2.393   2.014  0.2509 -1.6965  0.9492
 9881TIP3    H251059   3.066   2.443   2.157  0.8728 -0.3548  0.4470
 9882TIP3   OH251060   6.735   0.832   1.802 -0.3631 -0.2599  0.1012
 9882TIP3    H151061   6.792   0.898   1.762 -0.0345 -0.9082 -0.5151
 9882TIP3    H251062   6.695   0.786   1.728  0.5720 -1.7552  0.4807
 9883TIP3   OH251063   4.665   1.247   3.059  0.0376 -0.2420 -0.6396
 9883TIP3    H151064   4.614   1.309   3.111 -0.9065 -2.1267  0.8174
 9883TIP3    H251065   4.738   1.299   3.024  0.4662  1.2530  2.1744
 9884TIP3   OH251066   6.745   5.160  16.493 -0.0245 -0.1319  0.2200
 9884TIP3    H151067   6.773   5.251  16.481  2.2753 -0.5584  1.6923
 9884TIP3    H251068   6.715   5.132  16.407 -2.6808  2.5340  0.1010
 9885TIP3   OH251069   5.765   1.789   2.651 -0.0257  0.4245 -0.3651
 9885TIP3    H151070   5.784   1.702   2.685 -0.0105  0.1331 -1.1096
 9885TIP3    H251071   5.851   1.832   2.645 -0.0433  0.5326  0.0920
 9886TIP3   OH251072   5.637   1.286   5.575  0.0146  0.1914 -0.3362
 9886TIP3    H151073   5.631   1.291   5.479 -0.3212 -0.7039 -0.3699
 9886TIP3    H251074   5.550   1.258   5.603  0.2253  0.0676  0.2029
 9887TIP3   OH251075   0.823   2.296   5.262  0.0678 -0.1197 -0.8214
 9887TIP3    H151076   0.740   2.255   5.285 -0.0380  1.2243  1.5073
 9887TIP3    H251077   0.886   2.223   5.259 -0.8834 -0.9529 -1.0650
 9888TIP3   OH251078   5.909   5.086  16.500 -0.5878 -0.2863  0.1438
 9888TIP3    H151079   5.837   5.065  16.560 -0.0159 -1.9837  0.2962
 9888TIP3    H251080   5.980   5.027  16.527 -0.3926 -1.3201 -2.3501
 9889TIP3   OH251081   6.674   3.558  16.101 -0.1906 -0.2205 -0.3226
 9889TIP3    H151082   6.733   3.601  16.162  0.6335  0.6882 -1.6961
 9889TIP3    H251083   6.586   3.582  16.131  0.2232  0.9729 -0.0152
 9890TIP3   OH251084   1.454   3.643  13.397  0.5660  0.0812  0.4161
 9890TIP3    H151085   1.440   3.714  13.334 -1.1635  0.3318  1.0234
 9890TIP3    H251086   1.547   3.648  13.419  0.9143  0.8495 -1.0804
 9891TIP3   OH251087   4.653   3.859  12.773 -0.0137 -0.2752 -0.1702
 9891TIP3    H151088   4.744   3.832  12.762  0.0061 -0.9516  1.3421
 9891TIP3    H251089   4.602   3.795  12.723  0.3584  0.6890 -1.8562
 9892TIP3   OH251090   4.680   5.157   2.030 -0.0561 -0.0975 -0.1321
 9892TIP3    H151091   4.632   5.234   2.000  1.9446  0.7831 -1.2307
 9892TIP3    H251092   4.739   5.189   2.097  2.1658 -0.2075 -1.9147
 9893TIP3   OH251093   1.270   3.971  11.811  0.0192  0.4871  0.5604
 9893TIP3    H151094   1.291   3.900  11.872 -0.4701  0.4110  0.6520
 9893TIP3    H251095   1.342   4.033  11.819  1.0457 -0.5562 -0.3818
 9894TIP3   OH251096   0.303   2.887  13.056 -0.3054  0.0166  0.1707
 9894TIP3    H151097   0.245   2.869  12.982 -1.1019 -2.0066  1.2078
 9894TIP3    H251098   0.248   2.931  13.121  0.2529  1.2801 -0.1718
 9895TIP3   OH251099   1.994   1.763  16.192 -0.2435  0.5731 -0.0149
 9895TIP3    H151100   2.069   1.717  16.153  0.9726  2.7482 -0.3983
 9895TIP3    H251101   2.030   1.804  16.270 -1.8233 -0.8118  1.5130
 9896TIP3   OH251102   2.081   3.563  13.956 -0.1736  0.0474  0.0752
 9896TIP3    H151103   2.070   3.602  13.869 -0.8715 -0.9090 -0.2868
 9896TIP3    H251104   1.994   3.527  13.977  0.2239 -0.5337  0.7663
 9897TIP3   OH251105   0.105   2.042   1.765 -0.5505  0.4331  0.1313
 9897TIP3    H151106   0.090   1.984   1.691 -0.2336  1.3864 -0.7136
 9897TIP3    H251107   0.197   2.069   1.755 -0.6231  0.8764  0.6429
 9898TIP3   OH251108   1.372   5.646   4.358 -0.5595  0.0622 -0.3103
 9898TIP3    H151109   1.436   5.704   4.399  1.2499 -2.1822  0.2566
 9898TIP3    H251110   1.287   5.684   4.380  0.4663  1.0285  2.3541
 9899TIP3   OH251111   3.910   3.702  16.935 -0.2431 -0.4567  0.2619
 9899TIP3    H151112   3.861   3.778  16.905  0.0418 -0.7109 -0.9034
 9899TIP3    H251113   3.864   3.627  16.896 -0.8521 -0.9346  1.8418
 9900TIP3   OH251114   3.966   4.376   4.084  0.5711 -0.2910 -0.3561
 9900TIP3    H151115   4.025   4.313   4.125 -0.3178  0.4544  2.2808
 9900TIP3    H251116   3.969   4.354   3.991  1.8849 -2.8394  0.1798
 9901TIP3   OH251117   0.863   2.818   1.837 -0.0099 -0.4451  0.3123
 9901TIP3    H151118   0.890   2.873   1.764 -1.1182 -1.0571 -0.5903
 9901TIP3    H251119   0.852   2.731   1.800 -0.2031 -0.8549  1.2893
 9902TIP3   OH251120   5.921   3.462   2.741  0.2196  0.5379 -0.2823
 9902TIP3    H151121   5.899   3.372   2.718 -0.7112  1.0544 -1.5066
 9902TIP3    H251122   5.853   3.515   2.701  0.6799  1.7954  0.5218
 9903TIP3   OH251123   0.110   6.532   5.269  0.0070 -0.0410 -1.5410
 9903TIP3    H151124   0.035   6.591   5.265 -1.6741 -1.7952  0.8969
 9903TIP3    H251125   0.166   6.570   5.337 -0.6302 -0.7330 -0.6111
 9904TIP3   OH251126   0.214   4.773   4.304 -0.0647 -0.2545  0.3199
 9904TIP3    H151127   0.224   4.756   4.397  2.3573  1.1805  0.4041
 9904TIP3    H251128   0.252   4.860   4.291 -2.2290  0.4825 -1.6988
 9905TIP3   OH251129   6.122   6.197  11.576 -0.0108  0.1627  0.4187
 9905TIP3    H151130   6.123   6.156  11.489  1.1630  0.8218  0.0988
 9905TIP3    H251131   6.142   6.289  11.559  2.4744 -0.1022  1.5538
 9906TIP3   OH251132   3.738   4.451  11.721  0.0881 -0.1649 -0.0923
 9906TIP3    H151133   3.677   4.466  11.649  0.8228 -0.8995 -0.8892
 9906TIP3    H251134   3.814   4.504  11.698  1.4549 -2.4973 -1.3352
 9907TIP3   OH251135   1.434   2.643   0.981 -0.2396  0.1433  0.2547
 9907TIP3    H151136   1.361   2.588   1.010 -0.5934 -0.2525 -1.2664
 9907TIP3    H251137   1.411   2.731   1.008 -1.9258  0.2322 -1.2423
 9908TIP3   OH251138   4.761   6.598  13.164 -0.2779  1.0568  0.7935
 9908TIP3    H151139   4.737   6.582  13.073  0.8063  2.1570  0.2931
 9908TIP3    H251140   4.692   6.655  13.198  0.3938  2.3819  0.0174
 9909TIP3   OH251141   1.198   0.107   3.014 -0.2102 -0.5585 -0.0576
 9909TIP3    H151142   1.163   0.125   3.102 -0.2927 -1.5861  0.1288
 9909TIP3    H251143   1.136   0.045   2.976  0.3861 -0.9164 -0.4507
 9910TIP3   OH251144   4.738   5.900  16.661 -0.5102 -0.7559  0.4748
 9910TIP3    H151145   4.643   5.884  16.662 -0.3674 -1.6155  1.1066
 9910TIP3    H251146   4.777   5.813  16.661  0.2918 -0.4061  1.2884
 9911TIP3   OH251147   0.364   4.970  12.861 -0.3266  0.1352  0.0016
 9911TIP3    H151148   0.386   4.962  12.768  1.0020  2.2333  0.0839
 9911TIP3    H251149   0.288   5.028  12.862  0.5835  1.3663  0.2606
 9912TIP3   OH251150   1.262   4.468  13.814  1.0044  0.3716  0.0123
 9912TIP3    H151151   1.333   4.405  13.817 -0.1054 -0.9264 -0.1159
 9912TIP3    H251152   1.293   4.542  13.867  2.2937 -0.2909  0.2184
 9913TIP3   OH251153   5.838   4.262   1.885 -0.3447 -0.7656  0.1281
 9913TIP3    H151154   5.760   4.297   1.927  0.0320 -0.7885  0.8605
 9913TIP3    H251155   5.896   4.237   1.957  1.0356  0.7650 -0.3896
 9914TIP3   OH251156   0.223   6.763   0.704  0.4090 -0.1303  1.1252
 9914TIP3    H151157   0.291   6.792   0.643 -0.1683 -1.1699 -0.0719
 9914TIP3    H251158   0.271   6.734   0.782  1.0927  2.1833  1.6210
 9915TIP3   OH251159   0.193   1.395  16.433 -0.3055 -0.6779 -0.4978
 9915TIP3    H151160   0.180   1.420  16.525  2.1175 -0.5337 -0.1201
 9915TIP3    H251161   0.129   1.447  16.385 -1.7099 -0.8506  1.1023
 9916TIP3   OH251162   3.383   4.458   0.147  0.0265  0.2262 -0.4495
 9916TIP3    H151163   3.359   4.395   0.214  0.7561  0.4767  0.0571
 9916TIP3    H251164   3.362   4.414   0.064 -0.3373 -0.3062 -0.0822
 9917TIP3   OH251165   4.223   1.858   0.918  0.4327  0.1803 -0.4765
 9917TIP3    H151166   4.204   1.822   1.004 -0.8967  0.2607 -0.7163
 9917TIP3    H251167   4.318   1.863   0.914  0.5023  1.3686  1.4727
 9918TIP3   OH251168   4.772   0.880  14.013 -0.2347 -0.4983  0.0943
 9918TIP3    H151169   4.864   0.878  14.042 -0.7305 -0.4061  1.8247
 9918TIP3    H251170   4.750   0.973  14.009 -1.1875 -0.4762  3.1626
 9919TIP3   OH251171   6.420   5.141   4.747 -0.1222  0.0486  0.0086
 9919TIP3    H151172   6.369   5.191   4.684  0.6009  0.4259 -0.2823
 9919TIP3    H251173   6.474   5.206   4.792  1.0052 -0.4819 -0.5427
 9920TIP3   OH251174   1.120   2.027   3.493  0.5831  0.7151 -0.2121
 9920TIP3    H151175   1.089   1.962   3.557  0.2106  0.8383 -0.2610
 9920TIP3    H251176   1.075   2.002   3.412 -0.0774  1.4192 -0.0761
 9921TIP3   OH251177   6.746   6.119  10.739 -0.1451  0.2961  0.1803
 9921TIP3    H151178   6.795   6.191  10.700  0.4439  1.2007  2.4294
 9921TIP3    H251179   6.795   6.041  10.715 -1.8644  0.2416 -4.0000
 9922TIP3   OH251180   4.803   3.709   0.976  0.0599  0.1577  0.1139
 9922TIP3    H151181   4.857   3.785   0.996  0.0117  0.0310  0.7493
 9922TIP3    H251182   4.840   3.638   1.028 -0.6351  0.0384  0.4530
 9923TIP3   OH251183   3.252   3.763  15.495 -0.1941  0.1690  0.5711
 9923TIP3    H151184   3.345   3.739  15.501 -0.5638 -1.0462  1.8874
 9923TIP3    H251185   3.240   3.787  15.403  0.7092 -2.8608 -0.4645
 9924TIP3   OH251186   0.906   4.971  10.351  0.7677 -0.3017  0.0631
 9924TIP3    H151187   0.949   5.043  10.397  0.5645 -0.8310  1.1013
 9924TIP3    H251188   0.977   4.929  10.302  1.3278 -0.7440  1.2143
 9925TIP3   OH251189   0.171   0.922  10.986  0.3243  0.2637  0.1698
 9925TIP3    H151190   0.088   0.966  11.007  0.0615 -0.2921  0.3320
 9925TIP3    H251191   0.176   0.851  11.050  0.5874 -0.1240 -0.2789
 9926TIP3   OH251192   4.820   0.804  12.858 -0.0357  0.4314 -0.3384
 9926TIP3    H151193   4.840   0.712  12.844 -0.3050  0.4365 -0.7685
 9926TIP3    H251194   4.834   0.817  12.952  2.3835  0.5529 -0.6564
 9927TIP3   OH251195   2.644   5.526   0.540 -0.3288 -0.1685 -0.2323
 9927TIP3    H151196   2.571   5.497   0.484  0.3617  1.5426 -2.1774
 9927TIP3    H251197   2.673   5.609   0.500  1.8213 -0.1139  1.2613
 9928TIP3   OH251198   6.227   1.395  16.222 -0.6296 -0.4465 -0.1139
 9928TIP3    H151199   6.269   1.462  16.276 -0.9957  0.8027 -1.3253
 9928TIP3    H251200   6.223   1.318  16.279  3.1580 -0.6580  0.1241
 9929TIP3   OH251201   3.851   5.776  14.341 -0.5906 -0.3028 -0.1701
 9929TIP3    H151202   3.872   5.868  14.326  1.5923 -0.8004 -0.5824
 9929TIP3    H251203   3.821   5.744  14.256 -2.0049  0.1477  0.1344
 9930TIP3   OH251204   5.709   0.846  12.972  0.5232  0.1974  0.0810
 9930TIP3    H151205   5.629   0.829  13.023  1.0201  1.9643  1.5492
 9930TIP3    H251206   5.717   0.941  12.970  1.4368  0.1246 -1.9709
 9931TIP3   OH251207   0.148   0.201  17.302  0.0815 -0.3147 -0.0081
 9931TIP3    H151208   0.185   0.150  17.374  1.1113 -1.2788 -1.1739
 9931TIP3    H251209   0.137   0.138  17.231  0.4238  0.8842 -1.1537
 9932TIP3   OH251210   3.508   0.930   4.453  0.3337 -0.7557  0.9497
 9932TIP3    H151211   3.555   0.848   4.437 -0.4786 -0.9458 -0.7360
 9932TIP3    H251212   3.553   0.970   4.527 -0.6680 -3.8033  3.4491
 9933TIP3   OH251213   4.765   1.184  16.808  0.1788  0.1056 -0.4675
 9933TIP3    H151214   4.730   1.198  16.720 -1.0796 -2.1820 -0.4060
 9933TIP3    H251215   4.813   1.102  16.801  1.4403  0.7159  0.6502
 9934TIP3   OH251216   0.631   3.779  12.183  0.2812 -0.0626 -0.3331
 9934TIP3    H151217   0.565   3.715  12.158  1.4551 -1.5928  0.2802
 9934TIP3    H251218   0.699   3.772  12.116  1.2017 -0.7342  0.6193
 9935TIP3   OH251219   6.731   4.625   3.584 -0.0008 -0.4279  0.0511
 9935TIP3    H151220   6.650   4.602   3.537  1.1324 -3.1185 -0.7813
 9935TIP3    H251221   6.779   4.681   3.524 -0.2801 -0.6173 -0.3531
 9936TIP3   OH251222   4.983   4.621   2.633 -0.1576 -0.1479  0.3282
 9936TIP3    H151223   4.936   4.588   2.556  0.7391  0.3520 -0.4416
 9936TIP3    H251224   4.999   4.542   2.686  1.6777 -0.9962 -1.3389
 9937TIP3   OH251225   6.021   3.253   3.451 -0.3517 -0.0584  0.0622
 9937TIP3    H151226   6.013   3.343   3.420 -2.2686  0.1062  0.9163
 9937TIP3    H251227   5.939   3.236   3.497 -0.2570 -2.4371 -0.5348
 9938TIP3   OH251228   1.877   5.300  15.822  0.0505  0.3934 -0.0524
 9938TIP3    H151229   1.849   5.270  15.736 -0.7158 -0.8627  0.6009
 9938TIP3    H251230   1.872   5.396  15.818 -0.7595  0.3169 -1.1355
 9939TIP3   OH251231   4.118   6.017   1.934  0.0915  0.2132 -0.3711
 9939TIP3    H151232   4.158   5.959   1.999 -0.5048 -1.2218 -1.2291
 9939TIP3    H251233   4.024   6.008   1.948 -0.0285  0.3005 -1.0712
 9940TIP3   OH251234   0.451   5.303   0.203 -0.0966  0.6124  0.0973
 9940TIP3    H151235   0.533   5.256   0.186  0.2362  1.7169 -1.6705
 9940TIP3    H251236   0.475   5.372   0.264 -0.1209 -0.1402  0.9842
 9941TIP3   OH251237   2.985   0.993  16.242 -1.2036  0.4122 -0.3726
 9941TIP3    H151238   2.977   0.949  16.326  0.0432  3.0842  1.2671
 9941TIP3    H251239   3.072   1.032  16.244 -0.9920  0.2566 -3.1145
 9942TIP3   OH251240   1.954   2.922  13.064 -0.4014 -0.4256  0.5035
 9942TIP3    H151241   1.965   3.007  13.021  1.6550 -0.6785  0.4337
 9942TIP3    H251242   1.940   2.945  13.156 -1.8411  0.0167  0.2039
 9943TIP3   OH251243   3.002   4.657   6.325 -0.2630 -0.3358  0.1316
 9943TIP3    H151244   2.996   4.576   6.376  1.6361 -0.5695  0.0516
 9943TIP3    H251245   2.923   4.706   6.348 -0.6180 -1.4758  1.4661
 9944TIP3   OH251246   1.104   4.595  12.803  0.5799  0.0870 -0.0476
 9944TIP3    H151247   1.105   4.646  12.885  2.1232 -0.1194  0.0976
 9944TIP3    H251248   1.051   4.519  12.823 -2.9301  2.1640 -0.6604
 9945TIP3   OH251249   3.881   5.801   6.000 -0.2248 -0.1170 -0.4832
 9945TIP3    H151250   3.809   5.806   6.063 -0.8653  0.4539 -1.2300
 9945TIP3    H251251   3.948   5.861   6.034  0.1553 -1.0912  0.5199
 9946TIP3   OH251252   0.179   6.206  16.761 -0.3367  0.0318 -0.3449
 9946TIP3    H151253   0.269   6.174  16.769  0.8516  3.2691  0.8269
 9946TIP3    H251254   0.154   6.183  16.671  1.6779 -0.8717 -0.7393
 9947TIP3   OH251255   2.246   3.438   2.215  0.0757  0.1357 -0.6464
 9947TIP3    H151256   2.273   3.525   2.185  1.3878 -0.3589 -0.9312
 9947TIP3    H251257   2.193   3.403   2.143  0.3416  0.3173 -0.9302
 9948TIP3   OH251258   4.129   5.867   3.426 -0.4328 -0.3563 -0.5707
 9948TIP3    H151259   4.137   5.962   3.427 -0.0799 -0.3818  0.8597
 9948TIP3    H251260   4.215   5.836   3.398 -0.0257 -0.2888  0.5900
 9949TIP3   OH251261   5.396   1.855  15.289 -0.1735 -0.4879 -0.1009
 9949TIP3    H151262   5.480   1.843  15.333 -0.5922 -0.9899  0.5812
 9949TIP3    H251263   5.377   1.948  15.298 -1.0807 -0.8440  2.3578
 9950TIP3   OH251264   2.261   6.276   0.488  0.1376 -0.4599 -0.5270
 9950TIP3    H151265   2.286   6.358   0.531 -0.2864  0.3030 -1.6935
 9950TIP3    H251266   2.321   6.268   0.415  0.3154 -1.3216 -0.2964
 9951TIP3   OH251267   0.309   2.204   4.318 -0.1429  0.1624 -0.0015
 9951TIP3    H151268   0.304   2.254   4.236  1.2752 -0.8857 -0.7796
 9951TIP3    H251269   0.220   2.171   4.331 -0.6289  1.2048 -0.5641
 9952TIP3   OH251270   3.087   3.077   2.950  0.1912  0.2987  0.4849
 9952TIP3    H151271   3.095   3.042   2.861 -1.2572 -0.3621  0.5910
 9952TIP3    H251272   3.175   3.107   2.972  0.7964 -0.4799 -0.7791
 9953TIP3   OH251273   6.607   1.143   0.579  0.2383  0.0786  0.6473
 9953TIP3    H151274   6.559   1.166   0.659 -1.0307  2.8044 -0.7584
 9953TIP3    H251275   6.562   1.066   0.545 -0.2010 -0.1552  1.7080
 9954TIP3   OH251276   0.439   2.542  14.053 -0.2334  0.1145  0.3504
 9954TIP3    H151277   0.376   2.583  14.112 -0.1812  1.5201 -0.5232
 9954TIP3    H251278   0.483   2.477  14.106 -1.9520 -0.4371  1.1676
 9955TIP3   OH251279   4.873   2.211   4.217  0.0160  0.4255 -0.2839
 9955TIP3    H151280   4.818   2.172   4.285  2.3975 -0.6263  1.1433
 9955TIP3    H251281   4.831   2.185   4.135 -0.6684 -1.8766  0.7010
 9956TIP3   OH251282   3.638   0.397  14.245  0.0697 -0.0177  0.0634
 9956TIP3    H151283   3.618   0.304  14.239  0.1579 -0.1053  0.9481
 9956TIP3    H251284   3.730   0.404  14.222 -0.3099  0.0620 -1.5350
 9957TIP3   OH251285   2.922   1.999  10.646  0.3803  0.5354  0.2356
 9957TIP3    H151286   2.998   1.945  10.669 -0.0094 -0.2040 -0.1960
 9957TIP3    H251287   2.956   2.060  10.581  0.9073  1.0642  0.9796
 9958TIP3   OH251288   6.025   0.818   2.518 -0.8135  0.5406  0.0478
 9958TIP3    H151289   5.975   0.825   2.600 -1.6469 -0.8246 -0.3099
 9958TIP3    H251290   5.963   0.780   2.456  0.6643 -1.2399 -0.4083
 9959TIP3   OH251291   2.145   3.603  15.910  0.1013 -0.3335  0.3087
 9959TIP3    H151292   2.178   3.625  15.997  0.3719  0.4608  0.0183
 9959TIP3    H251293   2.224   3.586  15.858 -0.0138  0.0354  0.0050
 9960TIP3   OH251294   4.646   4.519  15.853  0.7492  0.4410  0.7307
 9960TIP3    H151295   4.646   4.446  15.791 -0.5407 -0.1153  1.3401
 9960TIP3    H251296   4.568   4.504  15.907  0.9119  1.8340  1.3903
 9961TIP3   OH251297   4.880   2.926   0.157  0.0460 -0.1066  0.2432
 9961TIP3    H151298   4.961   2.924   0.106 -1.6631 -0.8251 -2.6818
 9961TIP3    H251299   4.891   2.856   0.222  2.2114  0.6470  0.7754
 9962TIP3   OH251300   2.360   1.478  12.271  0.0974 -0.1535  0.3267
 9962TIP3    H151301   2.344   1.420  12.346  2.1570 -2.6257 -0.9785
 9962TIP3    H251302   2.434   1.532  12.299  0.7607 -0.9616  0.1793
 9963TIP3   OH251303   1.880   1.190   5.326  0.6888  0.8609 -0.2230
 9963TIP3    H151304   1.926   1.194   5.410  0.7775  0.1460 -0.2285
 9963TIP3    H251305   1.926   1.121   5.278 -1.2146 -0.8208  0.2699
 9964TIP3   OH251306   3.089   1.720   4.303  0.0480  0.4437 -0.3899
 9964TIP3    H151307   3.175   1.724   4.344 -0.5033 -0.5340  0.9185
 9964TIP3    H251308   3.044   1.649   4.348  0.2905 -2.6300 -4.4358
 9965TIP3   OH251309   6.728   2.375  12.895  0.7391 -0.0753 -0.2547
 9965TIP3    H151310   6.789   2.392  12.823 -0.0460  1.8708 -0.5262
 9965TIP3    H251311   6.780   2.392  12.974  1.6923 -2.5182 -0.2688
 9966TIP3   OH251312   6.506   0.146   4.316 -0.2629 -0.3780 -0.0514
 9966TIP3    H151313   6.481   0.156   4.224 -1.1537 -1.1422  0.0912
 9966TIP3    H251314   6.436   0.093   4.354  1.1495 -1.8644  0.5796
 9967TIP3   OH251315   5.034   0.921  14.087 -0.2546  0.4249  0.5568
 9967TIP3    H151316   5.058   0.997  14.139  1.2410 -1.0228  2.1160
 9967TIP3    H251317   5.100   0.919  14.017 -1.0773  1.2603 -0.2622
 9968TIP3   OH251318   4.410   5.380  13.770 -0.1025 -0.3913  0.2209
 9968TIP3    H151319   4.385   5.453  13.826  0.4880 -0.9068  1.1863
 9968TIP3    H251320   4.493   5.407  13.731  1.0668 -1.2329  1.9904
 9969TIP3   OH251321   1.537   2.278  13.022  0.5794 -0.2781  0.3226
 9969TIP3    H151322   1.545   2.188  13.055  0.7620 -0.8049 -1.1066
 9969TIP3    H251323   1.533   2.269  12.927  2.2898  1.3286  0.0355
 9970TIP3   OH251324   5.353   6.356  11.161  0.2683 -0.1279  0.5488
 9970TIP3    H151325   5.344   6.380  11.069  1.4634 -3.1901 -0.5066
 9970TIP3    H251326   5.395   6.432  11.202 -3.0330  2.5558 -0.6357
 9971TIP3   OH251327   1.238   5.912  13.151 -0.6598 -0.8413 -0.3638
 9971TIP3    H151328   1.157   5.913  13.201  0.0884  1.5503  0.9809
 9971TIP3    H251329   1.290   5.842  13.190 -0.8792 -0.3225  0.9011
 9972TIP3   OH251330   4.549   3.580   0.352  0.6723 -0.2597 -0.6690
 9972TIP3    H151331   4.601   3.551   0.277  2.7359 -0.9739  0.9280
 9972TIP3    H251332   4.538   3.502   0.406  1.4062  0.6645  0.9341
 9973TIP3   OH251333   0.066   1.556   5.857 -0.1508  0.0240  0.3468
 9973TIP3    H151334   0.100   1.585   5.941 -2.3266  1.2654  0.8685
 9973TIP3    H251335   0.143   1.548   5.801  1.2182  0.2343  2.1387
 9974TIP3   OH251336   0.021   3.211  12.618  0.4785 -0.1439  0.4501
 9974TIP3    H151337  -0.046   3.163  12.568  1.2627 -1.0017  0.1876
 9974TIP3    H251338   0.090   3.146  12.633  1.4334  0.8239  0.3655
 9975TIP3   OH251339   2.681   5.580  14.621 -0.2351  0.2651 -0.4756
 9975TIP3    H151340   2.588   5.567  14.642 -0.1136  0.4089  0.1841
 9975TIP3    H251341   2.727   5.522  14.682  0.1342  0.7205 -0.3134
 9976TIP3   OH251342   6.314   5.689   5.916 -0.1156  0.1994 -0.0091
 9976TIP3    H151343   6.377   5.662   5.983 -0.7000 -1.1096  0.0587
 9976TIP3    H251344   6.362   5.750   5.861  1.1033 -0.4770  0.2569
 9977TIP3   OH251345   5.458   5.833  17.328 -0.4829 -0.2217 -0.3584
 9977TIP3    H151346   5.544   5.796  17.348 -0.8333 -1.0663 -0.3916
 9977TIP3    H251347   5.446   5.818  17.234 -0.8082 -0.3955 -0.2893
 9978TIP3   OH251348   5.968   3.986   5.491  0.2159 -0.1412 -0.3266
 9978TIP3    H151349   5.881   3.946   5.495  0.8283 -1.4838  0.1990
 9978TIP3    H251350   5.954   4.076   5.520 -0.9115 -0.5013  0.3157
 9979TIP3   OH251351   2.898   5.370   1.474  0.1231 -0.5494 -0.0279
 9979TIP3    H151352   2.834   5.419   1.421  1.9723  2.1570  0.0669
 9979TIP3    H251353   2.900   5.283   1.433 -3.4403 -0.7466 -0.1112
 9980TIP3   OH251354   5.174   1.034   0.381 -0.2077  0.4029 -0.6617
 9980TIP3    H151355   5.226   1.033   0.461 -0.2971 -0.1329 -0.6068
 9980TIP3    H251356   5.238   1.033   0.310  0.1748  5.7176 -0.7969
 9981TIP3   OH251357   6.409   6.078   3.747 -0.7461 -0.2588 -0.0756
 9981TIP3    H151358   6.380   6.113   3.832 -0.3490  2.4541 -0.9557
 9981TIP3    H251359   6.492   6.035   3.767 -0.7284  0.2140  0.9652
 9982TIP3   OH251360   3.636   2.531   1.039  0.1091 -0.8987  0.0653
 9982TIP3    H151361   3.618   2.609   1.091  1.8351 -2.0656  2.5636
 9982TIP3    H251362   3.730   2.531   1.026 -0.1201 -1.3874 -1.9432
 9983TIP3   OH251363   6.634   0.373  15.937 -0.7138 -0.0991 -0.3793
 9983TIP3    H151364   6.581   0.452  15.939 -0.3635  0.1339 -0.1766
 9983TIP3    H251365   6.578   0.305  15.975 -1.2012 -0.0713 -1.0270
 9984TIP3   OH251366   6.466   3.198  14.899 -0.1389  0.2939  0.0957
 9984TIP3    H151367   6.532   3.169  14.836 -1.9899  0.3071 -1.9951
 9984TIP3    H251368   6.448   3.121  14.953  0.4360 -0.1757 -0.3771
 9985TIP3   OH251369   4.403   2.994   4.260  0.2242  0.2189  0.5106
 9985TIP3    H151370   4.428   2.956   4.344 -1.4083 -0.3630  0.7680
 9985TIP3    H251371   4.485   3.029   4.224  0.6675  2.1542  3.1394
 9986TIP3   OH251372   3.973   4.383   3.815  0.5999  0.2355  0.6734
 9986TIP3    H151373   4.022   4.465   3.827  0.0339  0.8085 -0.7539
 9986TIP3    H251374   4.036   4.323   3.775 -0.5142  2.0230 -4.5618
 9987TIP3   OH251375   3.568   1.372  14.854  0.1623  0.6247  0.3514
 9987TIP3    H151376   3.512   1.343  14.926  1.2195  0.1343  0.9942
 9987TIP3    H251377   3.542   1.463  14.839 -1.0309  0.3158  0.3965
 9988TIP3   OH251378   3.124   4.765  15.902  0.9479  0.0741 -0.5001
 9988TIP3    H151379   3.029   4.773  15.888  0.3943 -3.2992  0.3902
 9988TIP3    H251380   3.138   4.802  15.989  0.3034 -0.0833 -0.3192
 9989TIP3   OH251381   5.772   1.424  15.942 -0.5821 -0.2179 -0.3660
 9989TIP3    H151382   5.817   1.416  15.858 -0.5607  2.6602 -0.7294
 9989TIP3    H251383   5.839   1.408  16.008 -0.0465 -0.2596 -0.9202
 9990TIP3   OH251384   0.654   5.554  14.685  0.6322 -0.1883  0.3208
 9990TIP3    H151385   0.618   5.491  14.621  1.1137 -0.1237 -0.0184
 9990TIP3    H251386   0.735   5.584  14.645  0.0422  1.2187  0.1381
 9991TIP3   OH251387   4.136   6.727  11.187 -0.0530 -0.3320 -0.6301
 9991TIP3    H151388   4.067   6.662  11.172  0.2931 -0.4864 -1.5715
 9991TIP3    H251389   4.197   6.715  11.115 -0.1219  1.2272 -0.9734
 9992TIP3   OH251390   5.759   6.029   1.818 -0.0379  0.5632  0.0013
 9992TIP3    H151391   5.678   6.045   1.866 -0.2564 -1.0602  0.2102
 9992TIP3    H251392   5.817   5.987   1.881 -0.0644 -0.9196 -0.9307
 9993TIP3   OH251393   5.921   3.602   1.482  0.4253 -0.0474  0.1804
 9993TIP3    H151394   5.968   3.531   1.526 -1.6699 -1.2276  0.6465
 9993TIP3    H251395   5.927   3.676   1.542 -0.0769 -0.8153  1.2023
 9994TIP3   OH251396   1.615   2.818  17.142  0.0356 -0.2970 -0.1887
 9994TIP3    H151397   1.657   2.816  17.229  0.5942 -0.0326 -0.4458
 9994TIP3    H251398   1.636   2.906  17.109  0.8127 -0.8031 -1.0733
 9995TIP3   OH251399   4.383   4.542   6.682  0.3148  0.1101 -0.0116
 9995TIP3    H151400   4.315   4.528   6.617 -1.0258  1.5082  1.0207
 9995TIP3    H251401   4.428   4.622   6.654  1.2656 -0.5484 -0.4320
 9996TIP3   OH251402   1.667   5.390   5.142  0.3149 -0.0397  0.3119
 9996TIP3    H151403   1.703   5.416   5.057  0.1050  1.6937  0.7188
 9996TIP3    H251404   1.580   5.429   5.144  0.4568  0.2666  1.4532
 9997TIP3   OH251405   2.865   1.431  16.790  0.2136 -0.0640 -0.1465
 9997TIP3    H151406   2.918   1.510  16.784  0.9618 -0.5828 -0.5990
 9997TIP3    H251407   2.802   1.438  16.719 -0.4205  0.6087  0.4630
 9998TIP3   OH251408   0.864   4.945  14.620 -0.0176 -0.4663 -0.5117
 9998TIP3    H151409   0.900   4.974  14.704  2.0012  2.1376 -2.1042
 9998TIP3    H251410   0.887   4.852  14.615 -0.2543 -0.6989  1.7963
 9999TIP3   OH251411   3.264   2.069   2.982 -0.2673  0.1544 -0.2880
 9999TIP3    H151412   3.279   1.990   3.034  1.1962  0.3480 -0.3600
 9999TIP3    H251413   3.216   2.128   3.040 -0.6173 -0.4629  0.0569
10000TIP3   OH251414   6.547   4.405  12.426 -0.2462  0.4500  0.2852
10000TIP3    H151415   6.583   4.316  12.428  0.6996  0.8080 -0.1970
10000TIP3    H251416   6.511   4.418  12.514  1.1143  0.1697  0.9227
10001TIP3   OH251417   3.002   3.105  15.547 -0.0697  0.3546  0.6180
10001TIP3    H151418   2.941   3.050  15.595 -0.4085 -0.2679 -0.4744
10001TIP3    H251419   2.947   3.155  15.487  0.4490 -0.0801 -0.2515
10002TIP3   OH251420   1.913   1.614   5.181  0.3814  0.0169  0.1697
10002TIP3    H151421   1.922   1.631   5.087  1.5880  0.5716  0.3610
10002TIP3    H251422   1.840   1.552   5.188  0.6272 -0.4524 -1.1756
10003TIP3   OH251423   0.937   5.378   5.258 -0.9551 -0.0023  0.1687
10003TIP3    H151424   0.974   5.291   5.243 -1.9726 -0.0437 -2.7244
10003TIP3    H251425   0.859   5.362   5.311 -0.1136 -0.5854  1.2780
10004TIP3   OH251426   6.022   6.707   5.482  0.1378  0.2754 -0.5534
10004TIP3    H151427   6.067   6.624   5.464  2.6944  1.4505  0.0030
10004TIP3    H251428   5.999   6.741   5.395  2.8209  0.8716 -1.1209
10005TIP3   OH251429   6.733   4.213   0.498 -0.1106 -0.0177  0.4146
10005TIP3    H151430   6.769   4.301   0.507 -0.7972  0.3514 -0.3236
10005TIP3    H251431   6.645   4.226   0.463 -0.4648 -0.9711  0.9039
10006TIP3   OH251432   2.360   5.674   1.412 -0.3617  0.4224 -0.1518
10006TIP3    H151433   2.452   5.668   1.438 -0.0442 -0.2375 -1.3481
10006TIP3    H251434   2.331   5.583   1.401 -1.3810  0.5936  0.9102
10007TIP3   OH251435   3.150   6.286   0.812  0.2485  0.4395 -0.1450
10007TIP3    H151436   3.123   6.329   0.730  0.6679 -0.9328 -1.0510
10007TIP3    H251437   3.073   6.235   0.837  0.8066 -0.8156 -0.8808
10008TIP3   OH251438   4.383   2.057   1.216 -0.0497  0.4300  0.2940
10008TIP3    H151439   4.392   1.964   1.234 -1.5723  0.4079  1.0325
10008TIP3    H251440   4.293   2.079   1.240  0.4851  2.2478  0.8474
10009TIP3   OH251441   5.920   3.902   3.762  0.1695 -0.4286  0.0674
10009TIP3    H151442   5.939   3.851   3.840  1.3899  0.2824  0.2659
10009TIP3    H251443   5.887   3.986   3.796  3.3857  1.0195  0.0471
10010TIP3   OH251444   0.297   4.565   1.781 -0.5250 -0.4425  0.0406
10010TIP3    H151445   0.348   4.505   1.726 -1.0506  0.6884 -1.7641
10010TIP3    H251446   0.222   4.513   1.810 -1.2616 -0.5710 -1.9480
10011TIP3   OH251447   6.239   1.200  14.085 -0.5274  0.1923 -0.0328
10011TIP3    H151448   6.295   1.222  14.010  1.4751 -1.6794  0.8078
10011TIP3    H251449   6.244   1.277  14.142  0.7134  0.3004 -0.2697
10012TIP3   OH251450   3.385   1.038  12.222 -0.2794  0.2377  0.2322
10012TIP3    H151451   3.348   1.110  12.171  0.0936  0.1759 -0.1298
10012TIP3    H251452   3.442   1.080  12.286 -0.5762  0.3029  0.4531
10013TIP3   OH251453   0.280   5.963   3.696  0.1101 -0.3025  0.3195
10013TIP3    H151454   0.307   6.035   3.754 -2.6399  0.7264  0.4941
10013TIP3    H251455   0.254   5.893   3.756  0.5177 -0.5468  0.2140
10014TIP3   OH251456   3.536   4.682   2.547  0.2355  0.4661  0.5540
10014TIP3    H151457   3.601   4.689   2.478  0.2874  0.9135  0.6482
10014TIP3    H251458   3.586   4.676   2.629  0.1679  0.2445  0.5818
10015TIP3   OH251459   5.999   4.624   4.649  0.2611 -0.4297  0.2458
10015TIP3    H151460   5.989   4.584   4.562  4.0702  1.0700 -1.0993
10015TIP3    H251461   6.075   4.580   4.687  1.6157  2.1070  0.6961
10016TIP3   OH251462   4.847   3.177  11.726  0.0422 -0.4609 -0.5756
10016TIP3    H151463   4.753   3.184  11.709 -0.0090  0.7409  0.1152
10016TIP3    H251464   4.854   3.102  11.785 -0.6463  0.2104  0.3997
10017TIP3   OH251465   1.395   5.330  12.966 -0.0579 -0.1857  0.0189
10017TIP3    H151466   1.464   5.270  12.938 -0.0878  0.6913 -2.0627
10017TIP3    H251467   1.415   5.348  13.058  1.5658 -1.1648 -0.1081
10018TIP3   OH251468   6.534   5.089  14.824 -0.1172  0.6573  0.5143
10018TIP3    H151469   6.572   5.176  14.814 -1.0991  0.9021 -1.6556
10018TIP3    H251470   6.448   5.095  14.781 -0.3132 -1.2915  0.5462
10019TIP3   OH251471   1.911   1.447  14.330  0.6935 -0.3993  0.4530
10019TIP3    H151472   1.826   1.418  14.363  1.5229 -1.5559  1.7059
10019TIP3    H251473   1.904   1.441  14.235 -1.9283  3.3743  0.1928
10020TIP3   OH251474   2.797   5.279  13.153  0.0125 -0.4020 -0.0174
10020TIP3    H151475   2.797   5.369  13.186 -0.5499 -0.5621  0.4425
10020TIP3    H251476   2.781   5.225  13.231  2.8246 -1.0941  0.2004
10021TIP3   OH251477   1.108   0.706   5.021 -0.1655 -0.4806 -0.0654
10021TIP3    H151478   1.190   0.674   5.059  1.0932  1.4547 -1.0063
10021TIP3    H251479   1.062   0.747   5.095  0.3358 -0.4153  0.2154
10022TIP3   OH251480   4.739   3.607  16.088  0.8967 -0.0177 -0.3844
10022TIP3    H151481   4.830   3.625  16.062  1.2101 -1.5822 -0.4462
10022TIP3    H251482   4.692   3.688  16.067  2.0402  0.4056 -1.4685
10023TIP3   OH251483   3.963   4.185  14.981 -0.1287  0.6921  0.0748
10023TIP3    H151484   3.929   4.244  15.047 -0.2305  0.4976  0.1983
10023TIP3    H251485   4.046   4.154  15.017  0.2710  1.3088 -0.3075
10024TIP3   OH251486   0.048   0.601   5.411 -0.4558  0.4304 -0.1029
10024TIP3    H151487  -0.023   0.662   5.432 -0.5096  0.9629 -1.6584
10024TIP3    H251488   0.005   0.525   5.374 -0.3266 -0.1991  0.9927
10025TIP3   OH251489   0.043   5.306   1.922 -0.3922 -0.2719  0.3600
10025TIP3    H151490  -0.007   5.224   1.923  0.1409 -0.6099  0.1715
10025TIP3    H251491   0.013   5.353   2.000 -1.5440 -0.1222 -0.1588
10026TIP3   OH251492   0.112   1.826  12.587  0.2533  0.1164 -0.3725
10026TIP3    H151493   0.035   1.774  12.607 -1.7813  2.3281 -1.8951
10026TIP3    H251494   0.147   1.787  12.507 -0.6825  0.4457 -0.9627
10027TIP3   OH251495   6.704   5.892  13.516 -0.5887  0.6447 -0.2336
10027TIP3    H151496   6.689   5.802  13.487 -1.9618  0.7295  0.1375
10027TIP3    H251497   6.780   5.887  13.574  0.0381 -0.0791 -1.0894
10028TIP3   OH251498   4.479   5.682   0.789  0.5933  0.2051 -0.1898
10028TIP3    H151499   4.549   5.651   0.846  1.2552  0.9182 -0.5999
10028TIP3    H251500   4.411   5.712   0.849  1.2478  0.8678  0.2473
10029TIP3   OH251501   6.185   4.436  11.503  0.5537 -0.1459 -0.3974
10029TIP3    H151502   6.174   4.521  11.461 -2.0316  0.3169  0.9798
10029TIP3    H251503   6.111   4.384  11.471  1.3330 -1.4336 -0.1756
10030TIP3   OH251504   2.153   3.080  17.217 -0.5990  0.0810  0.5900
10030TIP3    H151505   2.193   3.166  17.232  0.3933 -0.0405 -1.1000
10030TIP3    H251506   2.131   3.080  17.124  1.1369 -2.1489  0.0903
10031TIP3   OH251507   0.366   0.505  15.506  0.1617  0.9589 -0.4631
10031TIP3    H151508   0.292   0.527  15.449 -0.0004 -0.4752 -0.8475
10031TIP3    H251509   0.359   0.566  15.579 -1.3288  0.9375 -0.5582
10032TIP3   OH251510   2.747   3.055   6.357  0.5304 -0.3058  0.5780
10032TIP3    H151511   2.832   3.034   6.320  1.5396  0.6611  2.2242
10032TIP3    H251512   2.759   3.047   6.452 -0.3971  2.5849  1.0224
10033TIP3   OH251513   5.977   5.401  15.636 -0.0855  0.0523 -0.2024
10033TIP3    H151514   5.909   5.464  15.657 -0.2708 -0.3663  0.5076
10033TIP3    H251515   6.000   5.362  15.721 -0.4751 -1.3323 -0.7095
10034TIP3   OH251516   0.135   2.646  12.581  0.0152  0.0181  0.4424
10034TIP3    H151517   0.056   2.690  12.548 -1.0318 -0.9817  1.5155
10034TIP3    H251518   0.205   2.675  12.522 -0.8723  2.0021  0.2656
10035TIP3   OH251519   3.390   1.918  13.419 -0.3689 -0.2285  0.0382
10035TIP3    H151520   3.393   1.840  13.363 -0.1546  0.0949 -0.4052
10035TIP3    H251521   3.305   1.913  13.462 -0.1783 -0.9464  0.3580
10036TIP3   OH251522   4.648   2.361   2.035  0.2211 -0.1902 -0.6022
10036TIP3    H151523   4.577   2.356   2.099  0.5725 -0.0132 -0.1982
10036TIP3    H251524   4.725   2.327   2.081  1.1248  2.4532 -0.0112
10037TIP3   OH251525   5.610   0.234  11.756 -0.1236 -0.4915  0.1353
10037TIP3    H151526   5.612   0.240  11.851 -1.2840 -0.0456  0.1485
10037TIP3    H251527   5.522   0.202  11.735  0.0427 -0.3938 -0.7877
10038TIP3   OH251528   5.771   5.213  12.231  0.0303 -0.2471  0.0380
10038TIP3    H151529   5.769   5.120  12.207  1.9586 -0.5925  0.9863
10038TIP3    H251530   5.844   5.250  12.180  1.2541 -0.0005  1.8592
10039TIP3   OH251531   0.170   6.585   1.498 -0.2550 -0.0838 -0.5192
10039TIP3    H151532   0.144   6.676   1.492  4.2127  1.5325  0.4116
10039TIP3    H251533   0.209   6.566   1.413  0.1681 -0.5919 -0.2210
10040TIP3   OH251534   2.831   1.905   2.456 -0.1899  0.2566 -0.4687
10040TIP3    H151535   2.823   1.836   2.390  0.4603  0.4403 -0.7509
10040TIP3    H251536   2.915   1.887   2.499 -0.1657  0.6884 -0.3295
10041TIP3   OH251537   2.003   5.435  12.097 -0.0159 -0.0878  0.0177
10041TIP3    H151538   2.075   5.493  12.072  1.3641 -1.3356  0.9407
10041TIP3    H251539   1.957   5.483  12.166  0.0957  0.5929 -0.3698
10042TIP3   OH251540   4.374   6.764  13.409  0.2001  0.3896 -0.1153
10042TIP3    H151541   4.407   6.784  13.496  1.1569 -0.8361 -0.1726
10042TIP3    H251542   4.311   6.692  13.423  0.4601  0.0929 -0.4378
10043TIP3   OH251543   0.735   1.425   4.664 -0.6501  0.2841 -0.1379
10043TIP3    H151544   0.809   1.475   4.629  0.4029  0.6645  2.4640
10043TIP3    H251545   0.685   1.400   4.586  3.2404 -1.7737 -2.2692
10044TIP3   OH251546   4.842   3.011  13.145  0.4995  0.3432  0.5868
10044TIP3    H151547   4.838   2.926  13.190  0.5524  1.0708  2.0412
10044TIP3    H251548   4.816   2.992  13.055  2.2771 -1.5344  0.3932
10045TIP3   OH251549   1.598   5.153  16.449 -0.2914 -0.2883  0.2665
10045TIP3    H151550   1.666   5.145  16.517 -0.0031 -0.6335 -0.0560
10045TIP3    H251551   1.604   5.071  16.400 -0.0395  0.2348 -0.6020
10046TIP3   OH251552   3.936   0.962   4.152 -0.2416 -0.5759 -0.2398
10046TIP3    H151553   3.901   0.914   4.227 -0.8390  0.6782  0.3127
10046TIP3    H251554   3.876   0.942   4.081 -1.4309  0.5858  0.3958
10047TIP3   OH251555   2.385   0.577   1.265 -0.5045  0.3617 -0.5429
10047TIP3    H151556   2.340   0.626   1.197 -1.4197 -2.2743 -1.9871
10047TIP3    H251557   2.375   0.485   1.239 -0.4529 -0.7663  2.8739
10048TIP3   OH251558   6.428   2.853   1.921  0.3529 -0.3182 -0.4101
10048TIP3    H151559   6.507   2.826   1.875  0.2969 -0.7442 -0.2580
10048TIP3    H251560   6.458   2.879   2.008  0.3978  0.0586 -0.5349
10049TIP3   OH251561   3.911   5.639   4.591  0.4455 -0.1019  0.4235
10049TIP3    H151562   3.962   5.639   4.672  1.4674  0.4834 -0.2001
10049TIP3    H251563   3.957   5.579   4.533 -0.1835 -0.3853  0.2139
10050TIP3   OH251564   1.456   6.532  15.566 -0.0882  0.3479  0.1063
10050TIP3    H151565   1.517   6.567  15.501 -0.6261 -1.7347 -1.6531
10050TIP3    H251566   1.505   6.529  15.647  1.4062  0.8319 -0.7508
10051TIP3   OH251567   2.486   6.157   3.375 -0.1421  0.1655  0.1873
10051TIP3    H151568   2.435   6.144   3.295  0.6480  0.1872 -0.3381
10051TIP3    H251569   2.533   6.074   3.387  0.0324  0.2955  0.4171
10052TIP3   OH251570   1.844   1.972  12.947  0.5544  0.3776  0.5938
10052TIP3    H151571   1.902   2.048  12.948 -0.7236  1.5532 -2.7591
10052TIP3    H251572   1.779   1.992  12.880 -1.3631 -2.6135  1.3879
10053TIP3   OH251573   0.173   2.644   2.247  0.3273  0.3753 -0.0179
10053TIP3    H151574   0.169   2.550   2.228  2.2503  0.1677  0.3731
10053TIP3    H251575   0.082   2.670   2.260 -0.1747 -1.6353  0.8416
10054TIP3   OH251576   6.376   2.892  13.841 -0.1810 -0.1420 -0.6101
10054TIP3    H151577   6.463   2.888  13.881  0.3243 -0.0442 -1.6835
10054TIP3    H251578   6.362   2.805  13.805 -0.5127 -0.1409 -0.4875
10055TIP3   OH251579   1.559   2.778   4.760  0.2688  0.2304  0.9185
10055TIP3    H151580   1.651   2.800   4.748  0.5629 -0.0326  2.4653
10055TIP3    H251581   1.540   2.715   4.690  1.5967 -0.6062  1.2669
10056TIP3   OH251582   3.356   1.724   2.034  0.1699  0.0380  0.0038
10056TIP3    H151583   3.403   1.731   2.117  0.4821  0.4746 -0.2050
10056TIP3    H251584   3.344   1.630   2.021  0.8148 -0.0732  0.1618
10057TIP3   OH251585   4.818   1.196  14.028  0.5522  0.0411  0.2528
10057TIP3    H151586   4.733   1.239  14.021  0.1434 -0.5096  1.6117
10057TIP3    H251587   4.872   1.238  13.961 -1.2492 -0.7521 -1.8181
10058TIP3   OH251588   3.638   5.522   5.476 -0.2299  0.9517 -0.5125
10058TIP3    H151589   3.584   5.554   5.549 -0.5086  0.7162 -0.6112
10058TIP3    H251590   3.600   5.566   5.399 -0.2569  0.8141 -0.5772
10059TIP3   OH251591   0.938   5.015  16.041 -0.2735  0.1741 -0.4673
10059TIP3    H151592   0.973   5.051  16.123 -1.2519  1.4447 -0.5833
10059TIP3    H251593   0.861   4.964  16.069  0.1731 -0.5190 -0.4752
10060TIP3   OH251594   1.767   0.470  16.635  0.5355 -0.5262  0.1160
10060TIP3    H151595   1.690   0.509  16.676  0.5374  0.3518 -0.7110
10060TIP3    H251596   1.791   0.529  16.564  2.2656 -0.5180  0.6389
10061TIP3   OH251597   2.637   6.767  14.908 -0.8953  0.2451  0.0705
10061TIP3    H151598   2.581   6.698  14.943 -2.8204  1.6908  0.0472
10061TIP3    H251599   2.709   6.721  14.866 -0.5540 -1.6569  2.4853
10062TIP3   OH251600   6.649   5.035  13.006 -0.0826  0.0144 -0.4985
10062TIP3    H151601   6.590   5.110  13.015  0.6250  0.4153  1.4835
10062TIP3    H251602   6.662   5.026  12.912 -1.1293  1.6334 -0.8470
10063TIP3   OH251603   1.485   1.407   4.252 -0.0229 -0.5898 -0.0153
10063TIP3    H151604   1.439   1.326   4.231  0.9198 -1.1468  0.0023
10063TIP3    H251605   1.509   1.443   4.167 -1.3462  0.2297 -0.0651
10064TIP3   OH251606   1.379   4.966  12.191  0.3141 -0.1044  0.0557
10064TIP3    H151607   1.411   4.929  12.109 -2.7502 -1.5998 -0.6361
10064TIP3    H251608   1.303   5.018  12.165  0.1836  0.6398  1.8094
10065TIP3   OH251609   0.270   5.574  16.314 -0.1399  0.1908  0.1275
10065TIP3    H151610   0.206   5.549  16.247  0.8507  1.7016 -1.4358
10065TIP3    H251611   0.269   5.500  16.376 -2.4721 -0.3788 -0.4830
10066TIP3   OH251612   0.154   0.104  11.074  0.0006 -0.1511 -0.4387
10066TIP3    H151613   0.229   0.070  11.124 -0.8518 -2.7546 -0.7641
10066TIP3    H251614   0.179   0.091  10.983 -0.2761  0.3592 -0.5901
10067TIP3   OH251615   1.799   6.117   1.157 -0.5527 -0.5174 -0.1994
10067TIP3    H151616   1.731   6.058   1.190  0.6087 -1.5383  0.4486
10067TIP3    H251617   1.787   6.116   1.062 -2.3873  0.5348 -0.0257
10068TIP3   OH251618   3.529   5.539  11.681  0.6771  0.6607 -0.0687
10068TIP3    H151619   3.581   5.482  11.625  1.2839  0.2692  0.8608
10068TIP3    H251620   3.453   5.563  11.628  0.9314 -0.1876 -0.8323
10069TIP3   OH251621   6.183   1.367   3.384 -0.2887  0.0333 -0.4390
10069TIP3    H151622   6.249   1.432   3.358 -0.8271  1.3500  1.3455
10069TIP3    H251623   6.106   1.389   3.332 -0.4288  0.7647  0.0669
10070TIP3   OH251624   5.925   5.998   1.361 -0.1083 -0.1105  0.1875
10070TIP3    H151625   5.898   5.950   1.283 -0.0701 -0.1023  0.1694
10070TIP3    H251626   5.844   6.040   1.393 -0.0541  0.1751 -0.0501
10071TIP3   OH251627   2.988   6.376  13.088 -0.5791  0.0309 -0.2651
10071TIP3    H151628   2.994   6.295  13.140 -2.3741  0.4262  0.6313
10071TIP3    H251629   2.970   6.346  12.999 -3.1418 -0.5740  0.3864
10072TIP3   OH251630   4.645   3.134  13.964 -0.2649  0.6906  0.1287
10072TIP3    H151631   4.604   3.220  13.953  0.0416  0.9791  1.0732
10072TIP3    H251632   4.571   3.074  13.974 -0.4807  0.8655 -0.3892
10073TIP3   OH251633   0.167   1.411   1.430 -0.1506  0.4632  0.2957
10073TIP3    H151634   0.138   1.325   1.461  1.2781  0.4398  1.7011
10073TIP3    H251635   0.124   1.473   1.488 -1.5536  0.7794 -1.0105
10074TIP3   OH251636   6.272   6.626   1.794  0.2477 -0.2612 -0.1865
10074TIP3    H151637   6.190   6.673   1.775 -0.2570 -1.3135 -0.6902
10074TIP3    H251638   6.340   6.694   1.788 -0.4055  0.3315 -1.3679
10075TIP3   OH251639   0.361   2.569   5.766 -0.3549 -0.0960 -0.7351
10075TIP3    H151640   0.331   2.660   5.769 -1.7340 -0.5647  1.3573
10075TIP3    H251641   0.283   2.517   5.782  0.6933 -1.5904 -0.2561
10076TIP3   OH251642   2.284   5.507  12.065 -0.0597  0.1885 -0.7749
10076TIP3    H151643   2.290   5.533  12.156 -2.4356 -0.1545 -0.4392
10076TIP3    H251644   2.352   5.442  12.053 -0.0241 -0.1060  0.9004
10077TIP3   OH251645   4.361   4.547  16.277  0.4663  0.2231  0.0564
10077TIP3    H151646   4.441   4.595  16.298  1.4234 -0.8740 -0.9244
10077TIP3    H251647   4.379   4.457  16.305 -0.6480  0.0688  0.3309
10078TIP3   OH251648   2.777   1.635  13.619 -0.1447  0.3797 -0.4272
10078TIP3    H151649   2.692   1.670  13.594 -0.2387  1.8404  1.6611
10078TIP3    H251650   2.837   1.668  13.551 -0.7088  2.2966 -0.0552
10079TIP3   OH251651   1.715   5.532   3.231 -0.8100  0.5275 -0.5443
10079TIP3    H151652   1.751   5.606   3.182 -1.1207  1.4545  0.5812
10079TIP3    H251653   1.783   5.466   3.228  0.6188  1.8669  0.6768
10080TIP3   OH251654   5.982   0.591  12.305 -0.1867  0.4794  0.3874
10080TIP3    H151655   5.973   0.595  12.210 -2.0045  2.1170  0.5649
10080TIP3    H251656   6.042   0.662  12.327 -0.5024  0.7103  0.5175
10081TIP3   OH251657   2.721   6.202   4.365  0.2046  0.2191 -0.4019
10081TIP3    H151658   2.706   6.112   4.395  0.8240 -0.3016 -1.5681
10081TIP3    H251659   2.671   6.256   4.426 -0.3704 -0.9283  0.1900
10082TIP3   OH251660   3.023   3.038  16.291  0.0076 -0.5485 -0.3602
10082TIP3    H151661   3.083   3.005  16.224  2.2182  0.4014  1.0488
10082TIP3    H251662   2.982   2.959  16.326  0.0435 -1.1946 -1.6886
10083TIP3   OH251663   6.159   4.622  16.451 -0.0936  0.0660 -0.2082
10083TIP3    H151664   6.065   4.612  16.464 -0.2496  0.8868 -0.6491
10083TIP3    H251665   6.186   4.540  16.409 -0.6106 -0.1713 -0.0831
10084TIP3   OH251666   2.103   1.169  15.115 -0.0494  0.1106  0.0384
10084TIP3    H151667   2.068   1.092  15.159 -2.1990  1.2394  0.4435
10084TIP3    H251668   2.119   1.232  15.186 -0.3247  0.7628 -0.4668
10085TIP3   OH251669   0.127   2.061  12.732 -0.3941  0.0230 -0.6494
10085TIP3    H151670   0.213   2.087  12.700 -0.7663  1.5112 -0.4942
10085TIP3    H251671   0.101   1.989  12.674 -0.1823  1.3075 -2.4446
10086TIP3   OH251672   3.719   3.702   4.207 -0.1981 -0.0768 -0.2241
10086TIP3    H151673   3.737   3.795   4.200  1.4473 -0.2493  1.1858
10086TIP3    H251674   3.794   3.660   4.164 -0.8715 -0.7753 -0.7517
10087TIP3   OH251675   2.093   2.688  13.080  0.3506  0.3526  0.0463
10087TIP3    H151676   2.040   2.765  13.060 -0.7714 -0.8289 -1.9429
10087TIP3    H251677   2.183   2.720  13.083 -0.0409  1.6805 -1.2648
10088TIP3   OH251678   3.480   3.224   1.385  0.5359 -0.7889  0.3885
10088TIP3    H151679   3.546   3.287   1.412  0.2946 -0.7834  0.9716
10088TIP3    H251680   3.397   3.271   1.392  0.4254 -0.9381  0.1068
10089TIP3   OH251681   5.396   5.156  15.875 -0.2606  0.3001  0.5139
10089TIP3    H151682   5.430   5.078  15.830 -1.1563 -1.4469  2.6996
10089TIP3    H251683   5.305   5.163  15.845 -0.4660 -0.0885  1.0315
10090TIP3   OH251684   0.615   1.627   3.406 -0.4907  0.5839  0.1499
10090TIP3    H151685   0.699   1.647   3.365 -1.8147  4.2728 -1.1539
10090TIP3    H251686   0.607   1.691   3.477 -2.3992  0.6880 -0.1176
10091TIP3   OH251687   4.088   4.604  12.949 -0.1637  0.1122 -0.3580
10091TIP3    H151688   4.151   4.540  12.984  0.8458  1.8205  1.1295
10091TIP3    H251689   4.024   4.615  13.019 -0.8915  0.0387 -0.9973
10092TIP3   OH251690   0.878   0.212   2.817 -0.3246  0.4925  0.2198
10092TIP3    H151691   0.929   0.133   2.836 -1.3364  0.2945  2.4085
10092TIP3    H251692   0.788   0.181   2.813 -0.5647  1.2772 -0.7787
10093TIP3   OH251693   4.714   5.232   1.071  0.0529  0.0565 -0.2545
10093TIP3    H151694   4.709   5.247   0.977 -0.1003  0.8941 -0.1213
10093TIP3    H251695   4.788   5.173   1.082 -0.1015 -0.2719 -0.9221
10094TIP3   OH251696   4.739   3.573   1.529  0.1617  0.0329  0.3104
10094TIP3    H151697   4.736   3.567   1.434 -0.6644 -1.0578  0.3819
10094TIP3    H251698   4.832   3.579   1.550  0.3323  0.8631 -0.5783
10095TIP3   OH251699   0.626   1.808   5.817 -0.1579  0.5083 -0.2338
10095TIP3    H151700   0.587   1.882   5.769 -0.5576  0.5925  0.2098
10095TIP3    H251701   0.633   1.739   5.752 -3.9769 -0.6175  0.2810
10096TIP3   OH251702   2.503   3.784  13.234 -0.0418  0.0842 -0.2021
10096TIP3    H151703   2.598   3.777  13.247  0.1164  1.2539 -0.5550
10096TIP3    H251704   2.471   3.695  13.244  1.1716 -0.4328 -0.6355
10097TIP3   OH251705   5.687   4.566  11.218  0.3625  0.5193  0.4835
10097TIP3    H151706   5.772   4.588  11.179 -0.0094  0.9979 -0.0774
10097TIP3    H251707   5.655   4.492  11.166  0.9062 -0.3542  1.3716
10098TIP3   OH251708   0.242   4.857  15.614 -0.7273 -0.2259  0.0169
10098TIP3    H151709   0.205   4.895  15.693 -2.6532 -3.0633  0.6417
10098TIP3    H251710   0.172   4.867  15.549  0.1301  0.4224 -0.8373
10099TIP3   OH251711   0.509   6.411  13.433 -0.5240  0.2055  0.2955
10099TIP3    H151712   0.489   6.369  13.516 -2.6500  1.3681  0.4627
10099TIP3    H251713   0.473   6.499  13.441  1.4931  1.2202 -0.9619
10100TIP3   OH251714   1.232   2.073   0.219 -0.1464 -0.7692 -0.5716
10100TIP3    H151715   1.322   2.053   0.195 -0.1012  0.7620 -1.8617
10100TIP3    H251716   1.180   2.006   0.174  0.3692 -2.7342  1.5629
10101TIP3   OH251717   6.666   2.751  13.877 -0.3978  0.1166 -0.1816
10101TIP3    H151718   6.683   2.664  13.913 -2.4845 -0.2702  0.0070
10101TIP3    H251719   6.719   2.756  13.798 -0.5327 -1.4894 -0.3995
10102TIP3   OH251720   2.004   0.457  16.327 -0.0289 -0.0158 -0.4633
10102TIP3    H151721   2.091   0.418  16.332  0.1004  0.4019  0.6875
10102TIP3    H251722   1.946   0.390  16.364  0.1738  0.7722  1.3714
10103TIP3   OH251723   4.327   2.387  11.922 -0.1363 -0.2043  0.4875
10103TIP3    H151724   4.299   2.317  11.981 -1.3551 -0.4356 -0.3278
10103TIP3    H251725   4.279   2.370  11.840 -1.1901  2.1075  0.5723
10104TIP3   OH251726   1.212   0.446   6.061 -0.2386  1.1140 -0.7835
10104TIP3    H151727   1.273   0.397   6.006 -0.3304  0.4186 -0.2747
10104TIP3    H251728   1.257   0.529   6.078  0.9735  0.2773  0.3081
10105TIP3   OH251729   1.063   3.292  14.493 -0.3483 -0.5117  0.7298
10105TIP3    H151730   1.106   3.357  14.548 -3.1019  0.9524  1.3603
10105TIP3    H251731   1.005   3.343  14.436  0.3033 -2.1884 -1.6087
10106TIP3   OH251732   5.679   2.335  14.947  0.4441 -0.1364 -0.2017
10106TIP3    H151733   5.694   2.254  14.898 -0.5409  0.5043 -1.6101
10106TIP3    H251734   5.744   2.397  14.912 -0.2851  0.3345 -0.7376
10107TIP3   OH251735   0.254   0.228   1.919  0.1282  0.3640 -0.3885
10107TIP3    H151736   0.264   0.256   2.010 -0.8652 -0.4323 -0.0218
10107TIP3    H251737   0.343   0.203   1.892  0.4458  0.6899  0.3241
10108TIP3   OH251738   4.529   6.632  15.100 -0.1785  0.1655  0.0080
10108TIP3    H151739   4.572   6.570  15.158 -0.3924  1.1508  1.2588
10108TIP3    H251740   4.443   6.594  15.083 -0.5533  0.3852  1.2805
10109TIP3   OH251741   3.775   5.395   1.839 -0.0141  0.2212 -0.6168
10109TIP3    H151742   3.747   5.455   1.907 -1.4410  1.3171 -2.0851
10109TIP3    H251743   3.838   5.337   1.882  1.6420  2.8936  0.8329
10110TIP3   OH251744   0.455   3.815   1.056  0.1809  0.2345  0.2675
10110TIP3    H151745   0.380   3.782   1.105 -0.3170  0.4273 -0.3597
10110TIP3    H251746   0.504   3.737   1.030 -0.5548  0.0174 -0.5144
10111TIP3   OH251747   5.084   1.231   4.065 -0.2303 -0.2373 -0.1848
10111TIP3    H151748   5.161   1.218   4.011  0.8633 -1.4939  1.5486
10111TIP3    H251749   5.107   1.304   4.123 -0.2168 -0.7631  0.4922
10112TIP3   OH251750   1.849   0.195  14.052  0.5088  0.3613  0.5379
10112TIP3    H151751   1.766   0.170  14.011  1.1580 -2.0147  0.4729
10112TIP3    H251752   1.831   0.194  14.146  0.0891  1.4731  0.4813
10113TIP3   OH251753   5.554   3.201   4.662  0.3262  0.0066  0.5016
10113TIP3    H151754   5.508   3.124   4.696 -0.2998  0.5013  0.7936
10113TIP3    H251755   5.604   3.168   4.587  0.1921 -0.7129  0.7222
10114TIP3   OH251756   2.028   5.231  11.934 -0.1471 -0.5344  0.2054
10114TIP3    H151757   1.962   5.172  11.972  0.2578 -0.2450  1.3815
10114TIP3    H251758   2.050   5.291  12.004  1.0290 -0.3233 -0.3212
10115TIP3   OH251759   5.546   5.536  14.877 -0.3535  0.1727  0.3036
10115TIP3    H151760   5.573   5.606  14.818 -0.0990 -0.4598 -0.3483
10115TIP3    H251761   5.586   5.559  14.961 -0.1918  0.7523  0.0754
10116TIP3   OH251762   1.473   0.449   0.735  0.1225  0.4678 -0.3265
10116TIP3    H151763   1.526   0.422   0.660 -0.3068 -1.7348  0.0862
10116TIP3    H251764   1.450   0.367   0.778 -0.9598  1.5876  1.3240
10117TIP3   OH251765   4.974   1.038  11.098 -0.0460  0.0057 -0.0080
10117TIP3    H151766   4.964   1.131  11.122 -1.1254  0.2279 -1.2200
10117TIP3    H251767   5.057   1.035  11.051 -0.3325  0.5017 -0.5647
10118TIP3   OH251768   5.038   5.001   5.981 -0.4970  0.0776  0.2599
10118TIP3    H151769   5.048   4.937   5.910 -0.7342  1.0954 -0.7144
10118TIP3    H251770   5.082   4.960   6.056 -1.6147 -1.7254 -0.0022
10119TIP3   OH251771   4.086   4.361   1.397 -0.3785  0.1999  0.3717
10119TIP3    H151772   4.035   4.296   1.350 -0.2921  0.9726 -0.8088
10119TIP3    H251773   4.108   4.427   1.332  3.0121 -0.5882  0.5254
10120TIP3   OH251774   5.124   1.143   5.366  0.3267  1.2232 -0.0052
10120TIP3    H151775   5.157   1.232   5.362 -2.2054  2.3414  1.6538
10120TIP3    H251776   5.131   1.118   5.458  0.1104  0.0711 -0.2840
10121TIP3   OH251777   4.596   1.287   5.397  0.3072 -0.8329  0.1768
10121TIP3    H151778   4.684   1.320   5.381  0.6651 -1.2574  1.1747
10121TIP3    H251779   4.557   1.279   5.310  1.2313 -0.5902 -0.2730
10122TIP3   OH251780   5.326   4.233   4.993  0.1963  0.3288  0.1108
10122TIP3    H151781   5.362   4.256   5.079 -0.9200  0.3178  0.5985
10122TIP3    H251782   5.300   4.142   5.001  0.7801  0.0970 -0.4966
10123TIP3   OH251783   5.286   6.437  15.658 -0.2167  0.4598 -0.0251
10123TIP3    H151784   5.320   6.433  15.747  0.9897  2.7081 -0.3051
10123TIP3    H251785   5.363   6.443  15.602 -0.9369  2.2654 -0.9368
10124TIP3   OH251786   4.987   2.623  10.842 -0.1671  0.1548  0.0172
10124TIP3    H151787   4.915   2.614  10.904 -0.6456 -0.9210 -0.6632
10124TIP3    H251788   5.009   2.533  10.817 -0.0149  0.5513 -1.3911
10125TIP3   OH251789   5.698   0.712  13.636 -0.0790 -0.1213 -0.0107
10125TIP3    H151790   5.782   0.756  13.623  0.8416 -1.4627  1.0754
10125TIP3    H251791   5.685   0.661  13.556  0.6391 -0.6554  0.2006
10126TIP3   OH251792   0.125   4.356   4.416 -0.3617  0.4473  0.5137
10126TIP3    H151793   0.182   4.430   4.437  0.5411  0.1337 -0.7078
10126TIP3    H251794   0.184   4.290   4.380 -1.0591 -1.1072  2.1062
10127TIP3   OH251795   4.629   5.105   0.355  0.2092  0.3757  0.0903
10127TIP3    H151796   4.711   5.142   0.323  0.2859  0.2679  0.1593
10127TIP3    H251797   4.649   5.013   0.369 -0.8306 -0.4443 -3.0555
10128TIP3   OH251798   5.762   2.109   2.527  0.0222  0.7686 -0.2406
10128TIP3    H151799   5.817   2.141   2.598  0.1824  2.6003 -1.1432
10128TIP3    H251800   5.821   2.058   2.471  0.3921  1.1720 -0.2198
10129TIP3   OH251801   0.045   6.365   6.581  0.3305 -0.4017  0.3597
10129TIP3    H151802   0.069   6.425   6.510  1.9782 -1.2314  0.1714
10129TIP3    H251803  -0.045   6.340   6.561  0.4155  0.1882 -0.8617
10130TIP3   OH251804   6.014   1.660   3.743  0.9311 -0.4519 -0.3005
10130TIP3    H151805   6.094   1.711   3.759 -1.1119  2.8821  0.2607
10130TIP3    H251806   5.989   1.627   3.829  1.8134 -1.8083 -0.5329
10131TIP3   OH251807   3.787   3.169  12.909 -0.4838  0.0553  0.0678
10131TIP3    H151808   3.810   3.076  12.905 -2.9811 -0.6787  0.6636
10131TIP3    H251809   3.855   3.209  12.963  1.3595 -1.1339 -1.2769
10132TIP3   OH251810   3.369   6.426  16.391  0.0804  0.0327 -0.3896
10132TIP3    H151811   3.444   6.467  16.434 -0.4403  0.6577 -0.0527
10132TIP3    H251812   3.301   6.425  16.458 -1.0166  1.7784 -1.3775
10133TIP3   OH251813   5.897   4.424  11.909 -0.0625  0.4523  0.4082
10133TIP3    H151814   5.835   4.359  11.942  0.7689 -0.0157  1.0965
10133TIP3    H251815   5.976   4.374  11.891  0.2713  1.1177 -0.0197
10134TIP3   OH251816   3.912   5.779  13.225  0.7006 -0.0109 -0.0881
10134TIP3    H151817   3.945   5.867  13.206  0.9037 -0.2996 -1.1088
10134TIP3    H251818   3.970   5.747  13.294  0.1186  0.9558  0.8863
10135TIP3   OH251819   0.656   0.208  13.458 -0.0440  0.1173 -0.7851
10135TIP3    H151820   0.596   0.134  13.461  0.7433 -0.5054  0.3028
10135TIP3    H251821   0.638   0.250  13.374 -0.3347 -1.4494 -1.5358
10136TIP3   OH251822   2.360   5.787   1.106 -0.7937 -0.3041  0.2668
10136TIP3    H151823   2.272   5.816   1.129 -1.4563 -1.4776 -0.6865
10136TIP3    H251824   2.363   5.695   1.130 -1.4366 -1.5554 -3.6923
10137TIP3   OH251825   4.390   1.950  15.303 -0.3686  0.2884  0.2568
10137TIP3    H151826   4.474   1.950  15.349 -1.2067  2.5045  2.0111
10137TIP3    H251827   4.363   1.858  15.302  1.4145 -0.2821  0.9147
10138TIP3   OH251828   2.235   0.909   3.314  0.2811 -0.3469 -0.2876
10138TIP3    H151829   2.229   0.844   3.384 -1.1248  2.3858  2.3473
10138TIP3    H251830   2.318   0.955   3.331  0.9072 -0.8854 -1.6882
10139TIP3   OH251831   2.263   4.782   2.279 -0.6190  0.1157 -0.6352
10139TIP3    H151832   2.329   4.754   2.342 -1.0426 -0.5820 -0.4971
10139TIP3    H251833   2.312   4.828   2.212 -0.1085  0.4799 -0.0270
10140TIP3   OH251834   4.482   5.652   2.892 -0.0944  0.5551 -0.4405
10140TIP3    H151835   4.488   5.747   2.895 -0.0040  0.5531 -0.5404
10140TIP3    H251836   4.479   5.625   2.984 -2.6934  0.8042 -0.3698
10141TIP3   OH251837   5.475   4.193   3.156  0.3986  0.8497  0.1197
10141TIP3    H151838   5.434   4.153   3.233  1.1311 -1.5104 -0.6325
10141TIP3    H251839   5.473   4.287   3.175 -0.2813  0.4291  2.5875
10142TIP3   OH251840   0.125   2.294   6.531 -0.0392 -0.7757 -0.0191
10142TIP3    H151841   0.174   2.218   6.500 -0.7580 -1.0149 -0.5959
10142TIP3    H251842   0.160   2.311   6.618  3.3653  1.0336 -1.5503
10143TIP3   OH251843   5.124   4.451   0.972 -0.0681 -0.3436  0.0660
10143TIP3    H151844   5.041   4.403   0.977 -1.1929  1.4683 -0.3905
10143TIP3    H251845   5.121   4.495   0.887  0.8398  0.6586  0.5364
10144TIP3   OH251846   1.708   4.694  13.901 -0.0265  0.0252 -0.6327
10144TIP3    H151847   1.780   4.749  13.870 -0.8298  1.4911  0.0234
10144TIP3    H251848   1.646   4.755  13.941 -1.6530 -1.1875 -1.1788
10145TIP3   OH251849   0.342   1.158  16.379  0.3578 -0.3988  0.0439
10145TIP3    H151850   0.321   1.234  16.432  1.2757 -0.0914 -0.0151
10145TIP3    H251851   0.346   1.191  16.289  2.3357 -0.1462  0.1795
10146TIP3   OH251852   6.768   1.677  13.501  0.1815 -0.2707  0.1334
10146TIP3    H151853   6.736   1.649  13.587  1.3750 -0.2615  0.6011
10146TIP3    H251854   6.847   1.727  13.520 -0.4815  1.2067 -0.8784
10147TIP3   OH251855   1.271   1.772  11.998  0.7437  0.2114  0.3082
10147TIP3    H151856   1.190   1.728  11.971  1.1213  0.9096 -2.1910
10147TIP3    H251857   1.295   1.730  12.081 -1.4532 -0.9071  0.4499
10148TIP3   OH251858   4.786   6.514   5.486  0.4570  0.3790 -0.9567
10148TIP3    H151859   4.790   6.590   5.543 -0.5499  1.6101 -2.4253
10148TIP3    H251860   4.692   6.498   5.474  0.6385  0.0529 -2.0878
10149TIP3   OH251861   5.047   5.225   5.449 -0.3421 -0.0849 -0.0401
10149TIP3    H151862   5.096   5.219   5.531  0.7374  2.5433 -0.3927
10149TIP3    H251863   4.970   5.278   5.471  0.4232  1.4220 -0.8644
10150TIP3   OH251864   5.404   0.033   1.356  0.3517  0.3043  0.0200
10150TIP3    H151865   5.455  -0.023   1.298  0.0054  1.9862 -2.0639
10150TIP3    H251866   5.317  -0.007   1.358  0.4060  0.1546 -0.5173
10151TIP3   OH251867   3.053   4.189  13.733 -0.3772  0.2792  0.1950
10151TIP3    H151868   3.097   4.261  13.778 -0.6775  0.6290 -0.0631
10151TIP3    H251869   3.106   4.175  13.654 -1.0356  1.0806 -0.4025
10152TIP3   OH251870   4.265   4.225   8.593 -0.0820 -0.1107  0.2641
10152TIP3    H151871   4.286   4.160   8.525 -0.6460 -0.9739  0.8878
10152TIP3    H251872   4.192   4.186   8.641  0.4217  0.3985  1.4887
10153TIP3   OH251873   3.533   2.352   0.020  0.1447  0.1419 -0.6251
10153TIP3    H151874   3.564   2.262   0.025  0.2080  0.1604 -0.6803
10153TIP3    H251875   3.503   2.372   0.108 -2.1704 -0.7522 -1.1398
10154TIP3   OH251876   0.051   5.263  12.509  0.3379  0.0253  0.2999
10154TIP3    H151877  -0.024   5.208  12.529  0.7656 -0.0722  1.6821
10154TIP3    H251878   0.108   5.208  12.454  0.1470 -0.4444  0.5732
10155TIP3   OH251879   1.976   6.709   5.575  0.2001 -0.4591 -1.4116
10155TIP3    H151880   1.908   6.642   5.585 -2.7006  2.4653  0.4518
10155TIP3    H251881   1.970   6.735   5.483 -0.3844 -1.0535 -1.5475
10156TIP3   OH251882   4.838   4.010  11.480  0.2726 -0.5128 -0.0562
10156TIP3    H151883   4.923   3.985  11.517  1.1117  2.0906 -0.0631
10156TIP3    H251884   4.774   3.985  11.548  1.3547  0.2369  1.2806
10157TIP3   OH251885   3.764   0.062   4.316  0.4470 -0.3785  0.1857
10157TIP3    H151886   3.855   0.070   4.285  0.0071  0.4753 -0.9803
10157TIP3    H251887   3.736  -0.024   4.286  0.7823 -0.5290  0.2978
10158TIP3   OH251888   4.653   5.091  14.383 -0.2764  0.1147  0.3449
10158TIP3    H151889   4.589   5.050  14.441 -1.5707 -1.7178 -2.1758
10158TIP3    H251890   4.600   5.134  14.315  1.0443 -1.6335 -1.9487
10159TIP3   OH251891   5.205   0.463   3.526  0.5506  0.0333 -0.0174
10159TIP3    H151892   5.250   0.395   3.476 -1.3423 -1.0964 -0.2617
10159TIP3    H251893   5.207   0.432   3.616  0.8642  0.3405  0.0858
10160TIP3   OH251894   0.720   4.091   1.726 -0.0843 -0.3566 -0.1493
10160TIP3    H151895   0.772   4.012   1.740  0.7340  0.1215 -0.4085
10160TIP3    H251896   0.688   4.115   1.812  0.8663 -0.1613  0.1585
10161TIP3   OH251897   6.006   2.598  13.800  0.0450  0.2111 -0.2308
10161TIP3    H151898   6.058   2.673  13.828 -0.7383  1.0823 -1.0635
10161TIP3    H251899   5.964   2.566  13.880  1.2535 -0.0433  0.3160
10162TIP3   OH251900   1.794   5.675   2.639 -0.4613 -0.0542 -0.8310
10162TIP3    H151901   1.848   5.606   2.678 -0.4376 -0.8478 -2.2101
10162TIP3    H251902   1.827   5.756   2.679 -1.2750 -0.8930  1.6946
10163TIP3   OH251903   0.055   2.123  13.863  0.3433  0.0685  0.1349
10163TIP3    H151904   0.134   2.165  13.898  0.6146  0.6957 -1.1669
10163TIP3    H251905  -0.011   2.135  13.931  1.6264 -1.4257  1.7460
10164TIP3   OH251906   5.106   3.012  13.988  0.6459 -0.5813  0.3067
10164TIP3    H151907   5.099   3.035  14.080  1.0380 -0.7290  0.3731
10164TIP3    H251908   5.015   3.003  13.959  0.5323 -1.3396  0.8785
10165TIP3   OH251909   2.677   0.495   1.777  0.2037  0.4192 -0.3415
10165TIP3    H151910   2.600   0.446   1.748 -0.7515  1.3930  0.4632
10165TIP3    H251911   2.738   0.489   1.704 -0.1051 -1.4411 -0.5024
10166TIP3   OH251912   5.944   2.571  10.713 -0.6628  0.3646 -0.2479
10166TIP3    H151913   6.015   2.529  10.762  0.3163  1.3602 -0.7609
10166TIP3    H251914   5.866   2.556  10.766  0.2707  0.9857  1.3994
10167TIP3   OH251915   5.943   5.411   2.079 -0.0926  0.4574 -0.2736
10167TIP3    H151916   5.944   5.393   2.173  0.3050  0.5077 -0.2659
10167TIP3    H251917   6.018   5.469   2.065  1.7588 -1.9326 -1.0623
10168TIP3   OH251918   5.726   0.847   1.538  0.0147 -0.5469 -0.6239
10168TIP3    H151919   5.785   0.917   1.567 -0.5002 -0.8882  1.3969
10168TIP3    H251920   5.753   0.770   1.587 -0.3854 -1.4124 -1.7151
10169TIP3   OH251921   3.172   4.952   4.500  0.3664 -0.2457 -0.2493
10169TIP3    H151922   3.216   5.021   4.549  0.4254 -1.2653  1.1873
10169TIP3    H251923   3.136   4.894   4.567 -0.4359 -1.1499 -1.4155
10170TIP3   OH251924   5.129   5.260   6.039  0.1135  0.1467 -0.5180
10170TIP3    H151925   5.136   5.176   5.994 -0.8736 -0.1457 -0.1425
10170TIP3    H251926   5.050   5.300   6.004 -0.5748 -0.0046  0.8050
10171TIP3   OH251927   3.999   0.134  11.745  0.1340 -0.2870 -0.4990
10171TIP3    H151928   3.961   0.067  11.802  1.1287  0.0072  0.5677
10171TIP3    H251929   4.011   0.210  11.803 -0.1404  0.5170 -1.4663
10172TIP3   OH251930   0.430   2.201  13.249 -0.1626 -0.0495 -1.0362
10172TIP3    H151931   0.448   2.130  13.309 -0.0520  0.9002  0.0836
10172TIP3    H251932   0.516   2.240  13.230 -0.3559  0.6047 -0.5956
10173TIP3   OH251933   6.177   3.256  14.659  0.2609  0.3727  0.8868
10173TIP3    H151934   6.169   3.174  14.708  0.8410 -0.2059  0.0413
10173TIP3    H251935   6.087   3.289  14.652 -0.1131 -0.7488  0.2932
10174TIP3   OH251936   1.070   1.062   1.919 -0.0145 -0.1226 -0.3001
10174TIP3    H151937   0.989   1.013   1.928  0.3981 -0.7207  0.3067
10174TIP3    H251938   1.106   1.065   2.008  1.6016 -1.5758 -0.8478
10175TIP3   OH251939   3.897   5.700  11.970  0.4542  0.2514  0.4572
10175TIP3    H151940   3.810   5.659  11.969  0.3423  0.4469 -0.8529
10175TIP3    H251941   3.887   5.776  12.027 -0.4730  0.6980 -0.2611
10176TIP3   OH251942   4.998   3.004  12.818 -0.3579  0.1619  0.3630
10176TIP3    H151943   4.960   3.082  12.857  0.5891 -1.3739  4.9333
10176TIP3    H251944   5.072   2.983  12.874 -0.8498 -4.2803 -0.3157
10177TIP3   OH251945   5.203   5.832   0.908  0.0900  0.8262  0.0596
10177TIP3    H151946   5.239   5.743   0.917 -1.4533  0.0448 -0.9626
10177TIP3    H251947   5.254   5.872   0.838 -0.1194  0.2200 -0.4520
10178TIP3   OH251948   3.419   6.156  12.306 -0.1091 -0.1871  0.2578
10178TIP3    H151949   3.389   6.080  12.256 -1.5330  1.1213 -0.9916
10178TIP3    H251950   3.363   6.157  12.384 -0.3925 -0.1599  0.0537
10179TIP3   OH251951   5.952   2.445  12.570 -0.6594 -0.8369 -0.5867
10179TIP3    H151952   5.942   2.350  12.572  0.0936 -0.9228 -0.4735
10179TIP3    H251953   5.913   2.472  12.487  0.1288 -1.3790 -1.1467
10180TIP3   OH251954   2.623   3.620   2.075  0.1545 -0.8013  0.0096
10180TIP3    H151955   2.712   3.621   2.040  0.7480 -1.1582  1.4230
10180TIP3    H251956   2.615   3.534   2.117 -0.7372 -0.6400  0.1852
10181TIP3   OH251957   4.505   1.236  13.991  0.0271  0.0747  0.8943
10181TIP3    H151958   4.526   1.326  13.968  0.5220 -0.6543 -1.7627
10181TIP3    H251959   4.415   1.223  13.960 -0.2151 -0.2329  1.6833
10182TIP3   OH251960   4.309   3.323  15.439 -0.3765 -0.0439 -0.1144
10182TIP3    H151961   4.391   3.368  15.417  0.6171 -1.6901  0.0820
10182TIP3    H251962   4.256   3.329  15.359  0.7340 -0.6582 -0.9164
10183TIP3   OH251963   0.229   6.050   4.994  0.5467 -0.3204  0.1290
10183TIP3    H151964   0.151   6.098   5.022  0.5399  0.2653 -0.8424
10183TIP3    H251965   0.299   6.083   5.050 -0.2262 -2.2847  2.3896
10184TIP3   OH251966   1.069   2.787   2.061 -0.5006  0.1713  0.0798
10184TIP3    H151967   1.125   2.844   2.009  1.6522 -0.7097  1.2850
10184TIP3    H251968   1.026   2.845   2.124  2.6257  0.4558  2.1311
10185TIP3   OH251969   3.530   2.112  15.243 -0.5447  0.3642 -0.6211
10185TIP3    H151970   3.598   2.179  15.237 -0.4997  0.3492 -0.3113
10185TIP3    H251971   3.556   2.045  15.180 -0.0595  0.1739 -0.2272
10186TIP3   OH251972   2.936   1.998   4.709 -0.3719  0.3988 -0.0837
10186TIP3    H151973   3.002   2.064   4.689 -0.1265 -0.3878 -2.1537
10186TIP3    H251974   2.856   2.031   4.666 -0.6316  0.0759  0.1460
10187TIP3   OH251975   5.203   3.353  12.216 -0.8465  0.3947  0.8288
10187TIP3    H151976   5.278   3.305  12.254 -1.9405 -2.8575 -0.7525
10187TIP3    H251977   5.132   3.339  12.279 -1.3834 -0.8722 -0.0174
10188TIP3   OH251978   4.898   3.130   4.355  0.1954 -0.3108 -0.4093
10188TIP3    H151979   4.871   3.114   4.445  2.2215 -1.2206  0.1021
10188TIP3    H251980   4.994   3.122   4.357  0.4100  1.0443 -2.3801
10189TIP3   OH251981   5.317   1.140  14.089  0.8015  0.3599  1.2345
10189TIP3    H151982   5.291   1.091  14.168  0.9539  0.7975  1.5597
10189TIP3    H251983   5.310   1.232  14.114 -2.8799  0.6932 -0.4126
10190TIP3   OH251984   0.137   6.130   1.891  0.3259 -0.0317 -0.2361
10190TIP3    H151985   0.046   6.141   1.865  0.3250 -1.4370 -0.9520
10190TIP3    H251986   0.162   6.045   1.853  1.6011 -0.1715  0.8586
10191TIP3   OH251987   4.226   2.324   0.766 -0.5742  0.2893  0.2010
10191TIP3    H151988   4.307   2.361   0.731 -0.4612 -1.0958 -1.1139
10191TIP3    H251989   4.253   2.278   0.845  0.0028 -0.4387 -0.4028
10192TIP3   OH251990   5.095   1.663   0.589  0.7529  0.3766 -0.5140
10192TIP3    H151991   5.118   1.574   0.561  2.5924  0.6404  0.0389
10192TIP3    H251992   5.173   1.695   0.634 -0.0508  2.1093 -0.2734
10193TIP3   OH251993   6.295   2.441  16.927 -0.1892  0.0258  0.1299
10193TIP3    H151994   6.377   2.392  16.933 -1.1572 -1.5724  1.0044
10193TIP3    H251995   6.281   2.453  16.833  0.3497 -0.9111 -0.0799
10194TIP3   OH251996   3.162   4.234   3.917  0.5551 -0.7144 -0.2328
10194TIP3    H151997   3.097   4.181   3.870 -0.5111  1.8820 -1.8722
10194TIP3    H251998   3.239   4.233   3.860  0.3105 -0.0211 -0.5859
10195TIP3   OH251999   2.203   4.863   5.166 -0.5604 -0.3888  0.1024
10195TIP3    H152000   2.173   4.923   5.234 -0.1684  0.9170 -0.8262
10195TIP3    H252001   2.275   4.816   5.206 -2.1280 -1.7224  1.5071
10196TIP3   OH252002   4.190   1.084   4.043  0.6601 -0.7654 -0.1807
10196TIP3    H152003   4.129   1.046   4.106 -1.3408  0.1030 -1.4708
10196TIP3    H252004   4.256   1.127   4.097 -0.4503 -0.8573  1.3261
10197TIP3   OH252005   1.102   2.257  14.225  0.3476 -0.2849 -0.1929
10197TIP3    H152006   1.159   2.255  14.303  0.0867  1.2359  0.0689
10197TIP3    H252007   1.162   2.269  14.152  0.4507  0.4117 -0.0036
10198TIP3   OH252008   4.746   6.432  13.741  0.4193 -0.6345 -0.1987
10198TIP3    H152009   4.839   6.433  13.717 -0.0427  0.1638 -2.1522
10198TIP3    H252010   4.736   6.504  13.802  0.8473  0.2084 -1.0952
10199TIP3   OH252011   2.256   0.701   6.116  0.0315  0.0839  0.0462
10199TIP3    H152012   2.255   0.695   6.211  2.3615  0.4504  0.1482
10199TIP3    H252013   2.220   0.618   6.086  0.2295 -0.4542  1.2452
10200TIP3   OH252014   0.013   4.808   4.129  0.2142 -0.0071  0.1520
10200TIP3    H152015   0.087   4.801   4.191  0.6757  1.6146 -0.1703
10200TIP3    H252016   0.038   4.751   4.056  1.6340  1.2284 -0.3819
10201TIP3   OH252017   4.035   3.569   4.764  0.4939 -0.3654 -0.0819
10201TIP3    H152018   4.001   3.506   4.828 -2.0658  0.9571 -0.0255
10201TIP3    H252019   4.130   3.558   4.768  0.3807 -1.0262  3.2215
10202TIP3   OH252020   4.095   6.235   3.818 -0.4388  0.6251  0.4295
10202TIP3    H152021   4.034   6.299   3.783 -0.1303  1.4249  1.3123
10202TIP3    H252022   4.060   6.150   3.790 -0.7636  1.1737 -0.8835
10203TIP3   OH252023   5.705   4.589   2.547 -0.7329  0.1289 -0.3142
10203TIP3    H152024   5.707   4.669   2.600 -0.5577  0.3321 -0.6160
10203TIP3    H252025   5.763   4.528   2.593  0.5846  0.7920 -1.0065
10204TIP3   OH252026   0.754   3.799   3.994  0.1219 -0.3201  0.1713
10204TIP3    H152027   0.823   3.809   3.929 -0.5399 -0.6744 -0.6057
10204TIP3    H252028   0.678   3.842   3.955 -0.4615 -1.0982  0.4273
10205TIP3   OH252029   6.367   3.081  10.761  0.3373  0.3633 -0.2508
10205TIP3    H152030   6.417   3.039  10.691  0.8081  0.3452  0.0914
10205TIP3    H252031   6.414   3.163  10.779  1.1681 -0.3968  1.1653
10206TIP3   OH252032   3.708   4.912   0.879  0.3430 -0.8218  0.1072
10206TIP3    H152033   3.786   4.904   0.824  1.5571  0.4258  1.5671
10206TIP3    H252034   3.646   4.849   0.842  1.2006 -0.2441 -2.4649
10207TIP3   OH252035   5.825   1.569  13.027 -0.3936  0.1965 -0.1669
10207TIP3    H152036   5.875   1.538  12.951 -0.6348  0.1285 -0.2969
10207TIP3    H252037   5.892   1.586  13.094 -0.1335  0.7678 -0.5671
10208TIP3   OH252038   2.669   2.416   5.580  0.5627  0.0097 -0.3815
10208TIP3    H152039   2.574   2.416   5.591  0.6170 -0.2233  0.0983
10208TIP3    H252040   2.701   2.476   5.647  0.5926  2.0820 -2.1057
10209TIP3   OH252041   4.446   5.029  11.528 -0.6726  0.3065 -0.1286
10209TIP3    H152042   4.435   5.018  11.434  1.1358 -1.1113 -0.2335
10209TIP3    H252043   4.380   5.094  11.553 -0.5491  1.4536 -2.5282
10210TIP3   OH252044   3.201   6.282  14.572 -0.1249 -0.4382 -0.0750
10210TIP3    H152045   3.263   6.270  14.501  0.3571 -0.6370  0.3740
10210TIP3    H252046   3.144   6.206  14.568 -0.2924 -0.2961 -0.4363
10211TIP3   OH252047   3.318   1.875  12.549 -0.6029 -0.1268 -0.3692
10211TIP3    H152048   3.372   1.948  12.520  1.0971 -1.4056 -0.5480
10211TIP3    H252049   3.264   1.912  12.619 -2.9818  2.4015 -3.1940
10212TIP3   OH252050   4.244   5.261   5.876  0.1345 -0.3442 -0.3755
10212TIP3    H152051   4.236   5.292   5.786  2.4244 -0.5360 -0.6858
10212TIP3    H252052   4.324   5.209   5.877 -1.0478 -2.2942  1.2554
10213TIP3   OH252053   6.039   2.750  16.981  0.1085  0.0971  0.2027
10213TIP3    H152054   5.970   2.713  16.926 -0.2462 -0.4204  0.9829
10213TIP3    H252055   6.082   2.815  16.925 -0.0848 -0.5854 -0.7633
10214TIP3   OH252056   1.638   5.245   4.470  0.5323  0.3664  0.2017
10214TIP3    H152057   1.699   5.238   4.396  2.5500  0.3557  1.7827
10214TIP3    H252058   1.620   5.338   4.478 -0.4763  0.2914 -0.8476
10215TIP3   OH252059   3.655   1.096   0.692  0.4013  0.6961 -0.1002
10215TIP3    H152060   3.741   1.075   0.727 -0.4002 -1.7623  0.5846
10215TIP3    H252061   3.642   1.034   0.620 -0.8833  0.8528 -0.0317
10216TIP3   OH252062   2.158   1.843   2.296  0.3978  0.0705 -0.1843
10216TIP3    H152063   2.135   1.771   2.355  0.0718  0.9177  0.7552
10216TIP3    H252064   2.111   1.824   2.215  0.6999 -1.0188 -0.1197
10217TIP3   OH252065   3.549   5.786   0.622  0.5144  0.1244 -0.2737
10217TIP3    H152066   3.628   5.783   0.568  0.0406 -0.6412 -0.9448
10217TIP3    H252067   3.479   5.758   0.564  0.0329 -1.0013  0.8025
10218TIP3   OH252068   5.587   4.008   4.076 -0.2091 -0.0664 -0.2466
10218TIP3    H152069   5.601   4.100   4.098 -2.2431  0.2682 -0.1481
10218TIP3    H252070   5.514   4.010   4.014  0.5285 -1.5422 -1.2018
10219TIP3   OH252071   0.988   0.210  12.075 -0.0867 -0.2077 -0.1550
10219TIP3    H152072   0.916   0.178  12.020 -1.3935 -0.3921  1.5703
10219TIP3    H252073   1.059   0.228  12.013 -1.5736 -0.0865 -1.9283
10220TIP3   OH252074   4.262   0.544   3.262 -0.1877 -0.0213 -0.1619
10220TIP3    H152075   4.320   0.561   3.336  2.3432 -2.5075 -1.3838
10220TIP3    H252076   4.190   0.492   3.299 -1.4228  2.4890  1.2422
10221TIP3   OH252077   1.331   1.975   4.095  0.2981  0.0783  0.8416
10221TIP3    H152078   1.366   1.886   4.092  2.5083  0.9099 -0.5892
10221TIP3    H252079   1.248   1.970   4.047  0.6117 -1.1192  0.3970
10222TIP3   OH252080   2.796   4.613   3.324  0.6628  0.1899  0.1602
10222TIP3    H152081   2.769   4.561   3.248  0.7162 -0.6975  0.7305
10222TIP3    H252082   2.829   4.548   3.387  0.7076  0.9152  0.9028
10223TIP3   OH252083   1.580   2.328   5.684  0.5931  0.0893  0.0679
10223TIP3    H152084   1.491   2.300   5.704  1.0188 -2.0434 -0.7583
10223TIP3    H252085   1.570   2.390   5.612 -0.2929  0.9723  0.9241
10224TIP3   OH252086   5.212   5.112   1.121  0.7032 -0.3684  0.4985
10224TIP3    H152087   5.228   5.119   1.215  0.3044 -0.5518  0.5842
10224TIP3    H252088   5.151   5.039   1.113 -2.3373  1.9193  0.5062
10225TIP3   OH252089   4.883   6.344  11.514 -0.0034  0.1707 -0.2223
10225TIP3    H152090   4.953   6.279  11.525 -0.1951 -0.1425 -0.8131
10225TIP3    H252091   4.926   6.418  11.471 -0.3444 -0.6401 -2.0566
10226TIP3   OH252092   5.915   4.238   1.235 -0.3647  0.2413  0.3255
10226TIP3    H152093   5.862   4.211   1.160  0.0374 -0.0397  0.1357
10226TIP3    H252094   5.854   4.283   1.293 -0.8779 -0.3607  0.2639
10227TIP3   OH252095   2.794   5.570   3.258  0.2358 -0.5985 -0.1657
10227TIP3    H152096   2.866   5.549   3.317 -0.2428 -0.0124  0.6609
10227TIP3    H252097   2.737   5.493   3.262  0.7311 -1.0046 -0.7131
10228TIP3   OH252098   5.721   2.216   3.013  0.0412 -0.4990  0.5872
10228TIP3    H152099   5.783   2.145   2.995 -0.1468 -0.6357  0.4738
10228TIP3    H252100   5.756   2.291   2.964 -0.2876 -0.7811 -0.0979
10229TIP3   OH252101   1.463   2.900  16.265  0.0604 -0.2084  0.1734
10229TIP3    H152102   1.541   2.848  16.245 -0.8404 -0.7800 -2.1355
10229TIP3    H252103   1.476   2.981  16.216  0.5094  0.9696  2.1357
10230TIP3   OH252104   4.842   4.988   1.173 -0.5968  0.5121 -0.2231
10230TIP3    H152105   4.782   4.936   1.119 -0.7434  0.5697 -0.1168
10230TIP3    H252106   4.916   4.929   1.191 -2.2451 -0.8861  2.7005
10231TIP3   OH252107   3.767   6.055   1.252  0.9629 -0.4738 -0.0920
10231TIP3    H152108   3.792   6.070   1.161 -0.0666  1.2327 -0.1414
10231TIP3    H252109   3.807   5.972   1.274  0.8380 -1.1878 -2.2618
10232TIP3   OH252110   1.506   0.642  12.864 -0.2641  0.3818  0.4828
10232TIP3    H152111   1.541   0.604  12.945  0.2217  0.0858  0.1404
10232TIP3    H252112   1.543   0.730  12.861 -0.9213  0.6811  0.9802
10233TIP3   OH252113   4.887   1.730   5.427 -0.0649  0.2801 -0.3767
10233TIP3    H152114   4.817   1.747   5.490  0.6424  0.7815  0.2862
10233TIP3    H252115   4.967   1.757   5.472  0.4789  0.3906 -1.3896
10234TIP3   OH252116   4.020   2.553   6.275  0.0537  0.2142 -0.3390
10234TIP3    H152117   3.986   2.517   6.192 -0.6841  0.1843 -0.0366
10234TIP3    H252118   3.975   2.637   6.284  3.6645  2.6222 -2.3574
10235TIP3   OH252119   2.243   0.379  12.978 -0.0079 -0.0256 -0.3817
10235TIP3    H152120   2.181   0.450  12.964 -0.7154 -0.2640  1.2931
10235TIP3    H252121   2.328   0.416  12.954 -0.3300  1.4913  0.6721
10236TIP3   OH252122   0.830   0.519  11.707 -0.6530  0.3579  0.0604
10236TIP3    H152123   0.925   0.514  11.721 -0.8001  0.2950  1.0371
10236TIP3    H252124   0.811   0.443  11.651 -0.0285  0.7752 -0.7528
10237TIP3   OH252125   3.381   1.428   3.948 -0.3440 -0.1717  0.2895
10237TIP3    H152126   3.432   1.367   3.896 -1.5876 -0.1773 -0.9826
10237TIP3    H252127   3.441   1.501   3.966  1.6806 -2.2929  3.1535
10238TIP3   OH252128   2.340   2.771  11.280 -0.0196 -0.2454  0.1888
10238TIP3    H152129   2.270   2.836  11.278 -1.1400 -1.4300 -0.9304
10238TIP3    H252130   2.404   2.802  11.217 -0.0902  0.2459  0.3558
10239TIP3   OH252131   3.562   4.751   6.062 -0.1172 -0.0167  0.1710
10239TIP3    H152132   3.561   4.693   6.138 -0.3944  0.0724  0.2395
10239TIP3    H252133   3.654   4.769   6.046 -0.0621  0.0749  0.5729
10240TIP3   OH252134   4.248   0.509   4.991 -0.0484 -0.0892  0.1109
10240TIP3    H152135   4.299   0.560   4.928  0.3176 -0.7949 -0.1710
10240TIP3    H252136   4.206   0.441   4.938 -0.6534  0.0059  0.4605
10241TIP3   OH252137   2.512   4.817   4.803 -0.6445 -0.5305  0.3209
10241TIP3    H152138   2.560   4.895   4.830 -0.5163 -0.8247  0.9722
10241TIP3    H252139   2.555   4.745   4.851 -0.4663 -1.0605 -0.6120
10242TIP3   OH252140   1.014   5.432   6.369 -0.1775  0.1069 -0.4206
10242TIP3    H152141   0.946   5.366   6.360  0.6521 -0.8743  0.2148
10242TIP3    H252142   0.975   5.501   6.423 -0.3417 -0.9279  0.8253
10243TIP3   OH252143   2.518   1.693  15.639 -0.0664  0.2710  0.1387
10243TIP3    H152144   2.521   1.684  15.734  0.6295  1.5667  0.2684
10243TIP3    H252145   2.598   1.741  15.618 -0.0427 -0.3107 -1.1419
10244TIP3   OH252146   2.295   6.023   3.165 -1.3158  0.4482 -0.2626
10244TIP3    H152147   2.306   5.938   3.123 -0.2487 -0.6284  2.0089
10244TIP3    H252148   2.267   6.081   3.095  1.6040 -0.8651 -2.7414
10245TIP3   OH252149   5.799   4.178  15.053  0.6280  0.1410  0.3541
10245TIP3    H152150   5.841   4.092  15.056  0.0037 -0.1718  0.4429
10245TIP3    H252151   5.712   4.163  15.092  0.5837  0.8514  0.5406
10246TIP3   OH252152   0.652   0.993   0.679  0.8412 -0.4508  0.2648
10246TIP3    H152153   0.721   0.927   0.671 -1.3811 -2.8731 -0.6468
10246TIP3    H252154   0.671   1.056   0.610  3.8567  0.8412  2.0865
10247TIP3   OH252155   4.484   0.062   1.337  0.4988 -0.0410 -0.1082
10247TIP3    H152156   4.489   0.157   1.350  0.1031  0.1236 -1.0431
10247TIP3    H252157   4.486   0.051   1.242 -0.0142 -0.9345 -0.0277
10248TIP3   OH252158   4.942   2.261   2.139  0.4379  0.4859  0.3450
10248TIP3    H152159   4.945   2.243   2.045 -0.6962  1.9525 -0.0196
10248TIP3    H252160   4.932   2.175   2.180 -0.6410 -0.0498 -0.9816
10249TIP3   OH252161   4.661   5.070   0.706 -0.0931 -0.4711  0.1999
10249TIP3    H152162   4.607   4.991   0.716  0.6397 -0.9022  0.8310
10249TIP3    H252163   4.638   5.103   0.619 -3.4795  0.9798  1.4639
10250TIP3   OH252164   5.954   4.301  11.458  0.2925 -0.7587 -0.0322
10250TIP3    H152165   5.904   4.306  11.377 -1.0953 -1.3474  0.7497
10250TIP3    H252166   5.899   4.249  11.517  1.0286  0.0846  1.4532
10251TIP3   OH252167   2.394   3.481  11.745  0.4700  0.8356  0.5243
10251TIP3    H152168   2.474   3.439  11.776 -0.0336 -2.2898 -1.9211
10251TIP3    H252169   2.332   3.409  11.731 -1.4048  2.6803 -1.4715
10252TIP3   OH252170   3.067   6.120   4.698 -0.1281 -0.0329  0.4612
10252TIP3    H152171   3.045   6.029   4.716 -1.5602  0.2545  0.3080
10252TIP3    H252172   3.145   6.116   4.643 -0.2673 -1.1645  0.3217
10253TIP3   OH252173   3.256   3.079   0.481  0.1067 -0.3489  0.0178
10253TIP3    H152174   3.314   3.003   0.481 -2.3361 -2.3491  1.1953
10253TIP3    H252175   3.197   3.064   0.555 -2.7029  0.8887 -1.8147
10254TIP3   OH252176   0.343   3.617  14.756  0.9141  0.2721 -0.3340
10254TIP3    H152177   0.355   3.590  14.847  0.5994  1.7700  0.1775
10254TIP3    H252178   0.248   3.630  14.748  0.7919 -0.9968 -1.2363
10255TIP3   OH252179   2.367   0.653  14.909 -0.3793  0.0581  0.0954
10255TIP3    H152180   2.322   0.578  14.870 -0.7028  0.3424 -0.0866
10255TIP3    H252181   2.403   0.701  14.834  2.0371 -1.2634  0.3179
10256TIP3   OH252182   6.393   6.050   4.195  0.0298  0.7261 -0.4655
10256TIP3    H152183   6.459   6.064   4.263  1.3309 -1.5944 -1.1484
10256TIP3    H252184   6.360   5.962   4.211 -2.3083  1.4792 -0.7160
10257TIP3   OH252185   1.322   0.303  12.174 -0.2067  0.1784  0.1158
10257TIP3    H152186   1.381   0.233  12.144 -1.2968 -0.9621  0.5551
10257TIP3    H252187   1.279   0.334  12.095 -0.5241 -0.4177  0.0509
10258TIP3   OH252188   6.145   3.242   2.977 -0.6443  0.0096  0.1268
10258TIP3    H152189   6.239   3.260   2.971 -1.2159  3.5263 -0.3991
10258TIP3    H252190   6.119   3.227   2.886 -0.6516 -0.7254  0.2460
10259TIP3   OH252191   5.058   2.040   1.266 -0.2881 -0.8462  0.2072
10259TIP3    H152192   5.137   2.066   1.312 -0.2798  0.3759 -0.4698
10259TIP3    H252193   4.993   2.106   1.290 -0.0663  0.2801 -2.1240
10260TIP3   OH252194   0.521   3.931  11.952  0.3114 -0.2676  0.4712
10260TIP3    H152195   0.585   3.959  12.018  1.7320 -1.5937 -0.2954
10260TIP3    H252196   0.477   3.856  11.991  1.1592 -1.0590 -0.0470
10261TIP3   OH252197   4.869   0.067  12.683  0.0328 -0.4851  0.2106
10261TIP3    H152198   4.844   0.157  12.663  0.6576 -0.2125  0.6274
10261TIP3    H252199   4.825   0.014  12.616 -1.6657 -0.0395  0.9272
10262TIP3   OH252200   2.849   6.391  16.601  0.2883  0.2412  0.5323
10262TIP3    H152201   2.757   6.416  16.590  0.1076 -0.3594  0.6706
10262TIP3    H252202   2.863   6.393  16.696  0.4158  0.3096  0.5141
10263TIP3   OH252203   2.528   6.750  16.799  0.2061 -0.0427 -0.3693
10263TIP3    H152204   2.495   6.663  16.822  0.0750  0.3124  0.8507
10263TIP3    H252205   2.619   6.750  16.828 -0.1766  0.6695  0.9034
10264TIP3   OH252206   1.402   4.355  11.675 -0.0376 -0.7290  0.6196
10264TIP3    H152207   1.433   4.284  11.731  1.9756 -1.6251 -1.4948
10264TIP3    H252208   1.380   4.312  11.592 -0.8993  0.8469 -0.0071
10265TIP3   OH252209   5.327   2.197  12.795  0.2672  0.1047  0.1481
10265TIP3    H152210   5.394   2.135  12.824  1.3159  1.1926  0.1384
10265TIP3    H252211   5.286   2.227  12.875 -1.4858 -1.8573  0.0826
10266TIP3   OH252212   1.061   3.403   4.652  0.3965  0.2808  0.1595
10266TIP3    H152213   1.047   3.333   4.588 -1.6287  1.4600 -0.8286
10266TIP3    H252214   1.154   3.422   4.647  1.0807 -2.4513  0.6672
10267TIP3   OH252215   5.373   2.511   2.294 -0.1855 -0.2844 -0.1502
10267TIP3    H152216   5.339   2.597   2.315 -1.1156 -0.5922 -0.3320
10267TIP3    H252217   5.426   2.486   2.370 -2.3453 -0.8040  1.2827
10268TIP3   OH252218   1.669   2.736   0.892  0.5045  0.2486  0.1276
10268TIP3    H152219   1.723   2.660   0.871  0.2734  0.3160 -0.7585
10268TIP3    H252220   1.584   2.699   0.917  0.1288  0.2166 -1.1041
10269TIP3   OH252221   5.623   5.681   4.283  0.1957  0.2814 -0.0903
10269TIP3    H152222   5.670   5.615   4.233 -1.0495  0.1578 -1.1696
10269TIP3    H252223   5.689   5.747   4.304  0.7232  0.5548 -2.2990
10270TIP3   OH252224   6.306   2.460  15.685  1.1060  0.4130 -0.2789
10270TIP3    H152225   6.216   2.492  15.693  1.2415  0.7482 -0.0504
10270TIP3    H252226   6.322   2.455  15.591  0.4767 -0.7145 -0.3521
10271TIP3   OH252227   1.093   3.010  12.727  0.6481 -0.4311 -0.1112
10271TIP3    H152228   1.068   2.922  12.757 -1.1613  0.4547  1.1929
10271TIP3    H252229   1.010   3.058  12.722  1.4259  0.8578 -2.1076
10272TIP3   OH252230   4.531   5.356   0.779 -0.8296 -0.7208  0.4130
10272TIP3    H152231   4.512   5.327   0.689 -1.8618  1.0124  0.0353
10272TIP3    H252232   4.606   5.414   0.769 -0.7706 -0.7482  0.7158
10273TIP3   OH252233   0.350   5.274  14.686 -0.3056 -0.0882 -0.0722
10273TIP3    H152234   0.352   5.201  14.747 -0.1795  0.5768  0.7402
10273TIP3    H252235   0.316   5.237  14.605 -1.7015 -0.7184  0.7688
10274TIP3   OH252236   3.089   4.748  11.893  0.6407  0.4099 -1.2397
10274TIP3    H152237   3.025   4.716  11.958  1.2137 -1.1601 -1.4142
10274TIP3    H252238   3.157   4.790  11.945  0.2788  0.6427 -0.9462
10275TIP3   OH252239   1.775   2.932  14.991  0.4140  0.2180 -0.2708
10275TIP3    H152240   1.836   2.959  15.059  0.6140 -0.0252 -0.3543
10275TIP3    H252241   1.717   3.007  14.980  0.3316  0.2321  0.2247
10276TIP3   OH252242   4.205   4.555   3.979 -0.2256  0.2071  0.2047
10276TIP3    H152243   4.240   4.476   4.022 -1.8367  0.1545  1.5514
10276TIP3    H252244   4.126   4.576   4.030 -0.4571  2.0377 -0.8375
10277TIP3   OH252245   5.646   5.965   1.480  0.1391 -0.0218  0.0189
10277TIP3    H152246   5.620   5.947   1.570 -0.5074  0.7964  0.0031
10277TIP3    H252247   5.630   5.882   1.434  0.7678 -0.5431  0.6978
10278TIP3   OH252248   5.233   2.538   0.142 -0.7605 -0.5829  0.0045
10278TIP3    H152249   5.291   2.553   0.217 -0.2736  1.0188 -0.6427
10278TIP3    H252250   5.169   2.609   0.148 -1.8223 -1.5123 -0.0890
10279TIP3   OH252251   3.102   5.056  13.132  0.1415 -0.4331 -0.0842
10279TIP3    H152252   3.068   5.048  13.043  1.6541 -0.0474 -0.7401
10279TIP3    H252253   3.140   5.144  13.135 -0.7865 -0.0522  1.2927
10280TIP3   OH252254   1.588   4.345   6.422 -0.1244  0.2845 -0.5297
10280TIP3    H152255   1.666   4.343   6.366  0.5333  1.1131  0.3148
10280TIP3    H252256   1.617   4.306   6.505 -0.2124  1.7887  0.2375
10281TIP3   OH252257   5.010   2.542  12.131 -0.0997  0.3399 -0.6399
10281TIP3    H152258   4.989   2.481  12.202 -0.5171 -0.7089 -1.6325
10281TIP3    H252259   4.996   2.629  12.169 -0.2789 -0.1959  0.5633
10282TIP3   OH252260   4.333   1.195   4.656  0.4026 -0.3219  0.0792
10282TIP3    H152261   4.295   1.108   4.647  0.5851 -0.5727  1.4916
10282TIP3    H252262   4.298   1.228   4.738  2.9530 -0.4554  1.3355
10283TIP3   OH252263   2.311   3.962  15.357  0.2237  0.3009 -0.4792
10283TIP3    H152264   2.265   3.880  15.339 -1.0793  1.2876 -1.9623
10283TIP3    H252265   2.403   3.942  15.344 -0.1826 -0.6136 -2.2162
10284TIP3   OH252266   2.980   0.175  14.867 -0.0690 -0.0692  0.0511
10284TIP3    H152267   2.950   0.085  14.853 -0.6262  0.3196 -1.4311
10284TIP3    H252268   2.967   0.218  14.783 -0.2488  1.5309  0.8617
10285TIP3   OH252269   6.593   0.382  14.024 -0.1959 -0.9545  0.1426
10285TIP3    H152270   6.546   0.311  14.068  1.0318 -2.7090 -1.2179
10285TIP3    H252271   6.552   0.388  13.938  0.8823 -1.2604 -0.3999
10286TIP3   OH252272   3.915   6.298  15.668 -0.2368  0.6120 -0.2952
10286TIP3    H152273   3.891   6.207  15.655  1.0454  0.4915 -2.1667
10286TIP3    H252274   3.915   6.336  15.580  2.9155  1.4244 -0.0722
10287TIP3   OH252275   6.083   4.173   6.036  0.2803  0.0766  0.4567
10287TIP3    H152276   6.060   4.089   5.996 -1.1131  1.4394 -1.7952
10287TIP3    H252277   6.158   4.204   5.985  1.7134 -0.3347  2.1746
10288TIP3   OH252278   6.502   3.714  11.610 -1.0707 -0.0387  0.6560
10288TIP3    H152279   6.537   3.628  11.588 -0.9936  0.3470 -0.8630
10288TIP3    H252280   6.578   3.772  11.609 -1.3247  0.2958  0.1743
10289TIP3   OH252281   4.829   2.270   1.255  0.0776  0.3800  0.2063
10289TIP3    H152282   4.753   2.326   1.270  0.9123  1.2863  1.3192
10289TIP3    H252283   4.902   2.320   1.291  0.9837 -1.0907  0.4967
10290TIP3   OH252284   5.898   6.052   2.305  0.1669  0.0808  0.0426
10290TIP3    H152285   5.877   6.141   2.331 -0.6717 -0.5110  1.5226
10290TIP3    H252286   5.813   6.007   2.301  0.7368 -1.3525  2.1906
10291TIP3   OH252287   1.017   6.147  13.143  0.6182  1.0122  0.0044
10291TIP3    H152288   0.949   6.174  13.081  0.5287  0.4561 -0.1518
10291TIP3    H252289   1.085   6.214  13.136  0.1116  1.5441  0.1199
10292TIP3   OH252290   0.405   6.637  15.224  0.3403 -0.1000 -0.1545
10292TIP3    H152291   0.493   6.640  15.188 -0.7021 -1.9200 -3.2184
10292TIP3    H252292   0.376   6.729  15.224  1.4936  0.2940 -1.0962
10293TIP3   OH252293   5.659   1.188  13.390  0.5451 -0.4280  0.0206
10293TIP3    H152294   5.743   1.232  13.405  0.4115 -0.5198  1.0876
10293TIP3    H252295   5.682   1.097  13.374  0.6504 -0.4659  0.3794
10294TIP3   OH252296   2.819   0.484  16.706 -0.1079  0.2477 -0.3671
10294TIP3    H152297   2.843   0.428  16.633 -0.7556  0.6701 -0.9162
10294TIP3    H252298   2.798   0.423  16.777  1.8741 -0.1500 -0.0638
10295TIP3   OH252299   0.884   5.536  13.988 -0.2374  0.2127 -0.1174
10295TIP3    H152300   0.885   5.566  14.079 -0.4857 -1.0929  0.3323
10295TIP3    H252301   0.815   5.588  13.947 -1.5099 -0.5465  0.9487
10296TIP3   OH252302   6.130   4.673   2.908  0.1064  0.4173 -0.2246
10296TIP3    H152303   6.202   4.612   2.895 -0.7446 -0.0433 -3.9091
10296TIP3    H252304   6.057   4.635   2.858 -1.9663  2.0678  1.3589
10297TIP3   OH252305   2.074   1.682   3.011  0.0807 -0.3487 -0.1949
10297TIP3    H152306   2.150   1.735   2.986  0.0838 -0.8011 -1.2013
10297TIP3    H252307   2.111   1.605   3.053  0.1003  0.1627  0.7498
10298TIP3   OH252308   1.817   4.413   0.113  0.6520 -0.1653 -0.5221
10298TIP3    H152309   1.870   4.341   0.146  1.6527  0.9613  0.4464
10298TIP3    H252310   1.879   4.485   0.102 -0.9627  2.1031  3.2877
10299TIP3   OH252311   4.317   5.438   0.320  0.4505 -0.2096  0.5041
10299TIP3    H152312   4.364   5.437   0.237  1.3870 -2.2373  1.0002
10299TIP3    H252313   4.248   5.373   0.309  0.0012  0.1793  0.9999
10300TIP3   OH252314   4.250   1.467  16.955 -1.1207  1.1172 -0.0832
10300TIP3    H152315   4.291   1.554  16.953  0.5293  0.3798  0.5135
10300TIP3    H252316   4.236   1.445  16.862 -0.5132  1.5387 -0.2777
10301TIP3   OH252317   1.926   3.743   1.902  0.1574 -0.1471  0.4872
10301TIP3    H152318   1.938   3.652   1.876  2.7215  0.0015  0.8389
10301TIP3    H252319   1.920   3.740   1.997 -2.6096 -0.1172  0.3951
10302TIP3   OH252320   4.325   2.256  14.836 -0.9084  0.3323 -0.4263
10302TIP3    H152321   4.404   2.311  14.832  1.9908 -3.4296 -0.0621
10302TIP3    H252322   4.314   2.225  14.746 -1.3546  0.0203 -0.2647
10303TIP3   OH252323   2.257   5.906   4.757 -0.1092 -0.6948  0.0752
10303TIP3    H152324   2.188   5.971   4.744 -0.4699 -1.2609 -0.9516
10303TIP3    H252325   2.338   5.953   4.741 -0.2787 -0.1701  0.7070
10304TIP3   OH252326   2.311   2.574   0.116 -0.1089 -0.3086 -0.0001
10304TIP3    H152327   2.270   2.564   0.202 -1.5252  0.5228 -0.5476
10304TIP3    H252328   2.251   2.630   0.067  1.0172 -0.1961 -1.3123
10305TIP3   OH252329   5.243   0.173   2.414 -0.5361  0.2037  0.1074
10305TIP3    H152330   5.243   0.113   2.339 -1.5450 -1.0777  1.0943
10305TIP3    H252331   5.224   0.259   2.375 -1.3027 -0.4661 -1.0839
10306TIP3   OH252332   0.194   1.368  15.468  0.0796  0.3575 -0.0386
10306TIP3    H152333   0.172   1.451  15.427 -1.3582 -0.3333 -0.7583
10306TIP3    H252334   0.139   1.304  15.422  2.2455 -1.2184 -0.5619
10307TIP3   OH252335   2.785   5.345   0.221  0.3781  0.0779  0.7141
10307TIP3    H152336   2.776   5.320   0.129  0.1635  0.2350  0.6902
10307TIP3    H252337   2.695   5.343   0.255  0.4373  0.1776  0.8777
10308TIP3   OH252338   0.470   0.557  14.800 -0.5503 -0.4030  0.3564
10308TIP3    H152339   0.433   0.571  14.887 -1.6902  0.7524 -0.2771
10308TIP3    H252340   0.423   0.618  14.744 -0.7748 -2.0215 -1.3235
10309TIP3   OH252341   0.833   3.470  14.135 -0.3174 -0.4729  0.0498
10309TIP3    H152342   0.772   3.495  14.066  1.2658 -2.1653 -2.0742
10309TIP3    H252343   0.789   3.397  14.180 -0.0395 -1.5233 -1.3150
10310TIP3   OH252344   0.718   3.103  14.068 -0.3972  0.0305  0.6634
10310TIP3    H152345   0.707   3.136  14.157  1.9333  2.0106  0.3085
10310TIP3    H252346   0.808   3.125  14.045 -0.9836 -0.2344 -2.2747
10311TIP3   OH252347   2.968   3.633   4.562 -0.0037 -0.0624 -1.3312
10311TIP3    H152348   2.929   3.651   4.477  1.8669 -0.8564 -2.4091
10311TIP3    H252349   3.021   3.710   4.581 -3.5988  2.1213  1.2409
10312TIP3   OH252350   1.224   5.382  12.033 -0.3495  0.5951 -0.2977
10312TIP3    H152351   1.261   5.470  12.046  4.4467 -0.7145 -2.7077
10312TIP3    H252352   1.230   5.368  11.939 -1.2183 -2.2660 -0.0032
10313TIP3   OH252353   3.550   4.706  15.281 -0.1952 -0.0206 -0.0832
10313TIP3    H152354   3.611   4.646  15.239  0.0600  0.1957 -0.0238
10313TIP3    H252355   3.592   4.792  15.274 -1.4075  0.4793 -1.8672
10314TIP3   OH252356   3.371   6.174  11.118 -0.7855 -0.0495  0.1542
10314TIP3    H152357   3.351   6.267  11.122 -0.5840  0.0040 -0.0519
10314TIP3    H252358   3.457   6.170  11.075 -0.8357 -0.3348  0.0805
10315TIP3   OH252359   3.933   1.176  15.412 -0.0316  0.3031  0.0896
10315TIP3    H152360   3.996   1.216  15.471 -0.2244  0.0541  0.4677
10315TIP3    H252361   3.852   1.171  15.462  0.2492 -1.5167  0.4431
10316TIP3   OH252362   2.070   6.754  11.767 -0.3451  0.1472  0.2422
10316TIP3    H152363   1.997   6.726  11.713  0.3990  0.0111 -0.7148
10316TIP3    H252364   2.029   6.796  11.843 -1.4155  0.9116 -0.7204
10317TIP3   OH252365   2.588   6.354   3.897 -0.9107  0.1580  0.3659
10317TIP3    H152366   2.570   6.327   3.807 -0.1326  1.9754 -0.3937
10317TIP3    H252367   2.537   6.294   3.951 -0.6211 -1.6112 -1.2216
10318TIP3   OH252368   4.163   5.525  13.211 -0.0215 -0.2943  0.3971
10318TIP3    H152369   4.099   5.537  13.281  0.3918 -1.1947  0.9497
10318TIP3    H252370   4.126   5.457  13.156  0.2203 -0.4565  0.4335
10319TIP3   OH252371   4.537   3.170   0.292 -0.1158 -0.2192 -0.2234
10319TIP3    H152372   4.542   3.230   0.366  0.8751  0.6280 -0.9546
10319TIP3    H252373   4.517   3.085   0.332 -3.1861  0.8132  0.6966
10320TIP3   OH252374   5.138   1.563   3.338 -0.0328  0.2084 -0.3551
10320TIP3    H152375   5.053   1.524   3.359 -1.4686  4.1156  2.3212
10320TIP3    H252376   5.119   1.655   3.322  3.8708  2.3849  4.6793
10321TIP3   OH252377   2.287   0.248   2.032  0.1277  0.2490 -0.2847
10321TIP3    H152378   2.267   0.229   2.124  2.2967 -1.0063  0.0018
10321TIP3    H252379   2.382   0.254   2.029  0.1259 -0.0222 -2.5188
10322TIP3   OH252380   4.463   3.234   5.220  0.0367 -0.1665  0.5973
10322TIP3    H152381   4.435   3.190   5.300  0.8369  0.3887  1.1905
10322TIP3    H252382   4.463   3.327   5.242  0.2203 -0.0027 -0.0633
10323TIP3   OH252383   0.054   2.543   4.909  0.3362 -0.6010  0.1655
10323TIP3    H152384   0.056   2.594   4.990 -0.2819  0.1188 -0.2597
10323TIP3    H252385   0.118   2.586   4.852 -0.8428  0.2721 -0.5200
10324TIP3   OH252386   0.327   3.385  12.286  0.7845  0.1038  0.4594
10324TIP3    H152387   0.324   3.299  12.328  0.9911  0.2002  0.6741
10324TIP3    H252388   0.260   3.436  12.332  2.5529  0.9140  2.2578
10325TIP3   OH252389   6.405   2.729   0.420  0.1868 -0.4962 -0.0925
10325TIP3    H152390   6.456   2.802   0.455  2.1970 -1.2133 -1.3225
10325TIP3    H252391   6.431   2.654   0.474  1.2259 -1.0522 -1.3018
10326TIP3   OH252392   1.496   6.159  15.077  0.0128 -0.3828  0.4290
10326TIP3    H152393   1.514   6.136  14.986 -0.0401 -1.7355  0.7264
10326TIP3    H252394   1.403   6.142  15.089  0.0691 -0.4563  0.7934
10327TIP3   OH252395   0.429   3.875  15.388  0.0916  0.1828  0.5498
10327TIP3    H152396   0.349   3.888  15.338  0.7534  2.2181 -0.1179
10327TIP3    H252397   0.408   3.906  15.476 -1.5246 -4.7511  2.2450
10328TIP3   OH252398   2.208   2.826  14.356  0.2081  0.3082  0.3308
10328TIP3    H152399   2.224   2.785  14.440  0.5985  0.9024  0.5552
10328TIP3    H252400   2.192   2.918  14.377 -1.6173  0.1166 -0.0636
10329TIP3   OH252401   6.465   1.311  16.534  0.0330  0.5221 -0.4928
10329TIP3    H152402   6.432   1.223  16.519 -2.3082  0.4666  3.5549
10329TIP3    H252403   6.549   1.298  16.579  0.9819  0.5019 -2.1862
10330TIP3   OH252404   1.848   0.806   2.525  0.5000  0.1972  0.3216
10330TIP3    H152405   1.920   0.750   2.552  0.3940  0.1859  0.5803
10330TIP3    H252406   1.769   0.757   2.546  0.4046 -0.6043 -1.6683
10331TIP3   OH252407   4.508   4.246   3.422  0.2358 -0.4361 -0.8173
10331TIP3    H152408   4.571   4.311   3.453 -0.2887 -1.1845  2.0981
10331TIP3    H252409   4.464   4.290   3.349  0.5782  2.1494  0.3931
10332TIP3   OH252410   3.703   5.222   2.119 -0.3874 -0.3046 -0.4277
10332TIP3    H152411   3.669   5.312   2.126 -0.8159 -0.6040  2.3309
10332TIP3    H252412   3.782   5.222   2.173  0.0944 -1.4237 -1.0932
10333TIP3   OH252413   4.258   3.871  16.323 -0.2491 -0.0552  0.1599
10333TIP3    H152414   4.303   3.857  16.406  0.0916 -0.6306 -0.1140
10333TIP3    H252415   4.318   3.835  16.257  0.5130  2.4165 -0.5778
10334TIP3   OH252416   4.947   5.674  13.147  0.4640 -0.1706  0.0275
10334TIP3    H152417   4.951   5.679  13.243 -1.3837 -2.3203  0.2923
10334TIP3    H252418   4.968   5.583  13.126  0.8451  0.2642 -1.6363
10335TIP3   OH252419   4.308   4.931   5.221 -0.3070 -0.2518 -0.0022
10335TIP3    H152420   4.267   4.848   5.245 -0.3624 -0.2931 -0.2389
10335TIP3    H252421   4.234   4.991   5.210 -0.2875 -0.2579 -0.1653
10336TIP3   OH252422   1.326   1.268  16.417  0.5742 -0.3687 -0.6704
10336TIP3    H152423   1.347   1.239  16.505 -0.0826 -0.1950 -0.4499
10336TIP3    H252424   1.283   1.193  16.376 -2.2625  0.6132  0.3041
10337TIP3   OH252425   5.372   0.747   6.018  0.1937 -0.5210 -0.1202
10337TIP3    H152426   5.439   0.690   6.057  0.5305  0.1417  0.2871
10337TIP3    H252427   5.379   0.829   6.067 -1.3066 -0.6181  0.3085
10338TIP3   OH252428   5.657   5.354   1.523 -0.1606 -0.0699 -0.0371
10338TIP3    H152429   5.698   5.429   1.568 -1.7757  0.7019  0.2167
10338TIP3    H252430   5.671   5.372   1.430  1.3591 -0.6028  0.0557
10339TIP3   OH252431   0.405   2.453   0.456 -0.5006  0.1793  0.0712
10339TIP3    H152432   0.378   2.481   0.369  2.0292 -0.7886 -1.1113
10339TIP3    H252433   0.324   2.426   0.499 -2.0191  2.1372 -1.3787
10340TIP3   OH252434   6.725   5.462   2.110  0.7815  0.0725  0.6517
10340TIP3    H152435   6.633   5.438   2.119  0.2236  1.0985 -1.6612
10340TIP3    H252436   6.742   5.518   2.186  0.0353 -1.4926  2.0368
10341TIP3   OH252437   6.730   1.325   5.163 -0.3992 -0.4188 -0.3463
10341TIP3    H152438   6.746   1.281   5.079  1.5250 -0.4391 -0.0134
10341TIP3    H252439   6.671   1.266   5.209 -1.0877 -0.6575 -1.4881
10342TIP3   OH252440   0.088   5.010  15.139 -0.1878  0.6286  0.5401
10342TIP3    H152441   0.040   4.961  15.073  0.6118 -0.0945  0.4726
10342TIP3    H252442   0.076   5.101  15.115  0.2680  0.3749 -0.7531
10343TIP3   OH252443   4.456   3.750  13.180  0.0800  0.0346 -0.1735
10343TIP3    H152444   4.418   3.815  13.240  1.5307  0.4963  0.2740
10343TIP3    H252445   4.539   3.789  13.152  1.0697 -1.7119  0.2554
10344TIP3   OH252446   4.809   3.504  11.072 -0.4125 -0.2812 -0.4895
10344TIP3    H152447   4.831   3.596  11.087 -0.5189 -0.2098 -0.7794
10344TIP3    H252448   4.880   3.471  11.017 -0.8602 -0.1321 -1.1629
10345TIP3   OH252449   4.889   0.701  15.700 -0.2194 -0.0825  0.3177
10345TIP3    H152450   4.857   0.666  15.784 -0.9231  1.8340  0.9048
10345TIP3    H252451   4.855   0.790  15.697  1.8296  0.7267 -0.9070
10346TIP3   OH252452   2.275   4.537  11.484 -0.3241  0.4161  0.0424
10346TIP3    H152453   2.298   4.496  11.567  0.6244  0.9652  0.0614
10346TIP3    H252454   2.296   4.471  11.418 -1.7961 -0.3170  0.2600
10347TIP3   OH252455   4.151   2.096  13.254  0.2440  0.3722 -0.1503
10347TIP3    H152456   4.126   2.184  13.283 -0.0185  0.6769 -1.2494
10347TIP3    H252457   4.091   2.077  13.182 -0.1826 -1.0120  0.5403
10348TIP3   OH252458   4.917   4.963  10.955  0.4052 -0.7552  0.2186
10348TIP3    H152459   4.935   4.872  10.980 -2.0293 -1.0481  1.1926
10348TIP3    H252460   4.968   4.977  10.875  1.6244 -2.6286  0.6140
10349TIP3   OH252461   6.702   4.563  11.630  0.1811  0.0366  0.6752
10349TIP3    H152462   6.654   4.492  11.673 -0.1538 -0.0031  0.2503
10349TIP3    H252463   6.766   4.518  11.575 -0.5251  0.0252 -0.1689
10350TIP3   OH252464   2.326   3.207   4.004  0.0423 -0.3146  0.6372
10350TIP3    H152465   2.292   3.289   4.040  0.4994 -1.0011  2.8258
10350TIP3    H252466   2.310   3.143   4.074 -0.9105 -2.2648 -1.2687
10351TIP3   OH252467   2.030   6.750  11.436  0.4585 -0.3075 -0.0957
10351TIP3    H152468   2.001   6.821  11.379 -0.4969 -1.8765 -1.6445
10351TIP3    H252469   1.957   6.688  11.436  0.9297 -0.9352  1.8943
10352TIP3   OH252470   4.601   5.298  11.154 -0.0073 -0.1252  0.6155
10352TIP3    H152471   4.692   5.271  11.144  0.0728  0.3546  0.0412
10352TIP3    H252472   4.602   5.393  11.147 -0.5935 -0.1359  0.2838
10353TIP3   OH252473   2.449   6.184  15.961 -0.5668  0.1983 -0.2321
10353TIP3    H152474   2.387   6.115  15.985  0.0383 -0.2075  0.1626
10353TIP3    H252475   2.510   6.189  16.034  2.2396 -2.1031 -2.1453
10354TIP3   OH252476   4.961   2.961   1.971 -0.7535  0.1156 -0.4817
10354TIP3    H152477   4.902   2.955   1.897 -0.2382 -0.3652 -0.8590
10354TIP3    H252478   4.947   2.880   2.020  0.1116 -0.3511 -0.9766
10355TIP3   OH252479   6.663   2.645  12.911 -0.2236  0.8069 -0.2645
10355TIP3    H152480   6.677   2.563  12.959 -0.9199 -0.0190 -1.4041
10355TIP3    H252481   6.642   2.616  12.822 -1.0435  2.2144 -0.5472
10356TIP3   OH252482   5.234   5.464   6.973  0.1252  0.2132 -0.0139
10356TIP3    H152483   5.214   5.507   6.890 -2.4134  2.0621  1.4064
10356TIP3    H252484   5.199   5.376   6.963 -0.5606  0.5506 -0.7747
10357TIP3   OH252485   1.032   3.083   2.210  0.5193  0.1105  0.3349
10357TIP3    H152486   1.122   3.104   2.237  0.7255  0.7217 -0.7751
10357TIP3    H252487   0.991   3.048   2.289  0.9813  2.1750  1.5515
10358TIP3   OH252488   4.496   2.673   5.966  0.5735  0.2235 -0.4149
10358TIP3    H152489   4.528   2.680   5.876  1.8534  0.7343  0.0675
10358TIP3    H252490   4.402   2.692   5.959  0.9179  1.7405 -1.4474
10359TIP3   OH252491   5.672   3.893  10.968  0.1480 -0.0710  0.1081
10359TIP3    H152492   5.612   3.830  10.928  0.8651 -0.4587 -0.3864
10359TIP3    H252493   5.731   3.840  11.022 -0.4602  0.3928  1.2587
10360TIP3   OH252494   6.081   4.787   6.514  0.1099  0.1073 -0.1540
10360TIP3    H152495   6.044   4.712   6.559  0.2401 -0.3427 -0.7721
10360TIP3    H252496   6.132   4.748   6.442 -1.4827  0.8450 -1.7391
10361TIP3   OH252497   4.334   0.455   4.157  0.5357 -0.1257  0.7515
10361TIP3    H152498   4.367   0.475   4.245  0.0238  0.3165  0.8470
10361TIP3    H252499   4.306   0.363   4.162 -0.4361  0.1933  1.3469
10362TIP3   OH252500   0.086   2.727  13.651  0.1805  0.0233  0.1413
10362TIP3    H152501   0.085   2.696  13.561 -0.2496  1.4861 -0.3887
10362TIP3    H252502   0.121   2.654  13.702  2.3307 -0.1550 -1.4604
10363TIP3   OH252503   0.067   0.454  14.282  0.5312 -0.5561  0.0031
10363TIP3    H152504   0.050   0.363  14.307  0.2793 -0.0110  2.0288
10363TIP3    H252505   0.015   0.467  14.203 -2.9398 -1.0263  1.9882
10364TIP3   OH252506   4.439   0.002   1.053  0.2308 -0.0421  0.4280
10364TIP3    H152507   4.353   0.019   1.014  0.7694  1.0559 -0.3444
10364TIP3    H252508   4.461  -0.086   1.023 -0.6994 -0.4097  0.7834
10365TIP3   OH252509   3.432   0.020   2.062  0.2277 -0.0352 -0.3075
10365TIP3    H152510   3.417   0.036   1.969 -1.6974 -3.9132 -0.8770
10365TIP3    H252511   3.505  -0.041   2.065  2.7011  2.7299  1.1382
10366TIP3   OH252512   4.190   4.891  11.218  0.6834 -0.0179 -0.7058
10366TIP3    H152513   4.270   4.943  11.215  1.0079 -0.5376 -2.1783
10366TIP3    H252514   4.216   4.804  11.187 -0.4485 -0.1843 -1.2694
10367TIP3   OH252515   5.754   6.700  13.069 -0.5376 -0.1309  0.2056
10367TIP3    H152516   5.746   6.677  12.976 -1.1487 -0.1389  0.2576
10367TIP3    H252517   5.846   6.725  13.079 -0.6231  0.5265 -0.5498
10368TIP3   OH252518   2.693   0.736   4.318 -0.2430 -0.3755  0.0061
10368TIP3    H152519   2.665   0.660   4.369  0.5466  0.3222  1.5386
10368TIP3    H252520   2.761   0.777   4.372 -1.6410  2.2394 -0.1033
10369TIP3   OH252521   4.861   3.548   6.095 -0.1278 -0.5059 -0.0455
10369TIP3    H152522   4.891   3.511   6.179  0.2409  0.4209  0.2399
10369TIP3    H252523   4.928   3.611   6.071  0.1325 -1.2575 -1.4175
10370TIP3   OH252524   2.652   3.481   5.690 -0.4904  0.3360 -0.0126
10370TIP3    H152525   2.734   3.502   5.646 -0.5148  2.0659  0.7190
10370TIP3    H252526   2.671   3.401   5.739  1.4432  1.8764  1.9038
10371TIP3   OH252527   5.571   0.494  11.366  0.4281 -0.0902 -0.0590
10371TIP3    H152528   5.516   0.572  11.365  1.6017  0.7766  0.6495
10371TIP3    H252529   5.521   0.429  11.317 -1.2322  0.6496  0.5735
10372TIP3   OH252530   0.614   3.862   4.967  0.2144 -0.1368 -1.0186
10372TIP3    H152531   0.649   3.931   4.910 -0.6970  2.4452  1.3324
10372TIP3    H252532   0.520   3.863   4.952  0.0636 -0.0453 -0.1176
10373TIP3   OH252533   0.980   4.086  17.156  0.4776 -0.5048 -0.9473
10373TIP3    H152534   0.938   4.151  17.100  2.0902 -0.2955 -2.0000
10373TIP3    H252535   0.998   4.132  17.238 -2.4129 -0.9745  0.0407
10374TIP3   OH252536   5.669   4.272  14.558  0.2525  0.1709  0.2806
10374TIP3    H152537   5.752   4.320  14.556  0.4783 -0.2191  0.0068
10374TIP3    H252538   5.678   4.212  14.633  0.0325  0.4549  0.5324
10375TIP3   OH252539   1.792   0.265  17.130  0.2227  1.2306  0.0958
10375TIP3    H152540   1.752   0.347  17.100  0.2116  1.3408  0.4052
10375TIP3    H252541   1.733   0.234  17.199 -0.4300  0.3303 -0.8387
10376TIP3   OH252542   0.034   4.842  14.342  0.2912 -0.0646  0.1493
10376TIP3    H152543   0.030   4.773  14.275 -0.8687 -0.9882  1.1326
10376TIP3    H252544   0.063   4.796  14.421  2.2706  1.1339  0.1843
10377TIP3   OH252545   0.915   1.171  16.177  0.8434  0.5584 -0.0014
10377TIP3    H152546   0.988   1.200  16.122  0.5115 -1.6704 -1.7673
10377TIP3    H252547   0.837   1.185  16.123  0.5623 -2.2111 -0.4527
10378TIP3   OH252548   1.455   4.370  13.004  0.9511  0.4722 -0.2238
10378TIP3    H152549   1.430   4.425  12.930 -0.8914 -0.3578 -0.2503
10378TIP3    H252550   1.498   4.294  12.965 -1.7186 -0.9138 -0.6739
10379TIP3   OH252551   3.110   0.541   2.003  0.1654 -0.5246 -0.2607
10379TIP3    H152552   3.086   0.497   2.085 -0.9017 -0.2107 -0.3776
10379TIP3    H252553   3.064   0.625   2.008  0.6883 -0.1976 -0.8603
10380TIP3   OH252554   3.833   3.301   4.293 -0.2586 -0.0497  0.4183
10380TIP3    H152555   3.877   3.352   4.360 -1.3333 -0.3894  1.4165
10380TIP3    H252556   3.842   3.210   4.322  2.0700 -0.5738 -1.5894
10381TIP3   OH252557   1.775   2.294   4.591  0.2706  0.2597  0.2895
10381TIP3    H152558   1.714   2.262   4.524  1.5472 -1.1735 -0.2687
10381TIP3    H252559   1.830   2.218   4.611  1.6037  1.3784  1.0603
10382TIP3   OH252560   4.126   2.474   0.325 -0.2265  0.6880 -0.1845
10382TIP3    H152561   4.156   2.389   0.357 -0.7589  0.1116 -1.1703
10382TIP3    H252562   4.152   2.536   0.393  2.0686  0.0517 -0.3914
10383TIP3   OH252563   4.339   4.491  14.070 -0.8316  0.4912  0.1754
10383TIP3    H152564   4.372   4.578  14.049  0.7461 -0.3686 -1.0446
10383TIP3    H252565   4.364   4.436  13.996 -1.4597 -1.1007  1.0825
10384TIP3   OH252566   3.411   0.645  15.588 -0.5531  0.2823 -0.3349
10384TIP3    H152567   3.373   0.731  15.567 -1.0102  0.2579  0.3819
10384TIP3    H252568   3.481   0.665  15.651 -0.2344  0.1866 -0.6522
10385TIP3   OH252569   4.371   2.017  10.921  0.0996 -0.1956 -0.3031
10385TIP3    H152570   4.325   2.075  10.982  0.3515  1.8149 -1.9054
10385TIP3    H252571   4.452   2.064  10.900  1.1542 -1.9638 -0.3599
10386TIP3   OH252572   5.470   5.296   5.330  0.3039 -0.1842 -0.2571
10386TIP3    H152573   5.541   5.233   5.336 -0.3496 -0.7784  2.2212
10386TIP3    H252574   5.512   5.381   5.342  0.8500 -0.3509 -0.9586
10387TIP3   OH252575   2.658   4.067   1.846  0.0521  0.2267 -0.5132
10387TIP3    H152576   2.753   4.064   1.840 -0.0391  0.2783 -2.9979
10387TIP3    H252577   2.640   4.118   1.925  2.1759  4.5738 -2.5258
10388TIP3   OH252578   2.850   3.719  13.705  0.4962 -0.6188  0.2282
10388TIP3    H152579   2.777   3.675  13.750  1.6435 -1.0104  1.7845
10388TIP3    H252580   2.845   3.810  13.735  1.3109 -0.8977  1.2456
10389TIP3   OH252581   2.530   3.727  16.911  0.0090  0.1782  0.3370
10389TIP3    H152582   2.622   3.699  16.914  0.2072  0.8920  1.1659
10389TIP3    H252583   2.483   3.650  16.879  1.0452  0.1921 -1.3590
10390TIP3   OH252584   2.485   5.187   3.099  0.1286  0.6595 -0.3947
10390TIP3    H152585   2.537   5.135   3.038  1.2532  0.2428  0.8819
10390TIP3    H252586   2.416   5.126   3.128  2.3693 -0.7944  2.3263
10391TIP3   OH252587   3.195   3.538  12.543 -0.3351 -0.0399 -0.0352
10391TIP3    H152588   3.146   3.459  12.564 -0.1086 -0.0285  0.5504
10391TIP3    H252589   3.221   3.574  12.628  2.8203 -1.3772 -0.2885
10392TIP3   OH252590   4.326   5.287   4.061  0.2010  0.3965 -0.2187
10392TIP3    H152591   4.336   5.278   3.966  1.5489  0.1934 -0.0820
10392TIP3    H252592   4.393   5.229   4.097 -0.3919  0.3752  0.8617
10393TIP3   OH252593   0.817   3.937  15.109  0.0343 -0.8175  0.2123
10393TIP3    H152594   0.887   4.002  15.100 -0.8395 -0.0527 -1.7694
10393TIP3    H252595   0.859   3.854  15.089  0.4578 -0.3923 -0.7388
10394TIP3   OH252596   2.805   3.076   5.087 -0.3178 -0.2428  0.2176
10394TIP3    H152597   2.813   3.171   5.077  0.1755 -0.4181 -1.1901
10394TIP3    H252598   2.795   3.043   4.998 -1.0420 -1.4719  0.7370
10395TIP3   OH252599   0.143   4.504   0.706 -0.4624 -0.1095  0.1042
10395TIP3    H152600   0.080   4.499   0.634  1.2115 -1.4383 -1.3372
10395TIP3    H252601   0.175   4.594   0.704 -0.3019 -0.1786 -0.9475
10396TIP3   OH252602   1.783   3.183   4.262 -0.4685 -0.3813 -0.2468
10396TIP3    H152603   1.763   3.259   4.207  0.4898 -0.5348 -0.8369
10396TIP3    H252604   1.804   3.113   4.199  1.7917 -0.2450  0.2693
10397TIP3   OH252605   1.257   5.732   4.045 -0.2462  0.0647  0.2005
10397TIP3    H152606   1.295   5.645   4.035 -1.6671 -0.4192 -1.6382
10397TIP3    H252607   1.162   5.717   4.040 -0.5038  1.7523 -0.7374
10398TIP3   OH252608   4.856   6.755   3.569 -0.5585  0.0621 -0.4093
10398TIP3    H152609   4.933   6.809   3.591  0.9605 -2.1167 -0.1166
10398TIP3    H252610   4.826   6.721   3.654 -0.4307 -0.9238 -0.7544
10399TIP3   OH252611   5.202   2.243  15.492 -0.0145  0.0955  0.1484
10399TIP3    H152612   5.176   2.308  15.557 -0.4943  0.8005 -0.7220
10399TIP3    H252613   5.179   2.159  15.531  0.3803  0.4581  1.1814
10400TIP3   OH252614   3.705   0.236   5.962 -0.0433 -0.0403  0.4077
10400TIP3    H152615   3.703   0.142   5.980  0.3389 -0.4771 -1.5180
10400TIP3    H252616   3.785   0.268   6.005 -0.7310 -0.3599  1.9651
10401TIP3   OH252617   3.547   6.693   1.318  0.0952  0.8826 -0.3348
10401TIP3    H152618   3.594   6.614   1.347  0.4407  0.3018 -2.3391
10401TIP3    H252619   3.492   6.716   1.393  1.9167  0.2885  1.2689
10402TIP3   OH252620   0.619   5.329  14.515  1.2429  0.3634  0.1379
10402TIP3    H152621   0.538   5.300  14.472  0.4151  3.0536 -0.2992
10402TIP3    H252622   0.676   5.252  14.512 -1.4143 -1.8118  0.9050
10403TIP3   OH252623   1.604   1.821  12.315 -0.8290 -0.2808  0.5066
10403TIP3    H152624   1.579   1.785  12.400 -0.3614  0.2285  0.8741
10403TIP3    H252625   1.521   1.835  12.269 -1.0690 -0.8223  0.7716
10404TIP3   OH252626   2.659   0.431   1.114  0.0735 -0.1635  0.0772
10404TIP3    H152627   2.727   0.368   1.140  0.2725  0.4728  1.1658
10404TIP3    H252628   2.577   0.391   1.144 -0.1385 -1.2246 -1.7883
10405TIP3   OH252629   2.631   5.498  12.887  0.3659 -0.3268  0.0543
10405TIP3    H152630   2.567   5.487  12.957 -2.0307  1.4293 -1.7028
10405TIP3    H252631   2.591   5.455  12.811  1.9557 -0.4155 -0.7783
10406TIP3   OH252632   0.728   2.798   1.002 -0.0275  0.4314 -0.2485
10406TIP3    H152633   0.672   2.837   1.069  0.7200 -0.9143  1.2398
10406TIP3    H252634   0.793   2.748   1.052  1.0375  0.0092 -1.9816
10407TIP3   OH252635   6.626   4.111   4.094  0.0591  0.2166 -0.6870
10407TIP3    H152636   6.558   4.045   4.085 -0.9174  1.1841 -0.5515
10407TIP3    H252637   6.607   4.155   4.177  1.6108 -0.3260  0.0152
10408TIP3   OH252638   1.572   3.173   1.849 -0.0882  0.0961  0.7007
10408TIP3    H152639   1.582   3.102   1.913 -0.0878  0.9588  1.6869
10408TIP3    H252640   1.661   3.206   1.836 -0.1200  0.0747  0.4110
10409TIP3   OH252641   2.562   2.694   2.245 -0.3634  0.7252 -0.1978
10409TIP3    H152642   2.486   2.736   2.204  0.0938  0.8596 -0.9377
10409TIP3    H252643   2.533   2.605   2.263 -0.9625  1.0146  0.2952
10410TIP3   OH252644   5.472   4.446  14.523  0.0552  0.3581  0.0887
10410TIP3    H152645   5.524   4.367  14.542 -1.6482 -1.5505 -2.4638
10410TIP3    H252646   5.395   4.438  14.580  0.3921  0.7761  0.6089
10411TIP3   OH252647   5.865   0.526  13.769 -0.3758  1.0481  0.4277
10411TIP3    H152648   5.773   0.503  13.754 -0.2859  0.1735  1.1396
10411TIP3    H252649   5.882   0.598  13.708 -0.7624 -0.5932 -1.7318
10412TIP3   OH252650   2.757   0.470   2.043  0.0538 -0.2045  0.6024
10412TIP3    H152651   2.830   0.408   2.048 -0.2516 -0.5675  0.6556
10412TIP3    H252652   2.739   0.479   1.950 -0.4899 -0.9123  0.6248
10413TIP3   OH252653   4.775   1.920  10.420  0.3546  0.5752 -0.5371
10413TIP3    H152654   4.697   1.893  10.371 -0.1099 -0.3557  0.6720
10413TIP3    H252655   4.813   1.839  10.453  0.7169  1.1520  0.5364
10414TIP3   OH252656   3.141   4.521  14.900  0.4176 -0.3680  0.7069
10414TIP3    H152657   3.192   4.594  14.863 -1.4154 -0.0923 -1.4859
10414TIP3    H252658   3.135   4.458  14.829 -1.2173 -0.9458  1.3169
10415TIP3   OH252659   3.711   4.109   5.508 -0.3241  0.2965 -0.5456
10415TIP3    H152660   3.634   4.125   5.453 -0.8820 -3.9064 -1.3081
10415TIP3    H252661   3.785   4.109   5.447  0.0771  2.2737 -0.1273
10416TIP3   OH252662   0.240   3.215  14.976 -0.5071 -0.4963  0.4034
10416TIP3    H152663   0.223   3.235  14.884 -1.2529 -0.9634  0.4300
10416TIP3    H252664   0.153   3.198  15.013 -0.1719 -0.7458  1.0915
10417TIP3   OH252665   4.883   2.210  14.163  0.2698  0.1359  0.7306
10417TIP3    H152666   4.953   2.203  14.228  0.9468  0.7451  0.0919
10417TIP3    H252667   4.893   2.298  14.127  1.6122 -1.0036 -2.0208
10418TIP3   OH252668   2.737   0.123  15.828 -0.4308 -0.2399 -0.2416
10418TIP3    H152669   2.781   0.192  15.877  0.1569 -1.4469  1.0083
10418TIP3    H252670   2.784   0.120  15.744 -0.1712  0.5623 -0.1328
10419TIP3   OH252671   6.640   2.851  10.382 -0.6462 -0.0810 -0.0197
10419TIP3    H152672   6.588   2.770  10.376 -1.6983  0.6080 -0.5084
10419TIP3    H252673   6.706   2.843  10.314  0.1853 -1.1623  0.8859
10420TIP3   OH252674   1.851   5.212  14.796  0.6541 -0.2123 -1.2514
10420TIP3    H152675   1.864   5.292  14.848  3.1148  0.2667 -2.4520
10420TIP3    H252676   1.921   5.153  14.825 -2.8700 -3.3648  1.8469
10421TIP3   OH252677   0.460   1.998  17.259  0.1248  0.0780  0.7975
10421TIP3    H152678   0.517   1.979  17.185 -0.1436 -1.3164  0.9114
10421TIP3    H252679   0.439   2.091  17.251 -0.0454 -0.0777 -0.9901
10422TIP3   OH252680   2.481   5.737  16.591 -0.5139 -0.3411 -0.1063
10422TIP3    H152681   2.478   5.716  16.685  0.8011 -1.9556 -0.3737
10422TIP3    H252682   2.431   5.667  16.549 -2.3898  1.1943 -0.5511
10423TIP3   OH252683   1.567   4.756  16.032 -0.8202 -0.1328  0.3650
10423TIP3    H152684   1.492   4.709  15.997 -0.8252  1.0915 -1.4009
10423TIP3    H252685   1.540   4.847  16.033  0.6703  0.3545 -0.4764
10424TIP3   OH252686   4.847   1.165  12.369 -0.1134  0.3387  0.1296
10424TIP3    H152687   4.786   1.165  12.443  1.1250  0.5948  1.1977
10424TIP3    H252688   4.894   1.248  12.377  2.0288 -0.8625  0.7907
10425TIP3   OH252689   4.623   4.910   1.966 -0.5041  0.0405 -0.9334
10425TIP3    H152690   4.664   4.992   1.994  1.2149 -0.5365 -1.6003
10425TIP3    H252691   4.604   4.923   1.873 -3.6752  0.9660 -0.2666
10426TIP3   OH252692   0.908   1.683   5.139  0.0555  0.2601  0.3700
10426TIP3    H152693   0.885   1.712   5.050  1.6075  0.7256  0.0975
10426TIP3    H252694   0.836   1.625   5.164 -0.4884  0.2276 -1.1358
10427TIP3   OH252695   3.603   2.141   4.015 -0.4427 -0.5259 -0.2475
10427TIP3    H152696   3.603   2.063   4.070 -0.5905  0.5001  1.2795
10427TIP3    H252697   3.531   2.195   4.049 -0.2060  0.3754 -1.1166
10428TIP3   OH252698   5.678   1.912  13.438  0.1771  0.2486  0.0039
10428TIP3    H152699   5.731   1.849  13.487  0.4885 -0.7431 -1.5102
10428TIP3    H252700   5.606   1.861  13.403 -0.0050  0.8991 -0.5985
10429TIP3   OH252701   0.136   3.513  11.209 -0.2878  0.6573 -1.0216
10429TIP3    H152702   0.222   3.525  11.168  0.4333 -0.2609  0.1681
10429TIP3    H252703   0.074   3.538  11.141  0.8569 -0.7952 -2.6793
10430TIP3   OH252704   4.203   3.780  15.086 -0.1064 -0.1054  0.1217
10430TIP3    H152705   4.150   3.745  15.014 -3.2751  2.2467  1.1151
10430TIP3    H252706   4.160   3.746  15.165  0.8854  0.5716  0.9647
10431TIP3   OH252707   1.017   6.416   6.588  0.2611 -0.2023  0.0828
10431TIP3    H152708   0.957   6.351   6.625 -1.9050  0.8608 -1.3491
10431TIP3    H252709   1.024   6.484   6.655 -3.1218  1.4110 -0.9920
10432TIP3   OH252710   0.363   3.940   6.081  0.0626  0.5246 -0.3574
10432TIP3    H152711   0.356   3.982   6.167 -1.6125  3.3488 -1.6964
10432TIP3    H252712   0.296   3.872   6.082 -1.0883  1.6144  0.1140
10433TIP3   OH252713   2.481   3.977  14.549  0.0313  0.1397  0.1896
10433TIP3    H152714   2.528   4.059  14.539  0.0597  0.1721  0.5884
10433TIP3    H252715   2.549   3.911  14.557  0.0080  0.0813 -0.0578
10434TIP3   OH252716   1.268   0.543  15.203  0.1408 -0.1895 -0.7241
10434TIP3    H152717   1.212   0.550  15.281 -1.4096  0.7141 -1.8651
10434TIP3    H252718   1.346   0.497  15.234 -0.1424  0.6970  1.5104
10435TIP3   OH252719   6.679   3.526  13.277  0.1512 -0.1941  0.3712
10435TIP3    H152720   6.750   3.499  13.336  0.4203  0.8642  0.5558
10435TIP3    H252721   6.615   3.455  13.281  1.5550 -1.5657 -0.4243
10436TIP3   OH252722   0.665   3.962   0.388 -0.4776 -0.1345 -0.8334
10436TIP3    H152723   0.577   3.999   0.391  0.2618  1.6488  0.3958
10436TIP3    H252724   0.664   3.894   0.456 -0.4185  1.1315  0.4865
10437TIP3   OH252725   0.048   4.253  15.553 -0.0459 -0.1096 -0.1753
10437TIP3    H152726   0.114   4.320  15.536 -1.7086  1.4004 -0.9694
10437TIP3    H252727  -0.036   4.300  15.551 -1.2829 -2.1867 -0.7290
10438TIP3   OH252728   4.104   1.808  16.534  0.5462  0.4593 -0.4195
10438TIP3    H152729   4.067   1.760  16.609  1.1475  0.5687 -0.0431
10438TIP3    H252730   4.170   1.748  16.498 -1.7768 -0.8769 -2.7588
10439TIP3   OH252731   1.228   0.069  15.166 -0.1094 -0.6449 -0.3057
10439TIP3    H152732   1.269   0.058  15.252 -1.6484 -0.8012  0.4401
10439TIP3    H252733   1.179  -0.012  15.152 -0.3319 -0.3870 -1.0801
10440TIP3   OH252734   2.680   1.113  15.905 -0.4575  0.3436 -0.7566
10440TIP3    H152735   2.769   1.086  15.930 -0.7164 -1.1711 -1.3340
10440TIP3    H252736   2.638   1.031  15.878 -2.7599  0.6142  1.6399
10441TIP3   OH252737   2.872   3.231   0.829  0.2153  0.2385  0.7390
10441TIP3    H152738   2.891   3.266   0.916 -1.2646  0.3874  1.0238
10441TIP3    H252739   2.780   3.203   0.834 -0.2201  1.2424 -1.0988
10442TIP3   OH252740   6.496   3.225  16.244 -0.3009 -0.7404  0.1064
10442TIP3    H152741   6.564   3.228  16.312 -1.3266 -2.2482  1.2505
10442TIP3    H252742   6.434   3.293  16.270 -1.4890 -2.3387  1.6147
10443TIP3   OH252743   4.531   0.390   2.933 -0.1044 -0.0722  0.1695
10443TIP3    H152744   4.571   0.327   2.873 -0.4398 -1.0281  0.9109
10443TIP3    H252745   4.557   0.476   2.899  0.2651 -0.6003 -0.9381
10444TIP3   OH252746   0.201   1.453  17.145  0.0445 -0.2020  0.3870
10444TIP3    H152747   0.276   1.424  17.093 -0.6726  0.5682 -1.1457
10444TIP3    H252748   0.159   1.372  17.173 -1.8817 -0.8577 -3.7343
10445TIP3   OH252749   2.945   0.861  10.797 -0.0070 -0.1870 -0.7195
10445TIP3    H152750   2.882   0.882  10.727 -0.2782  0.1803 -0.3700
10445TIP3    H252751   2.930   0.768  10.815 -0.5201 -0.0805 -0.5760
10446TIP3   OH252752   5.428   2.501  17.258  0.6206 -0.0865 -0.0321
10446TIP3    H152753   5.350   2.521  17.206  0.0472  0.0185  0.8659
10446TIP3    H252754   5.425   2.562  17.331  0.1379 -1.8006  1.4391
10447TIP3   OH252755   4.044   2.860  10.841 -0.9461 -0.4661  0.2920
10447TIP3    H152756   3.955   2.831  10.864 -0.4015 -2.4366  0.1080
10447TIP3    H252757   4.052   2.838  10.748 -0.6911  0.9269 -0.0350
10448TIP3   OH252758   4.369   0.753   6.319  0.2675 -0.2352 -0.0494
10448TIP3    H152759   4.289   0.705   6.343 -0.1685  0.0110 -0.9955
10448TIP3    H252760   4.431   0.685   6.293 -0.3259 -0.3097 -1.3173
10449TIP3   OH252761   5.016   2.217   0.332  0.6691 -0.1136  0.1180
10449TIP3    H152762   4.942   2.206   0.391  2.5290  0.9027  2.8099
10449TIP3    H252763   4.998   2.299   0.286 -0.3972 -0.4805 -0.1558
10450TIP3   OH252764   3.960   1.356  17.027  0.2045  0.1971 -0.5460
10450TIP3    H152765   4.032   1.293  17.020 -0.4941 -1.0045  1.8047
10450TIP3    H252766   3.984   1.411  17.102 -0.9060  0.3222 -0.2647
10451TIP3   OH252767   3.683   2.503   3.427  0.2827  0.0117  0.1398
10451TIP3    H152768   3.640   2.580   3.464  0.2218  0.3651 -0.6497
10451TIP3    H252769   3.709   2.529   3.339 -2.3534 -1.7528 -1.2866
10452TIP3   OH252770   5.117   0.516   5.984 -0.1829 -0.6291  0.3607
10452TIP3    H152771   5.196   0.511   6.037 -0.2088  2.7626  0.9649
10452TIP3    H252772   5.094   0.425   5.965  2.9844 -1.7594  1.4073
10453TIP3   OH252773   6.338   6.043  12.719 -0.1419 -0.4649 -0.2312
10453TIP3    H152774   6.268   5.979  12.707  0.7956 -1.3790 -0.9398
10453TIP3    H252775   6.405   6.018  12.656  1.3626 -0.3548  1.2625
10454TIP3   OH252776   3.998   4.569   4.944 -0.1259  0.0639 -0.0871
10454TIP3    H152777   3.902   4.567   4.947 -0.1154 -1.6644  0.3179
10454TIP3    H252778   4.022   4.484   4.907  1.2545  0.3616  0.0844
10455TIP3   OH252779   5.923   1.402   3.192  0.0218  0.0498 -0.6839
10455TIP3    H152780   5.952   1.486   3.155 -0.6235  0.4252 -0.3651
10455TIP3    H252781   5.840   1.423   3.235  0.7344 -0.3775  0.9573
10456TIP3   OH252782   2.334   1.701   0.959  0.5812  0.4170 -0.2851
10456TIP3    H152783   2.357   1.689   0.867  3.1428 -3.5331  0.6187
10456TIP3    H252784   2.239   1.693   0.961  0.6077 -1.4318 -2.4444
10457TIP3   OH252785   0.758   3.258  11.623 -0.6056  0.1287 -0.2677
10457TIP3    H152786   0.735   3.171  11.655 -0.5014  0.4784  0.8246
10457TIP3    H252787   0.850   3.250  11.597 -0.6784 -0.1593 -0.4343
10458TIP3   OH252788   0.849   3.650  16.431  0.3070 -0.2473  0.2511
10458TIP3    H152789   0.780   3.705  16.467  0.8602  1.1269 -0.7138
10458TIP3    H252790   0.819   3.629  16.342  0.4211 -0.9285  0.3699
10459TIP3   OH252791   2.642   4.000   0.015  0.5929 -0.2479 -0.1676
10459TIP3    H152792   2.601   3.998  -0.072  0.1830 -0.9097  0.0332
10459TIP3    H252793   2.700   3.924   0.016  0.8040 -0.0831  0.0394
10460TIP3   OH252794   5.289   4.217   2.018  0.1065 -0.4584 -0.0456
10460TIP3    H152795   5.314   4.246   1.930 -0.0114 -0.0742  0.0446
10460TIP3    H252796   5.200   4.185   2.009 -0.2593  0.4687  0.1129
10461TIP3   OH252797   3.302   4.560  15.236 -0.4889 -0.3676 -0.3794
10461TIP3    H152798   3.394   4.586  15.242 -0.6226 -0.1604  1.7862
10461TIP3    H252799   3.256   4.640  15.211 -0.0467 -0.6716 -2.3610
10462TIP3   OH252800   2.378   2.624   4.896  0.6156  0.0542 -0.1677
10462TIP3    H152801   2.356   2.717   4.908  0.3615 -0.0079 -0.1459
10462TIP3    H252802   2.383   2.613   4.801 -0.6475 -0.2021 -0.2193
10463TIP3   OH252803   0.092   5.908  17.046 -0.2699 -0.2063  0.3014
10463TIP3    H152804   0.100   5.992  17.000  0.3983 -0.7326 -0.5916
10463TIP3    H252805   0.064   5.931  17.134 -1.4249  0.8664 -0.3096
10464TIP3   OH252806   3.133   0.239   0.618 -0.1466 -0.2721  0.3282
10464TIP3    H152807   3.153   0.229   0.711  0.3738  0.9563  0.3674
10464TIP3    H252808   3.193   0.179   0.574 -0.8203 -1.3220  0.7971
10465TIP3   OH252809   2.910   1.365  13.404  0.7061 -0.2784 -0.2948
10465TIP3    H152810   2.949   1.367  13.492 -0.4582  0.9191  0.2331
10465TIP3    H252811   2.985   1.364  13.344  1.5946  1.5693  0.6832
10466TIP3   OH252812   0.898   4.210   0.687 -0.0656  0.2434  0.6053
10466TIP3    H152813   0.986   4.183   0.714  1.0749  0.5354 -2.4538
10466TIP3    H252814   0.905   4.303   0.669 -0.6963  0.0526 -0.7419
10467TIP3   OH252815   2.466   5.458   4.584  0.5312 -0.2542 -0.6523
10467TIP3    H152816   2.527   5.391   4.613 -0.1587 -0.5170  0.2428
10467TIP3    H252817   2.381   5.414   4.582  0.1418  0.4679 -0.4939
10468TIP3   OH252818   4.629   2.283  12.870 -0.1281 -0.8221  0.1045
10468TIP3    H152819   4.629   2.212  12.805 -0.0502  0.4366 -1.3124
10468TIP3    H252820   4.717   2.320  12.865 -0.9358  1.1246 -1.2173
10469TIP3   OH252821   0.450   2.066  14.662 -0.3866  0.1665 -0.5046
10469TIP3    H152822   0.362   2.061  14.698  0.5501 -0.2277  1.9492
10469TIP3    H252823   0.464   1.981  14.620 -1.2609  0.3463 -1.1754
10470TIP3   OH252824   0.320   6.296   4.712  0.0490 -0.1149  0.1996
10470TIP3    H152825   0.389   6.256   4.660 -0.3747 -0.3759 -0.1767
10470TIP3    H252826   0.274   6.222   4.753  0.8891  0.1303  1.6268
10471TIP3   OH252827   1.089   4.402  15.633  0.6010  0.0488 -0.2158
10471TIP3    H152828   1.025   4.473  15.635  0.7969  0.2067  0.9964
10471TIP3    H252829   1.074   4.359  15.548 -1.0089  0.1653 -0.0240
10472TIP3   OH252830   5.551   6.427  13.093  0.3499  0.1881 -0.6288
10472TIP3    H152831   5.595   6.360  13.145 -0.1501 -0.6057 -1.2241
10472TIP3    H252832   5.602   6.432  13.012 -0.6735 -0.7804 -1.3494
10473TIP3   OH252833   2.434   4.541  16.336  0.0943 -0.3997 -0.3089
10473TIP3    H152834   2.465   4.450  16.327  4.3591  0.7810 -0.0242
10473TIP3    H252835   2.403   4.547  16.426 -0.9910 -1.7430 -0.5714
10474TIP3   OH252836   4.921   2.323  12.898  0.3371 -0.0058 -0.1927
10474TIP3    H152837   4.943   2.409  12.863  0.9760 -0.1673 -0.2009
10474TIP3    H252838   4.996   2.299  12.952  0.0484 -0.4467  0.0266
10475TIP3   OH252839   3.138   3.643   5.721 -0.5316 -0.3207  0.6146
10475TIP3    H152840   3.150   3.715   5.783  0.0686  0.5912 -0.5268
10475TIP3    H252841   3.046   3.616   5.733 -1.6512  2.4794 -0.8230
10476TIP3   OH252842   3.907   4.996  16.505 -0.6548  0.5373  0.3221
10476TIP3    H152843   3.994   5.028  16.483 -1.2808  2.6542  0.6355
10476TIP3    H252844   3.871   4.964  16.422 -0.3638  1.7187 -0.2857
10477TIP3   OH252845   0.551   0.407   4.530  0.7633 -0.0701  0.7818
10477TIP3    H152846   0.615   0.419   4.600  1.5199  0.2902  0.0540
10477TIP3    H252847   0.484   0.350   4.568  0.3369  1.3723  2.3004
10478TIP3   OH252848   2.589   0.861   5.117  0.0903 -0.3148 -0.0602
10478TIP3    H152849   2.645   0.783   5.110  1.0814  0.2839  0.7510
10478TIP3    H252850   2.584   0.895   5.028  3.5079  1.2275  0.1418
10479TIP3   OH252851   1.315   5.583   2.577  0.2539 -0.5851  1.0201
10479TIP3    H152852   1.410   5.595   2.568 -0.0848  2.1004  0.1046
10479TIP3    H252853   1.306   5.531   2.657  2.5080 -2.1978  0.3398
10480TIP3   OH252854   6.534   4.300  12.913  0.3121  0.3545  0.0611
10480TIP3    H152855   6.546   4.332  13.003  0.9281 -0.9538  0.4652
10480TIP3    H252856   6.515   4.206  12.923  0.3822  0.1875 -1.1835
10481TIP3   OH252857   5.000   0.298  12.347 -0.2182 -0.2015  0.3005
10481TIP3    H152858   5.028   0.286  12.257 -1.1618 -0.5757  0.0414
10481TIP3    H252859   5.053   0.371  12.379 -0.6920  0.7255 -0.9359
10482TIP3   OH252860   5.841   4.174   3.875  0.1628  0.0802 -0.2624
10482TIP3    H152861   5.849   4.186   3.969  0.1958  0.9616 -0.3643
10482TIP3    H252862   5.929   4.190   3.841 -0.1133  1.0816 -0.5533
10483TIP3   OH252863   1.328   6.340  17.251 -0.3097  0.5668 -0.6658
10483TIP3    H152864   1.394   6.318  17.186  0.9796  0.2284  0.7135
10483TIP3    H252865   1.368   6.406  17.307  1.7559 -4.0760  4.2766
10484TIP3   OH252866   3.556   5.692  17.069 -0.5909  0.2224 -0.2665
10484TIP3    H152867   3.622   5.623  17.069  0.5512  1.2479 -1.2987
10484TIP3    H252868   3.536   5.705  16.976 -1.7054  0.4383 -0.0077
10485TIP3   OH252869   0.204   0.857  13.632 -0.0207  0.1663  0.4813
10485TIP3    H152870   0.117   0.854  13.671 -1.0591  1.8011 -1.5123
10485TIP3    H252871   0.243   0.938  13.667  1.3970 -1.2606  2.5143
10486TIP3   OH252872   5.896   4.846   4.554 -0.0218  0.4277 -0.5975
10486TIP3    H152873   5.920   4.755   4.568 -0.2648  0.2271 -1.4122
10486TIP3    H252874   5.903   4.887   4.640  3.5598  0.4722 -0.7445
10487TIP3   OH252875   0.982   4.928   6.254 -0.0956 -0.0472 -0.5523
10487TIP3    H152876   1.033   4.858   6.215  0.4617  0.3334 -0.5140
10487TIP3    H252877   0.892   4.911   6.226  0.1492 -0.3503 -1.1609
10488TIP3   OH252878   0.553   6.700   6.467  0.5330  0.0499  0.1714
10488TIP3    H152879   0.518   6.712   6.555  1.2060 -1.2048  0.6317
10488TIP3    H252880   0.476   6.700   6.411  0.1917  2.5056  0.5151
10489TIP3   OH252881   3.545   0.848  13.383 -0.4716 -0.2428 -0.5142
10489TIP3    H152882   3.544   0.878  13.473  2.7516  0.6770 -0.6707
10489TIP3    H252883   3.592   0.765  13.386  0.9398  0.4849 -1.4579
10490TIP3   OH252884   5.872   1.248  11.360  0.4177 -0.1875  0.4057
10490TIP3    H152885   5.877   1.266  11.266 -0.8153 -1.0242  0.1440
10490TIP3    H252886   5.905   1.158  11.368 -1.3341 -0.8623  0.4581
10491TIP3   OH252887   5.723   5.666  14.711 -0.9252  0.3332  0.4037
10491TIP3    H152888   5.717   5.574  14.684 -1.2355  0.7742 -1.1162
10491TIP3    H252889   5.783   5.706  14.648  1.6378  0.5934  2.8008
10492TIP3   OH252890   5.033   4.235   4.179 -0.4959 -0.0985  0.0039
10492TIP3    H152891   5.107   4.292   4.201 -0.4320 -0.8476  1.9855
10492TIP3    H252892   4.959   4.295   4.165 -0.0792  0.5455  0.5084
10493TIP3   OH252893   4.117   4.311   2.129 -0.5559 -0.3690 -0.0082
10493TIP3    H152894   4.131   4.312   2.224 -0.7922  0.6333  0.0282
10493TIP3    H252895   4.060   4.385   2.113  0.3081  0.0974 -1.0639
10494TIP3   OH252896   5.944   1.968   2.403 -0.2273 -0.0571  0.2087
10494TIP3    H152897   6.022   1.944   2.451  0.8406 -0.1218 -1.4796
10494TIP3    H252898   5.949   1.919   2.321 -0.7062  1.8543 -1.0368
10495TIP3   OH252899   4.344   4.826  15.935 -0.3831 -0.1633 -0.4235
10495TIP3    H152900   4.368   4.779  15.856 -1.3117 -1.2583 -0.0839
10495TIP3    H252901   4.400   4.788  16.003  2.0243  2.2630 -0.8305
10496TIP3   OH252902   0.761   2.986  15.991  0.1573 -0.1088  0.1476
10496TIP3    H152903   0.843   3.021  16.024  0.9065 -0.8507 -0.8520
10496TIP3    H252904   0.771   2.988  15.896 -0.6222 -1.0468  0.0332
10497TIP3   OH252905   4.116   3.032  13.146 -0.7419  0.0709 -0.1747
10497TIP3    H152906   4.082   3.099  13.205 -0.4201  0.0217  0.0707
10497TIP3    H252907   4.152   2.965  13.204  0.2443  0.3651 -0.4227
10498TIP3   OH252908   5.937   0.991   6.403 -0.0169 -0.0239  0.3441
10498TIP3    H152909   5.924   1.072   6.452  0.9548 -0.2685  1.0252
10498TIP3    H252910   6.021   1.003   6.359  0.1379 -0.6542  0.4576
10499TIP3   OH252911   0.241   0.278  15.023  0.5045  0.0286  0.8904
10499TIP3    H152912   0.335   0.293  15.028  0.5162  0.4302 -0.1453
10499TIP3    H252913   0.201   0.357  15.060  0.5724 -0.0388  1.1077
10500TIP3   OH252914   0.498   4.568  13.826 -0.4379 -0.5561 -0.0367
10500TIP3    H152915   0.430   4.623  13.865  1.4061  0.9320  1.2280
10500TIP3    H252916   0.555   4.629  13.779 -0.6781 -1.9283 -2.2534
10501TIP3   OH252917   4.231   6.133  12.428  0.3949 -0.0814 -0.0341
10501TIP3    H152918   4.260   6.206  12.481  1.3492  0.5327 -1.3364
10501TIP3    H252919   4.271   6.056  12.469  1.6158  0.4471 -0.1696
10502TIP3   OH252920   4.573   6.327  15.234 -0.3229 -0.1853  0.2403
10502TIP3    H152921   4.489   6.359  15.267 -0.7782  1.1706 -1.9690
10502TIP3    H252922   4.639   6.366  15.291 -1.1465 -0.4222  1.3722
10503TIP3   OH252923   4.610   4.435   2.212  0.1354  0.4016 -0.5936
10503TIP3    H152924   4.520   4.427   2.244  0.0863 -1.2573 -1.0289
10503TIP3    H252925   4.605   4.499   2.141 -0.6134  0.6353 -0.3401
10504TIP3   OH252926   1.973   1.633   3.321 -0.8578 -0.1749  0.1661
10504TIP3    H152927   1.887   1.604   3.350 -1.4018  2.0401  0.9762
10504TIP3    H252928   1.955   1.695   3.250  0.2089 -1.2063 -1.0774
10505TIP3   OH252929   0.778   3.876   1.181 -0.3211  0.1084 -0.1285
10505TIP3    H152930   0.798   3.784   1.200 -0.8666  0.1226  0.5347
10505TIP3    H252931   0.693   3.873   1.137 -0.7039  0.3558  0.5926
10506TIP3   OH252932   0.412   5.367  10.761  0.5241 -0.1096  0.4253
10506TIP3    H152933   0.391   5.298  10.699  1.8322 -0.1476  0.0043
10506TIP3    H252934   0.327   5.408  10.781 -0.0101 -0.5840 -0.7919
10507TIP3   OH252935   0.634   1.902  13.040 -0.0262 -0.2115  0.7934
10507TIP3    H152936   0.701   1.843  13.004  1.3944  1.6259  0.2222
10507TIP3    H252937   0.676   1.988  13.040 -3.2028  1.6020 -2.1024
10508TIP3   OH252938   3.716   1.963   4.298 -0.6071  0.5631 -0.2940
10508TIP3    H152939   3.699   2.027   4.367 -1.3635 -0.1208  0.1676
10508TIP3    H252940   3.634   1.957   4.250  0.5414  2.8695 -2.8979
10509TIP3   OH252941   5.395   2.897   5.471  0.5563  0.2695 -0.1627
10509TIP3    H152942   5.300   2.881   5.473  0.4712  0.8299  1.5330
10509TIP3    H252943   5.422   2.865   5.385 -1.4429  1.5927 -1.3788
10510TIP3   OH252944   3.598   2.206   3.324 -0.3574  0.3200  0.0901
10510TIP3    H152945   3.634   2.262   3.393 -0.1467  1.4065 -0.8742
10510TIP3    H252946   3.674   2.180   3.272 -0.7165  1.1517 -0.8943
10511TIP3   OH252947   1.333   3.543  16.778 -0.0565  0.0680  0.6485
10511TIP3    H152948   1.407   3.486  16.796 -0.3386 -1.0697 -1.5057
10511TIP3    H252949   1.372   3.628  16.757  0.4475  0.2450  2.1764
10512TIP3   OH252950   5.116   0.363  13.594 -0.5008 -0.0736  0.7017
10512TIP3    H152951   5.062   0.442  13.597 -0.0173  0.3053 -0.2069
10512TIP3    H252952   5.204   0.395  13.574 -0.3763 -0.8771 -0.0758
10513TIP3   OH252953   5.477   4.373  16.843  0.1215  0.1569 -0.4168
10513TIP3    H152954   5.472   4.281  16.818  0.9515  0.2909 -1.1359
10513TIP3    H252955   5.406   4.385  16.906 -0.3151 -0.8498 -0.6984
10514TIP3   OH252956   3.959   6.144   0.623  0.3583 -0.3393 -0.1799
10514TIP3    H152957   4.001   6.159   0.538 -0.3983  0.1850 -0.4759
10514TIP3    H252958   3.899   6.218   0.633  0.4488 -0.3964  0.8219
10515TIP3   OH252959   0.002   2.308  13.654 -0.1317  0.3265 -0.1411
10515TIP3    H152960   0.025   2.230  13.703 -0.7032  0.6071  0.5887
10515TIP3    H252961   0.037   2.293  13.566 -1.3861 -1.3229 -0.4030
10516TIP3   OH252962   6.277   5.617  16.214 -0.0317  0.5224  1.0633
10516TIP3    H152963   6.212   5.679  16.182 -0.3019  0.5054  1.5699
10516TIP3    H252964   6.226   5.541  16.242  0.3374 -0.1601 -0.0702
10517TIP3   OH252965   0.824   3.251   0.496 -0.3063  0.5619  0.2182
10517TIP3    H152966   0.892   3.191   0.467 -0.6782  1.1561 -2.0989
10517TIP3    H252967   0.772   3.201   0.560  1.4365 -0.3403  0.9800
10518TIP3   OH252968   2.927   5.482  12.815  0.0356  0.0399 -0.0493
10518TIP3    H152969   2.836   5.484  12.847  0.5724 -2.1636  1.8980
10518TIP3    H252970   2.937   5.394  12.779  1.1124  0.6385 -1.2586
10519TIP3   OH252971   4.852   2.732  15.404 -0.1602 -0.2861 -0.2685
10519TIP3    H152972   4.806   2.808  15.368  0.1121  0.4879  0.9651
10519TIP3    H252973   4.831   2.733  15.497  1.4222 -0.5675  0.1244
10520TIP3   OH252974   2.995   4.249   0.430  0.2552  0.2162  0.3765
10520TIP3    H152975   3.006   4.177   0.492 -0.8263 -0.0513  0.2696
10520TIP3    H252976   2.924   4.222   0.373 -1.0003  1.8484  1.0766
10521TIP3   OH252977   0.074   3.335   2.301  0.0539 -0.3171 -0.4011
10521TIP3    H152978   0.097   3.402   2.237  0.8939 -1.1668 -1.0192
10521TIP3    H252979   0.060   3.256   2.249  1.5575 -1.2295  0.5002
10522TIP3   OH252980   5.196   2.664  13.045  0.1181 -0.1820  0.5066
10522TIP3    H152981   5.162   2.743  13.002 -0.2990  0.1020  1.3422
10522TIP3    H252982   5.271   2.694  13.096  0.1588 -0.3831  0.5680
10523TIP3   OH252983   0.360   3.332   2.344  0.0335  0.1028  0.4081
10523TIP3    H152984   0.386   3.265   2.281 -0.3803  0.4617 -0.1587
10523TIP3    H252985   0.264   3.332   2.340 -0.0443 -0.3799  1.5876
10524TIP3   OH252986   4.649   5.554  14.779  0.0780  0.0271  0.1865
10524TIP3    H152987   4.666   5.616  14.708  0.6259 -0.6602 -0.3015
10524TIP3    H252988   4.632   5.608  14.856  0.0172  0.7775 -0.3486
10525TIP3   OH252989   4.361   2.274   0.235 -0.3108  0.1059 -0.5174
10525TIP3    H152990   4.288   2.217   0.211 -0.0438 -0.5743  0.2842
10525TIP3    H252991   4.438   2.231   0.200 -0.1122 -0.0122  0.0571
10526TIP3   OH252992   2.395   3.157  13.560  0.1631  0.0577 -0.0355
10526TIP3    H152993   2.419   3.075  13.517  0.3404 -0.4229  0.9622
10526TIP3    H252994   2.303   3.145  13.584 -0.3761  0.8915 -1.5369
10527TIP3   OH252995   6.280   4.842  11.949 -0.9596  0.4629  0.4723
10527TIP3    H152996   6.223   4.833  11.873 -0.7799  2.6431  0.0070
10527TIP3    H252997   6.359   4.884  11.915 -0.3645  0.3441  1.6512
10528TIP3   OH252998   3.976   1.382   3.427 -0.1645 -0.3622 -0.5292
10528TIP3    H152999   4.036   1.437   3.378 -0.8709 -2.1595 -3.6955
10528TIP3    H253000   3.910   1.442   3.462  0.2855  1.0134 -1.9452
10529TIP3   OH253001   5.185   2.803  11.710 -0.1135 -0.7074 -0.2808
10529TIP3    H153002   5.139   2.867  11.656 -0.7916 -1.1312 -0.2086
10529TIP3    H253003   5.264   2.782  11.660 -0.4468 -0.6532 -0.8339
10530TIP3   OH253004   3.221   0.430   5.017  0.2509 -0.2713  0.1000
10530TIP3    H153005   3.231   0.524   5.006  0.6425 -0.3903 -0.6904
10530TIP3    H253006   3.188   0.419   5.106 -2.0904  0.7433 -0.5605
10531TIP3   OH253007   2.350   6.542   0.980  0.1716  0.3273 -0.0821
10531TIP3    H153008   2.373   6.456   0.946 -2.0723 -0.0405 -0.8670
10531TIP3    H253009   2.433   6.589   0.986  1.3656 -1.6881 -0.1866
10532TIP3   OH253010   3.243   2.838  14.565 -0.0011  0.1191  0.4772
10532TIP3    H153011   3.163   2.890  14.569 -0.9583 -1.1966 -0.3901
10532TIP3    H253012   3.257   2.823  14.471  2.2794  1.7763  0.4770
10533TIP3   OH253013   2.746   2.256   2.027  0.5557 -0.2133 -0.6412
10533TIP3    H153014   2.743   2.187   2.093 -1.3131  0.0445 -0.3979
10533TIP3    H253015   2.816   2.229   1.967 -0.1263 -2.3362 -0.5738
10534TIP3   OH253016   5.992   4.657  14.449 -0.3418 -0.1076 -0.0067
10534TIP3    H153017   5.940   4.660  14.369 -0.0607  0.1569 -0.1823
10534TIP3    H253018   6.002   4.749  14.474 -0.1456 -0.1713  0.1488
10535TIP3   OH253019   3.419   3.616   3.605  0.4948 -0.0425  0.0087
10535TIP3    H153020   3.378   3.614   3.518 -0.4171 -2.8147  0.3787
10535TIP3    H253021   3.354   3.573   3.662  1.9343 -0.1747  1.6167
10536TIP3   OH253022   1.159   2.488  11.621 -0.3109 -0.1152 -0.0408
10536TIP3    H153023   1.227   2.517  11.560 -0.2343 -0.0112  0.0931
10536TIP3    H253024   1.180   2.397  11.638 -0.4696 -0.2140 -0.3533
10537TIP3   OH253025   2.514   4.926   6.532 -0.0145  0.4947  0.1322
10537TIP3    H153026   2.562   5.008   6.541 -1.9545  1.6553  0.5328
10537TIP3    H253027   2.426   4.946   6.564 -0.9260 -1.3893 -1.0187
10538TIP3   OH253028   6.065   4.345   5.073 -0.0070 -0.1348 -0.3657
10538TIP3    H153029   6.156   4.337   5.046  1.4680  1.1899  3.4354
10538TIP3    H253030   6.030   4.417   5.021  2.7963  2.7389  1.3633
10539TIP3   OH253031   0.293   1.585   3.207 -0.6632 -0.1897  0.7425
10539TIP3    H153032   0.323   1.600   3.296 -1.2825 -0.0032  0.9226
10539TIP3    H253033   0.283   1.672   3.170  1.2726 -0.2780 -0.0952
10540TIP3   OH253034   4.131   6.500   3.198  0.1171 -0.1125 -0.4699
10540TIP3    H153035   4.184   6.529   3.273  0.3308 -3.8708  1.0440
10540TIP3    H253036   4.194   6.491   3.127  0.7688 -0.6320  0.1564
10541TIP3   OH253037   3.699   5.554  11.404 -0.0493 -0.1860 -0.2115
10541TIP3    H153038   3.698   5.522  11.314 -1.9456 -0.4725 -0.1425
10541TIP3    H253039   3.722   5.478  11.457 -0.2995 -0.3642 -0.3583
10542TIP3   OH253040   3.770   5.235   6.284  0.6663  0.9003  0.4834
10542TIP3    H153041   3.765   5.247   6.379  1.6849  2.4661  0.3686
10542TIP3    H253042   3.839   5.170   6.271  0.6420  0.8104  0.7993
10543TIP3   OH253043   1.736   1.486  12.955  0.2355  0.0747 -0.4793
10543TIP3    H153044   1.667   1.552  12.947  0.1362  0.3232  1.6534
10543TIP3    H253045   1.815   1.529  12.923 -0.3684  0.1850 -1.8597
10544TIP3   OH253046   6.215   2.886  10.404 -0.2366  0.4161  0.5784
10544TIP3    H153047   6.142   2.841  10.361 -1.0848  0.9818  1.3771
10544TIP3    H253048   6.210   2.859  10.495  0.5397  0.4946  0.6524
10545TIP3   OH253049   5.200   3.085  13.739  0.1522  0.1530  0.2221
10545TIP3    H153050   5.127   3.135  13.701 -0.7898 -1.4965 -0.2153
10545TIP3    H253051   5.170   3.063  13.827  0.6372  0.4675  0.4724
10546TIP3   OH253052   6.732   1.092   1.204  0.3355  0.3278  0.2889
10546TIP3    H153053   6.701   1.157   1.141 -3.3511 -2.3328 -1.0292
10546TIP3    H253054   6.764   1.143   1.278  0.0886  3.5715 -1.6598
10547TIP3   OH253055   1.792   4.228   6.016 -0.1361  0.2354  0.4248
10547TIP3    H153056   1.842   4.188   5.945  0.8093 -0.6267  1.5425
10547TIP3    H253057   1.710   4.178   6.019 -0.3216  0.4875 -0.2465
10548TIP3   OH253058   0.661   4.622   6.110 -0.0744 -0.1206  0.0418
10548TIP3    H153059   0.677   4.564   6.184 -0.0267  1.6858  1.5429
10548TIP3    H253060   0.741   4.618   6.058  1.5478  1.4456  2.2038
10549TIP3   OH253061   5.688   5.041   3.082  0.1250  1.0638  0.1013
10549TIP3    H153062   5.765   5.050   3.025  1.4966  1.5781  1.9180
10549TIP3    H253063   5.718   4.985   3.153 -2.1290 -1.1701 -0.5579
10550TIP3   OH253064   2.577   5.132   2.066 -0.4337 -0.2678  0.0708
10550TIP3    H153065   2.640   5.089   2.124 -0.2217 -0.2454 -0.1388
10550TIP3    H253066   2.612   5.220   2.054 -2.0851  0.8146  2.4135
10551TIP3   OH253067   6.076   3.989   5.789  0.3214 -0.3179  0.1943
10551TIP3    H153068   6.015   3.924   5.755 -0.5096  0.4524  0.1990
10551TIP3    H253069   6.068   4.063   5.729  1.0734 -0.1078  0.3411
10552TIP3   OH253070   4.260   2.008   3.006  0.0233 -0.2635 -0.0348
10552TIP3    H153071   4.267   2.037   2.915  1.4746  0.1125  0.1674
10552TIP3    H253072   4.283   2.085   3.058  2.4093 -1.2605  0.5510
10553TIP3   OH253073   3.657   5.182  13.015  0.0948 -0.1523 -0.0491
10553TIP3    H153074   3.667   5.277  13.017 -0.4445 -0.0582  2.8812
10553TIP3    H253075   3.628   5.159  13.103 -2.4087 -2.7944 -1.3897
10554TIP3   OH253076   3.731   4.243  11.477  0.0223 -0.2794 -0.0172
10554TIP3    H153077   3.735   4.318  11.418 -0.0865  0.1580  0.5164
10554TIP3    H253078   3.646   4.252  11.520  0.3108 -0.3076  0.5671
10555TIP3   OH253079   6.456   5.895  14.526 -0.4500 -0.4934 -0.8480
10555TIP3    H153080   6.406   5.814  14.513 -0.3755 -0.8770  1.0388
10555TIP3    H253081   6.546   5.866  14.538 -0.5733 -0.2570  0.8906
10556TIP3   OH253082   5.463   4.364   1.193  0.0182 -0.1105 -0.6085
10556TIP3    H153083   5.400   4.389   1.261 -0.6761 -4.2306  0.5515
10556TIP3    H253084   5.547   4.361   1.239  0.0345 -0.1309 -0.6403
10557TIP3   OH253085   4.867   0.426  17.292  0.3354  0.2509  0.3856
10557TIP3    H153086   4.908   0.343  17.317  1.6774  0.7483 -0.0564
10557TIP3    H253087   4.940   0.481  17.262 -0.5954  1.3915  0.1174
10558TIP3   OH253088   2.290   0.107  11.985  0.0021  0.0729  0.1960
10558TIP3    H153089   2.246   0.039  11.935  0.8043 -0.9919  0.8781
10558TIP3    H253090   2.296   0.182  11.926 -1.1147 -0.3635 -0.4834
10559TIP3   OH253091   5.013   4.406   5.411  0.1677 -0.3761  0.3469
10559TIP3    H153092   5.085   4.427   5.351 -0.4254  1.9360  0.3430
10559TIP3    H253093   4.953   4.354   5.358  0.7740 -0.3828 -0.3584
10560TIP3   OH253094   2.609   4.439   1.785 -0.0170 -0.2477  0.0329
10560TIP3    H153095   2.667   4.419   1.712  1.3773  0.8703  0.7868
10560TIP3    H253096   2.592   4.532   1.778 -2.9719 -0.7730 -1.0027
10561TIP3   OH253097   0.544   3.011   0.313 -0.3084 -0.3719  0.1151
10561TIP3    H153098   0.621   2.961   0.340 -1.6866 -1.8464  1.6296
10561TIP3    H253099   0.564   3.101   0.336  2.2498 -0.0727 -2.6428
10562TIP3   OH253100   1.419   4.687  17.132  0.0843 -0.4592  0.0737
10562TIP3    H153101   1.423   4.723  17.221 -0.0630 -0.1884 -0.0291
10562TIP3    H253102   1.338   4.637  17.130 -0.9440  1.1480 -0.5076
10563TIP3   OH253103   2.547   3.274   4.272 -0.3794 -0.6171 -0.3066
10563TIP3    H153104   2.613   3.283   4.341  1.4647  0.9573 -2.1556
10563TIP3    H253105   2.484   3.344   4.290  1.2219  1.1550 -1.3305
10564TIP3   OH253106   5.469   2.124   6.000 -0.2336  0.3816 -0.4150
10564TIP3    H153107   5.389   2.072   6.003 -1.0142  1.5203 -0.8673
10564TIP3    H253108   5.477   2.160   6.089 -0.8017  1.1036 -0.6520
10565TIP3   OH253109   2.120   1.065  14.616  0.4454  0.3870  0.1451
10565TIP3    H153110   2.065   1.111  14.551 -0.2194 -0.1298  0.3325
10565TIP3    H253111   2.205   1.057  14.573  0.1304  0.4193 -0.5057
10566TIP3   OH253112   5.711   2.388   5.412 -0.0134 -0.5143  0.2652
10566TIP3    H153113   5.734   2.479   5.394 -0.3706 -0.7128 -1.2706
10566TIP3    H253114   5.627   2.393   5.458  0.9724 -0.0017  2.1281
10567TIP3   OH253115   4.685   1.795  11.402 -0.3792  0.0301 -0.0042
10567TIP3    H153116   4.672   1.888  11.386  0.6389  0.2575  0.4417
10567TIP3    H253117   4.671   1.753  11.316 -1.7251  0.4795 -0.0209
10568TIP3   OH253118   2.866   3.573   4.254  0.3340 -0.6349 -0.9871
10568TIP3    H153119   2.902   3.617   4.177  3.6198 -1.5681 -0.1401
10568TIP3    H253120   2.896   3.483   4.247 -1.1712 -1.2930  0.3270
10569TIP3   OH253121   3.802   2.658  14.279  0.0680  0.5737 -0.1543
10569TIP3    H153122   3.803   2.563  14.295 -0.8885  0.8386  1.7662
10569TIP3    H253123   3.724   2.672  14.226 -0.6889  0.4536  0.9079
10570TIP3   OH253124   2.917   1.429   4.377 -0.2151 -0.3595 -0.1358
10570TIP3    H153125   2.863   1.479   4.438 -0.6849 -1.2618  0.1962
10570TIP3    H253126   2.867   1.350   4.359 -0.5948  0.3427 -2.5405
10571TIP3   OH253127   4.855   3.467   4.089  0.2482  0.0866 -0.2119
10571TIP3    H153128   4.861   3.520   4.168 -1.1937 -0.3636  0.2400
10571TIP3    H253129   4.781   3.505   4.041  1.3414  0.6016 -1.5672
10572TIP3   OH253130   0.554   4.747  12.843 -0.3119 -0.0468 -0.2117
10572TIP3    H153131   0.613   4.816  12.873  0.1068  0.0686 -1.2515
10572TIP3    H253132   0.477   4.794  12.811 -0.1318 -0.0756 -0.6899
10573TIP3   OH253133   3.424   1.028   1.547  0.3047  0.1281  0.1878
10573TIP3    H153134   3.511   1.041   1.510  0.7712 -2.0102  0.3727
10573TIP3    H253135   3.433   0.951   1.603 -1.1743  1.2784  2.1238
10574TIP3   OH253136   3.461   4.721   0.090  0.3085  0.0157 -0.0506
10574TIP3    H153137   3.418   4.636   0.084  0.1287  0.2091 -2.1221
10574TIP3    H253138   3.554   4.702   0.081  0.3238 -0.0180  0.1716
10575TIP3   OH253139   2.259   3.743  16.514  0.8313 -0.3219 -0.2590
10575TIP3    H153140   2.184   3.701  16.472  0.1547  2.0972 -1.6933
10575TIP3    H253141   2.223   3.782  16.594  0.7228  0.2017 -0.5615
10576TIP3   OH253142   2.877   2.937   2.543  0.0629 -0.2601 -0.4566
10576TIP3    H153143   2.845   2.968   2.627  0.8590 -0.6654  0.0114
10576TIP3    H253144   2.831   2.855   2.528  0.0425 -0.2708 -0.3368
10577TIP3   OH253145   1.446   5.840   5.420  0.2093 -0.0632 -0.0830
10577TIP3    H153146   1.412   5.877   5.502  1.1918  0.1394  0.2505
10577TIP3    H253147   1.541   5.842   5.431  0.3464 -2.9756  0.0735
10578TIP3   OH253148   1.591   2.031  16.852 -0.3590 -0.1138  0.4853
10578TIP3    H153149   1.571   2.124  16.839 -0.4365 -0.3422 -1.2994
10578TIP3    H253150   1.540   1.986  16.784  0.4572 -1.3746  0.6837
10579TIP3   OH253151   3.839   1.865   0.047  0.5526 -0.4097 -0.1774
10579TIP3    H153152   3.807   1.940   0.097  1.8859 -0.4200  0.7626
10579TIP3    H253153   3.877   1.807   0.113  1.8400 -0.7105 -1.1337
10580TIP3   OH253154   0.646   4.048  16.400  0.4256  0.2533  0.0826
10580TIP3    H153155   0.732   4.015  16.425  0.2954 -1.0381 -1.0618
10580TIP3    H253156   0.665   4.130  16.353  1.0941 -0.3407 -0.7156
10581TIP3   OH253157   5.855   4.977   2.856 -0.4883  0.1458  0.5376
10581TIP3    H153158   5.950   4.980   2.861 -0.3565 -1.0179 -0.7365
10581TIP3    H253159   5.829   5.068   2.842  0.6590  0.1967 -1.8267
10582TIP3   OH253160   4.719   4.652  16.934 -0.1152 -0.1510 -0.2352
10582TIP3    H153161   4.771   4.733  16.938 -0.0519 -0.2328  1.0374
10582TIP3    H253162   4.652   4.664  17.001  0.8748 -1.8157  1.0989
10583TIP3   OH253163   6.373   1.829  14.640 -0.4270  0.2097 -0.4298
10583TIP3    H153164   6.381   1.855  14.548  0.4705  1.1890 -0.0912
10583TIP3    H253165   6.414   1.900  14.689 -1.2753 -0.0978  0.7624
10584TIP3   OH253166   5.638   4.779  16.837  0.0188  0.6221 -0.3177
10584TIP3    H153167   5.554   4.747  16.804 -0.0366  0.7382 -0.2933
10584TIP3    H253168   5.698   4.705  16.829 -0.5595 -0.1184  1.5329
10585TIP3   OH253169   6.096   3.160   0.122 -0.3741 -0.1350 -0.7422
10585TIP3    H153170   6.005   3.139   0.102 -1.0905  2.3000 -0.3560
10585TIP3    H253171   6.118   3.231   0.061  0.6572  0.5721  0.4103
10586TIP3   OH253172   3.650   5.714  13.220  0.0446  0.0467 -0.0267
10586TIP3    H153173   3.742   5.739  13.211 -0.0671  0.7211  0.5700
10586TIP3    H253174   3.648   5.656  13.296  0.1467 -0.9658 -0.7783
10587TIP3   OH253175   1.767   3.487   0.734 -0.1157 -0.1461 -0.2879
10587TIP3    H153176   1.737   3.427   0.666  0.1928 -2.3251  1.3867
10587TIP3    H253177   1.862   3.481   0.731  0.0801  2.4239 -1.8645
10588TIP3   OH253178   6.023   1.819   2.599 -0.1423 -0.5257  0.4576
10588TIP3    H153179   6.011   1.724   2.587  0.5399 -0.5734  0.0495
10588TIP3    H253180   6.118   1.831   2.590 -0.3845  0.4190 -1.2187
10589TIP3   OH253181   0.299   1.842   5.994  0.2614 -0.1147  0.3260
10589TIP3    H153182   0.254   1.759   6.010 -1.4344  0.6597 -0.2008
10589TIP3    H253183   0.312   1.846   5.900  1.2910 -0.2350  0.4508
10590TIP3   OH253184   0.742   2.951   3.756  0.6769  0.6105  0.2681
10590TIP3    H153185   0.810   2.989   3.700  1.4496  1.3810  1.6657
10590TIP3    H253186   0.769   2.974   3.845 -1.6359  1.3129  0.8572
10591TIP3   OH253187   2.304   5.910  13.324 -0.1175  0.1634  0.2659
10591TIP3    H153188   2.327   5.845  13.257 -1.2490  1.2089 -1.2064
10591TIP3    H253189   2.276   5.858  13.399 -1.5542 -1.0904 -1.0792
10592TIP3   OH253190   5.500   4.037  16.225  0.3126  0.3353  0.1484
10592TIP3    H153191   5.517   4.004  16.137 -1.1252  1.9416 -0.8040
10592TIP3    H253192   5.503   3.959  16.280  1.0785 -0.7472 -1.3265
10593TIP3   OH253193   5.470   5.391  12.113 -0.1186 -0.8458  0.2168
10593TIP3    H153194   5.382   5.412  12.145  0.2065 -0.9756  1.2458
10593TIP3    H253195   5.490   5.306  12.152  0.7301 -0.4977  0.5612
10594TIP3   OH253196   5.410   3.617   3.827  0.4815  0.2672 -0.1029
10594TIP3    H153197   5.347   3.564   3.779 -0.8193  0.6803  1.0736
10594TIP3    H253198   5.406   3.703   3.785 -0.3389  0.5083  0.4369
10595TIP3   OH253199   3.692   0.783  16.696 -0.1567  0.0049  0.0086
10595TIP3    H153200   3.663   0.784  16.605  0.8514 -1.4538 -0.3700
10595TIP3    H253201   3.686   0.874  16.725  0.9823  0.7626 -1.9989
10596TIP3   OH253202   5.186   4.847  17.187  0.2052  0.3040  0.2023
10596TIP3    H153203   5.115   4.901  17.221 -1.5340 -1.0911 -1.0504
10596TIP3    H253204   5.189   4.772  17.245  2.4153  1.4721  1.7557
10597TIP3   OH253205   6.679   5.792  14.637  0.0364 -0.8137 -0.1049
10597TIP3    H153206   6.705   5.741  14.560 -2.2954  0.6553 -1.9825
10597TIP3    H253207   6.759   5.838  14.663  0.9817 -1.6796 -1.3240
10598TIP3   OH253208   1.720   6.747  13.620 -0.1139  0.1258 -0.0419
10598TIP3    H153209   1.765   6.789  13.546  0.2096 -0.7854 -0.3771
10598TIP3    H253210   1.635   6.722  13.585 -1.4651  2.9749  0.9357
10599TIP3   OH253211   5.120   2.117  12.641 -0.1433 -0.2198  0.0299
10599TIP3    H153212   5.168   2.105  12.559  0.3224 -1.0181  0.4093
10599TIP3    H253213   5.185   2.151  12.703 -0.9063  2.1737 -0.3907
10600TIP3   OH253214   1.809   6.115   4.315 -0.1770  0.7487  0.3565
10600TIP3    H153215   1.828   6.106   4.408 -1.5231  1.6395  0.7390
10600TIP3    H253216   1.718   6.084   4.305 -0.1503  0.9257 -0.6129
10601TIP3   OH253217   6.282   2.352   0.664  0.2007 -0.1296 -0.2014
10601TIP3    H153218   6.245   2.376   0.749  1.2037  1.1944 -0.1091
10601TIP3    H253219   6.217   2.294   0.625 -0.6941 -0.0268  1.0819
10602TIP3   OH253220   2.201   2.816   0.020 -0.1803 -0.0199 -0.1251
10602TIP3    H153221   2.133   2.867  -0.024  0.8190  0.7322 -0.8115
10602TIP3    H253222   2.281   2.865   0.007  0.7133 -1.4573 -0.2828
10603TIP3   OH253223   1.426   5.991   0.681  0.1846  0.1978 -0.0421
10603TIP3    H153224   1.341   5.953   0.703 -0.6341  1.6145 -0.5672
10603TIP3    H253225   1.437   6.062   0.745  0.6253  0.4697 -0.4148
10604TIP3   OH253226   3.941   2.535  11.589 -0.0217 -0.4557  0.8512
10604TIP3    H153227   3.846   2.534  11.577  0.1206 -0.0097 -0.4562
10604TIP3    H253228   3.971   2.608  11.535  1.1846 -1.3152  0.3117
10605TIP3   OH253229   3.964   5.360  12.888 -0.0024  0.2476  0.2146
10605TIP3    H153230   3.901   5.424  12.922 -0.3001  0.4613 -0.7004
10605TIP3    H253231   4.030   5.413  12.843 -0.4975 -0.0873 -0.9522
10606TIP3   OH253232   3.484   5.030  15.915 -0.4355 -0.1914 -0.3375
10606TIP3    H153233   3.418   5.098  15.932 -2.0393 -1.2746 -1.9186
10606TIP3    H253234   3.493   5.029  15.820  2.5031  0.4223 -0.1461
10607TIP3   OH253235   4.249   0.814  13.517  0.7264  0.1227 -1.0187
10607TIP3    H153236   4.215   0.903  13.525 -0.1426 -0.3490  1.2910
10607TIP3    H253237   4.330   0.814  13.568 -0.3009 -0.8289  0.7278
10608TIP3   OH253238   1.843   1.644  13.697 -0.0344  0.0398  0.3673
10608TIP3    H153239   1.868   1.619  13.609 -0.7545 -1.3890  0.5362
10608TIP3    H253240   1.881   1.731  13.710  1.3951 -0.3901 -0.7722
10609TIP3   OH253241   1.884   0.652  17.203 -0.0580  0.0167  0.8135
10609TIP3    H153242   1.949   0.659  17.134  0.1832  0.6807  1.0961
10609TIP3    H253243   1.806   0.617  17.160  0.6002 -1.2154  0.5544
10610TIP3   OH253244   1.403   3.615   1.092  0.4285 -0.5770 -0.3546
10610TIP3    H153245   1.481   3.615   1.147  1.1858 -0.7335 -1.3911
10610TIP3    H253246   1.409   3.533   1.043  0.4529  0.1355 -1.5837
10611TIP3   OH253247   5.080   4.560  11.441 -0.1666  0.1541 -0.0446
10611TIP3    H153248   5.054   4.496  11.375  0.2625 -0.5059  0.4139
10611TIP3    H253249   5.016   4.630  11.433  0.1463  0.3129 -1.4837
10612TIP3   OH253250   5.735   2.076   4.020  0.1857  0.0338 -0.4909
10612TIP3    H153251   5.671   2.089   4.090 -0.6407 -0.6729 -1.1043
10612TIP3    H253252   5.778   1.993   4.042  0.1390 -0.0350 -0.6607
10613TIP3   OH253253   6.247   1.533  12.084 -0.5597 -0.3023  0.1896
10613TIP3    H153254   6.249   1.485  12.167  1.0490 -0.0004  0.3459
10613TIP3    H253255   6.258   1.466  12.017 -0.1251 -0.3542  0.3114
10614TIP3   OH253256   5.930   2.327  15.142 -0.1063 -0.3658 -0.2671
10614TIP3    H153257   5.936   2.400  15.203 -0.7622  0.5902 -1.3204
10614TIP3    H253258   5.869   2.356  15.075  0.5844 -1.3911 -1.3863
10615TIP3   OH253259   3.423   4.343   3.820  0.1683 -0.2326 -0.2536
10615TIP3    H153260   3.499   4.314   3.870 -0.9614  0.1658  1.7598
10615TIP3    H253261   3.394   4.422   3.864 -2.4493 -1.3129  0.1391
10616TIP3   OH253262   5.328   2.406  14.513 -0.0067  0.3344 -0.2212
10616TIP3    H153263   5.314   2.314  14.532  0.2761  0.3181 -0.0791
10616TIP3    H253264   5.275   2.423  14.435 -0.5435  0.2094  0.1111
10617TIP3   OH253265   4.041   5.371   0.221  0.1301  0.0300  0.4189
10617TIP3    H153266   3.995   5.454   0.206 -1.4253 -0.7074  0.8851
10617TIP3    H253267   4.118   5.375   0.164 -0.8379  1.0635 -0.8712
10618TIP3   OH253268   1.185   6.136   6.475  0.1425 -0.6054  0.2488
10618TIP3    H153269   1.216   6.113   6.563 -2.1195 -1.3301  0.9228
10618TIP3    H253270   1.092   6.111   6.475 -0.3538  0.9883 -1.7837
10619TIP3   OH253271   6.444   3.181   3.766  0.0611  0.3314  0.5243
10619TIP3    H153272   6.417   3.151   3.679  2.2694  1.5775 -0.6954
10619TIP3    H253273   6.540   3.173   3.765  0.3146  2.3324  2.0592
10620TIP3   OH253274   0.862   4.911   3.741  0.1096 -0.6825 -0.5052
10620TIP3    H153275   0.938   4.891   3.687 -1.0271 -0.5554 -2.2279
10620TIP3    H253276   0.866   4.848   3.814  1.6984 -0.8257 -0.6938
10621TIP3   OH253277   2.293   6.089   1.269  0.0026 -0.0593  0.1032
10621TIP3    H153278   2.245   6.013   1.236  0.0862  0.2636 -0.8020
10621TIP3    H253279   2.255   6.164   1.222  1.8908  0.1226 -1.2712
10622TIP3   OH253280   2.723   0.763   6.220  0.0484 -0.4622 -0.0496
10622TIP3    H153281   2.675   0.795   6.296 -0.8839 -2.2531  0.1595
10622TIP3    H253282   2.694   0.819   6.148  0.7189  1.0603  0.8286
10623TIP3   OH253283   6.665   2.127   6.334  0.2307  0.0245 -0.3449
10623TIP3    H153284   6.657   2.098   6.425 -1.6018  1.6532  0.0795
10623TIP3    H253285   6.598   2.079   6.287  1.3177 -0.9757 -0.9268
10624TIP3   OH253286   3.567   3.879   4.516 -0.1263  0.1348 -0.2720
10624TIP3    H153287   3.551   3.793   4.479 -1.0183 -0.4326  1.3188
10624TIP3    H253288   3.506   3.937   4.471 -0.8053 -0.4325 -0.1056
10625TIP3   OH253289   2.252   5.514  13.331  0.6950 -0.1082 -0.5027
10625TIP3    H153290   2.348   5.508  13.325  0.5553 -2.8999 -1.7612
10625TIP3    H253291   2.226   5.437  13.381 -0.8179  2.5298  3.2290
10626TIP3   OH253292   3.337   0.616  12.336  0.1782 -0.0804 -0.2867
10626TIP3    H153293   3.345   0.561  12.258 -0.4016  1.3157 -1.3648
10626TIP3    H253294   3.371   0.701  12.310  1.2979  0.0562  1.4340
10627TIP3   OH253295   2.584   4.725  10.729 -0.1981  0.3653  0.2908
10627TIP3    H153296   2.512   4.674  10.768  0.2039  0.7394  1.5699
10627TIP3    H253297   2.563   4.728  10.636 -0.7508 -1.2955  0.3225
10628TIP3   OH253298   4.817   4.395  14.807  0.7472  0.3219 -0.1929
10628TIP3    H153299   4.742   4.380  14.750  0.6380  1.9083 -0.5001
10628TIP3    H253300   4.796   4.347  14.887 -1.0238  1.4689  0.0670
10629TIP3   OH253301   5.296   3.673  15.015  0.1556  0.2412 -0.7008
10629TIP3    H153302   5.283   3.580  15.031  0.3267  0.2962 -0.2387
10629TIP3    H253303   5.391   3.684  15.012  0.4393  1.1431  3.9773
10630TIP3   OH253304   3.187   1.786   3.081  0.1234 -0.0635 -0.4140
10630TIP3    H153305   3.100   1.817   3.105  0.0242  1.6495 -2.6772
10630TIP3    H253306   3.176   1.749   2.994  1.7157  0.5125 -0.8935
10631TIP3   OH253307   4.484   4.512  16.727 -0.1264 -0.7445  0.0446
10631TIP3    H153308   4.497   4.433  16.675 -0.5740  0.0349 -1.2829
10631TIP3    H253309   4.570   4.553  16.730 -0.1136 -0.7576 -0.1356
10632TIP3   OH253310   1.272   4.812   1.762  0.0500  0.2257  0.0886
10632TIP3    H153311   1.314   4.737   1.720 -0.5543  0.3748 -0.8015
10632TIP3    H253312   1.181   4.785   1.775 -0.2400  0.9024 -0.4932
10633TIP3   OH253313   4.002   0.626   6.326  0.1823  0.2792 -0.4371
10633TIP3    H153314   4.023   0.668   6.409 -2.3550  1.0314 -0.1107
10633TIP3    H253315   3.909   0.641   6.314 -0.4488 -3.3682 -1.4144
10634TIP3   OH253316   3.821   1.523   4.945 -0.4862 -0.6770  0.8077
10634TIP3    H153317   3.750   1.469   4.909  0.7278 -1.3989 -0.5927
10634TIP3    H253318   3.885   1.529   4.875  1.2234 -0.7156  2.2846
10635TIP3   OH253319   3.921   4.718  11.895  0.0549  0.6017 -0.0471
10635TIP3    H153320   3.943   4.742  11.805 -1.4724  1.5784 -0.2066
10635TIP3    H253321   3.968   4.636  11.910 -0.3522 -0.0712 -2.0537
10636TIP3   OH253322   6.314   5.884   5.484 -0.0156  0.5716  0.2613
10636TIP3    H153323   6.246   5.887   5.417 -0.5400  0.7745  0.7979
10636TIP3    H253324   6.272   5.844   5.559 -0.0118  2.1344  1.1330
10637TIP3   OH253325   4.778   2.631  12.293 -1.0342 -0.2958  0.1397
10637TIP3    H153326   4.834   2.554  12.285 -0.7588  0.0341 -1.4535
10637TIP3    H253327   4.740   2.624  12.381  0.2336 -1.3804  0.6320
10638TIP3   OH253328   3.887   5.463   4.059 -0.0944  0.5144  0.4407
10638TIP3    H153329   3.862   5.415   3.980  0.1573 -0.4159  0.9124
10638TIP3    H253330   3.808   5.511   4.084 -0.3142  0.4492 -0.1052
10639TIP3   OH253331   1.941   2.157  11.855  0.0809 -0.0637  0.0215
10639TIP3    H153332   1.960   2.065  11.835 -1.4705 -0.5212  0.5192
10639TIP3    H253333   2.027   2.196  11.869  0.7892 -1.3777 -0.4479
10640TIP3   OH253334   4.066   3.854   4.119 -0.1595  0.2316 -0.0177
10640TIP3    H153335   4.093   3.856   4.027 -0.5871  0.9704 -0.1316
10640TIP3    H253336   3.974   3.880   4.118 -0.0307  0.7468  0.6704
10641TIP3   OH253337   1.870   0.208   2.464 -0.1080 -0.8791  1.0019
10641TIP3    H153338   1.942   0.184   2.522 -0.1471 -4.8240 -0.2993
10641TIP3    H253339   1.799   0.234   2.523  0.8383 -1.7586  2.5815
10642TIP3   OH253340   3.587   3.373  16.641 -0.4922 -0.2801  0.2102
10642TIP3    H153341   3.518   3.439  16.637 -0.8050 -0.5852  0.4824
10642TIP3    H253342   3.629   3.388  16.726  0.9862  1.0924 -0.7127
10643TIP3   OH253343   2.894   1.399  16.044  0.0165  0.2540 -0.3902
10643TIP3    H153344   2.961   1.430  15.982 -0.2611  0.3830 -0.6290
10643TIP3    H253345   2.896   1.304  16.036  0.7967  0.2063  0.2662
10644TIP3   OH253346   6.053   0.979  14.213 -0.4386 -0.5611 -0.1100
10644TIP3    H153347   6.145   0.983  14.186 -0.6138 -0.8790 -0.7809
10644TIP3    H253348   6.035   0.885  14.219 -0.1056 -0.5268  2.2131
10645TIP3   OH253349   1.889   2.234  15.964  0.8638 -0.0072  0.3900
10645TIP3    H153350   1.852   2.220  16.051  0.8550 -0.3009  0.3404
10645TIP3    H253351   1.875   2.151  15.918  0.9599  0.1119  0.1432
10646TIP3   OH253352   4.312   1.808  12.429  0.4418 -0.5500 -0.1147
10646TIP3    H153353   4.351   1.865  12.496  0.9796 -0.9357 -0.0828
10646TIP3    H253354   4.258   1.747  12.479  0.1499 -0.2963 -0.1163
10647TIP3   OH253355   1.250   6.453  15.416 -0.0729  0.1346  0.4140
10647TIP3    H153356   1.336   6.442  15.457 -0.4068 -0.5864  0.9390
10647TIP3    H253357   1.226   6.366  15.386  0.6325  0.7785 -2.3625
10648TIP3   OH253358   0.256   3.693   0.299 -0.1934 -0.1701  0.1679
10648TIP3    H153359   0.337   3.731   0.266  0.2668  0.0928  1.5387
10648TIP3    H253360   0.252   3.606   0.260  1.2190 -0.5262  0.7723
10649TIP3   OH253361   1.976   0.866   5.302  0.0770  0.1948  0.3001
10649TIP3    H153362   2.022   0.790   5.265 -2.3321  0.0785 -2.8324
10649TIP3    H253363   1.994   0.937   5.241 -3.4874  0.1956 -0.9651
10650TIP3   OH253364   6.637   4.359  13.169  0.5484  0.1846  0.2535
10650TIP3    H153365   6.693   4.437  13.162  0.1153  0.6146  1.4801
10650TIP3    H253366   6.681   4.304  13.234  1.1963 -0.9216 -1.0598
10651TIP3   OH253367   6.742   3.955  13.519  0.1529 -0.0626  0.7554
10651TIP3    H153368   6.706   3.985  13.602  0.1309 -0.0448  0.7396
10651TIP3    H253369   6.673   3.900  13.481 -1.5785  3.0850 -1.1242
10652TIP3   OH253370   3.014   2.686   1.393 -0.1548 -0.3085 -0.3679
10652TIP3    H153371   3.082   2.628   1.428  0.5253  0.0945 -1.0075
10652TIP3    H253372   2.961   2.709   1.469 -0.0475 -1.2430  0.0068
10653TIP3   OH253373   3.182   1.353  17.146  0.0904 -0.3133 -0.3226
10653TIP3    H153374   3.146   1.360  17.234  0.0731  0.0317 -0.3575
10653TIP3    H253375   3.277   1.350  17.160  0.0892 -0.2193 -0.2964
10654TIP3   OH253376   1.802   4.030   0.920  0.2576 -0.1994 -0.3707
10654TIP3    H153377   1.715   4.006   0.949  0.3428 -0.0943 -0.0258
10654TIP3    H253378   1.796   4.031   0.824 -0.2285  0.2309 -0.3376
10655TIP3   OH253379   1.015   4.563  12.537  0.3843 -0.0808 -0.0812
10655TIP3    H153380   1.019   4.604  12.624 -2.6857  1.0977 -0.3749
10655TIP3    H253381   0.942   4.502  12.543 -0.7024  0.9148 -2.1350
10656TIP3   OH253382   6.047   4.372  10.497 -0.4586 -0.1171  0.7457
10656TIP3    H153383   5.980   4.341  10.558  0.0980  1.0854  2.0237
10656TIP3    H253384   6.130   4.343  10.536 -0.1402 -0.0373  0.1371
10657TIP3   OH253385   5.530   5.068  12.001 -0.0281 -0.0908 -0.1090
10657TIP3    H153386   5.620   5.044  12.021  0.0112 -0.4083 -0.6459
10657TIP3    H253387   5.477   5.019  12.064  0.1270 -0.5685 -0.3465
10658TIP3   OH253388   5.866   4.414   0.676  0.3087 -0.5146 -0.3252
10658TIP3    H153389   5.832   4.412   0.765  0.4029  0.9003 -0.2207
10658TIP3    H253390   5.790   4.401   0.620  0.1699 -0.9126 -0.0461
10659TIP3   OH253391   6.342   3.716  13.670  0.5924  0.2759 -0.4248
10659TIP3    H153392   6.255   3.719  13.631 -0.1187 -1.3376  0.9359
10659TIP3    H253393   6.381   3.636  13.634  0.4732 -0.4464  0.9988
10660TIP3   OH253394   0.317   1.818   5.728  0.1137  0.0463  0.1111
10660TIP3    H153395   0.327   1.865   5.645 -1.1436 -2.1449 -1.3937
10660TIP3    H253396   0.248   1.754   5.711  1.9957 -2.6556  1.8305
10661TIP3   OH253397   6.121   0.325  10.907  0.1812  0.1276 -0.4528
10661TIP3    H153398   6.168   0.390  10.854  0.4036 -0.7420 -1.3485
10661TIP3    H253399   6.034   0.320  10.868 -0.1242  0.4970  0.1541
10662TIP3   OH253400   4.809   6.238  15.592 -0.1254  0.2504  0.5071
10662TIP3    H153401   4.766   6.267  15.673 -1.6017  2.6732 -1.0092
10662TIP3    H253402   4.888   6.291  15.586 -0.6366  0.9704 -0.1704
10663TIP3   OH253403   3.837   0.310   3.726 -0.4940  0.1059 -0.5805
10663TIP3    H153404   3.814   0.371   3.655 -1.0706 -2.0660 -2.3534
10663TIP3    H253405   3.897   0.248   3.685  0.8234 -0.0257  1.4344
10664TIP3   OH253406   2.504   5.187   0.096  0.0421 -0.2860 -0.0289
10664TIP3    H153407   2.432   5.133   0.063 -0.4426  1.0702 -1.3064
10664TIP3    H253408   2.557   5.206   0.019 -0.3109  1.7797  0.1880
10665TIP3   OH253409   2.136   5.261   3.648 -0.3957 -0.2921  0.4770
10665TIP3    H153410   2.202   5.257   3.718  1.2249 -1.4499 -1.0320
10665TIP3    H253411   2.171   5.326   3.587 -1.2158 -0.1188  0.1899
10666TIP3   OH253412   5.147   4.072   1.354  0.1323  0.1531 -0.1687
10666TIP3    H153413   5.071   4.031   1.313  0.6871 -0.5289 -0.5417
10666TIP3    H253414   5.111   4.124   1.426 -0.6264 -0.6580  0.0480
10667TIP3   OH253415   6.576   4.986  12.310  0.3434  0.5174  0.0134
10667TIP3    H153416   6.545   5.011  12.222  0.9111  0.3203 -0.2491
10667TIP3    H253417   6.659   4.940  12.294  0.3612  0.3220  0.6432
10668TIP3   OH253418   5.739   0.316  12.085 -0.1893 -0.3479 -0.2254
10668TIP3    H153419   5.745   0.403  12.126  1.1202 -1.1184  1.3549
10668TIP3    H253420   5.810   0.315  12.021  0.6179 -0.6786  0.6597
10669TIP3   OH253421   3.124   4.580   3.208  0.1257  0.1524 -0.2578
10669TIP3    H153422   3.178   4.504   3.233 -0.1765 -0.1782 -0.5876
10669TIP3    H253423   3.187   4.650   3.193  0.8544 -1.0507 -3.8371
10670TIP3   OH253424   5.325   5.292   2.601  0.0614 -0.7699 -0.0663
10670TIP3    H153425   5.372   5.214   2.630 -0.1299 -1.3177 -1.1537
10670TIP3    H253426   5.235   5.279   2.631 -0.4834 -2.0328 -2.0415
10671TIP3   OH253427   0.568   5.547  13.307  0.1216  0.4293  0.2954
10671TIP3    H153428   0.599   5.526  13.219  0.6169  0.4930  0.4524
10671TIP3    H253429   0.529   5.634  13.299 -1.0026 -0.0865 -0.1317
10672TIP3   OH253430   3.028   6.657  16.540 -0.2166 -0.1106 -0.4966
10672TIP3    H153431   3.088   6.681  16.470  0.4940  0.1214  0.1824
10672TIP3    H253432   3.069   6.582  16.582 -1.5676 -1.4751 -1.4991
10673TIP3   OH253433   2.786   0.909   4.646  0.2421 -0.2517 -0.2121
10673TIP3    H153434   2.811   0.916   4.554  0.0129  1.1031 -0.1921
10673TIP3    H253435   2.692   0.890   4.644  0.4735 -1.4860 -0.2488
10674TIP3   OH253436   0.535   2.928  13.725 -0.2655 -0.2768  0.2418
10674TIP3    H153437   0.609   2.924  13.786 -0.1149  0.8847  0.1645
10674TIP3    H253438   0.539   2.845  13.678  0.5806 -0.5206  0.7102
10675TIP3   OH253439   1.822   3.443   3.272 -0.5047 -0.0041  0.4044
10675TIP3    H153440   1.796   3.535   3.281 -1.2175  0.0186 -1.4655
10675TIP3    H253441   1.903   3.446   3.220  1.9064 -0.2581  3.7835
10676TIP3   OH253442   3.090   3.232   5.703 -0.1504  1.2599  1.2428
10676TIP3    H153443   3.142   3.174   5.760 -2.1031 -1.1496  0.7705
10676TIP3    H253444   3.012   3.252   5.755 -1.6267 -0.3833 -0.1866
10677TIP3   OH253445   6.516   3.449  11.582 -0.3518  0.8324  0.1688
10677TIP3    H153446   6.465   3.374  11.612 -1.5002  1.9188  1.0086
10677TIP3    H253447   6.606   3.415  11.573 -1.0543 -0.9496 -0.7194
10678TIP3   OH253448   5.409   1.362   1.608 -0.2247 -0.0691 -0.4504
10678TIP3    H153449   5.415   1.430   1.541 -0.8059  0.6349  0.1946
10678TIP3    H253450   5.475   1.387   1.673  0.5816 -0.9384 -0.8996
10679TIP3   OH253451   4.170   5.523   4.433  0.4474 -0.0241 -0.2425
10679TIP3    H153452   4.134   5.611   4.444 -0.3030 -0.3743  0.2038
10679TIP3    H253453   4.181   5.513   4.339 -1.1274 -0.0828 -0.4526
10680TIP3   OH253454   0.002   2.286  17.321 -0.5172  0.1348  0.1552
10680TIP3    H153455  -0.026   2.297  17.230  1.9640 -1.3976 -0.9104
10680TIP3    H253456   0.044   2.369  17.344  1.5593 -0.4408 -1.2512
10681TIP3   OH253457   2.766   1.615  17.210  0.4375  0.2190  0.2340
10681TIP3    H153458   2.741   1.525  17.230 -1.9486  0.9085  0.7289
10681TIP3    H253459   2.765   1.659  17.295  1.1232  0.8286 -0.0642
10682TIP3   OH253460   3.294   2.507  15.031  0.2659  0.4959 -0.1417
10682TIP3    H153461   3.359   2.511  14.960  1.7502  1.3682  1.1920
10682TIP3    H253462   3.287   2.414  15.052 -0.3451  0.1990 -1.5283
10683TIP3   OH253463   4.837   4.980   5.274  0.4425  0.6523 -0.0823
10683TIP3    H153464   4.904   5.006   5.211  1.4442  0.9978  1.0940
10683TIP3    H253465   4.754   4.996   5.229  1.0983 -1.0396 -2.0905
10684TIP3   OH253466   3.271   1.035  11.425  0.0143 -0.3564 -0.9742
10684TIP3    H153467   3.240   0.967  11.366 -1.1356  0.9828 -2.0107
10684TIP3    H253468   3.192   1.064  11.471  0.3594  0.5907 -0.9397
10685TIP3   OH253469   6.120   4.135  12.240 -0.4695  0.4285  0.6383
10685TIP3    H153470   6.041   4.139  12.187 -0.0913  1.9214  0.1366
10685TIP3    H253471   6.186   4.181  12.188  1.5218 -2.9752 -0.1905
10686TIP3   OH253472   5.824   3.734  12.968 -0.1327 -1.0190  0.1655
10686TIP3    H153473   5.812   3.825  12.993 -0.4946 -0.7649 -0.8811
10686TIP3    H253474   5.823   3.685  13.051 -0.7529 -0.1693  0.6695
10687TIP3   OH253475   0.543   3.504  17.152  0.1207 -0.5235 -0.0196
10687TIP3    H153476   0.611   3.563  17.119 -0.3829 -0.1548 -0.4082
10687TIP3    H253477   0.575   3.477  17.238  0.7086 -0.2689 -0.1523
10688TIP3   OH253478   4.597   4.032  15.009  0.6838  0.0850  0.0605
10688TIP3    H153479   4.535   4.043  15.081 -0.5506  1.3953 -1.1242
10688TIP3    H253480   4.565   3.955  14.962  0.1828  0.5086 -0.3057
10689TIP3   OH253481   2.221   2.860   2.898 -0.1109  0.2155 -0.3840
10689TIP3    H153482   2.205   2.888   2.988 -0.0239 -0.6738 -0.0817
10689TIP3    H253483   2.265   2.775   2.907  1.2389  0.7953 -1.2354
10690TIP3   OH253484   6.119   3.008   3.927 -0.3587  0.4286 -0.2758
10690TIP3    H153485   6.079   3.028   3.842 -0.6138  0.9331 -0.0379
10690TIP3    H253486   6.064   2.937   3.962 -0.2666  0.2345 -0.5163
10691TIP3   OH253487   3.664   3.544   1.204 -0.3428 -0.0687 -0.7244
10691TIP3    H153488   3.587   3.598   1.225  0.6311  1.1963 -0.2881
10691TIP3    H253489   3.627   3.459   1.180 -1.7758 -0.6104  2.8032
10692TIP3   OH253490   2.373   5.601   2.552  0.3485  0.0494 -0.2884
10692TIP3    H153491   2.443   5.538   2.533  1.0802  1.0989 -1.1399
10692TIP3    H253492   2.359   5.648   2.470 -0.7826  0.4334  0.1050
10693TIP3   OH253493   4.668   3.951  11.704 -0.1409 -0.0777  0.3761
10693TIP3    H153494   4.605   4.017  11.673  0.8521 -0.0271 -1.6476
10693TIP3    H253495   4.714   3.995  11.776  1.4878  2.1015 -1.8270
10694TIP3   OH253496   4.693   4.739  15.549 -0.8470 -0.2918  0.0584
10694TIP3    H153497   4.758   4.750  15.479  0.1175 -0.8264  0.8374
10694TIP3    H253498   4.742   4.754  15.630 -2.0335  0.7501  0.6232
10695TIP3   OH253499   2.988   6.060   5.058  0.1661 -0.2886 -0.8153
10695TIP3    H153500   3.059   6.123   5.052 -0.5633  0.5450 -0.8766
10695TIP3    H253501   2.987   6.033   5.149 -0.5893  1.0880 -0.3876
10696TIP3   OH253502   4.168   3.806  12.538 -0.0384 -0.0699 -0.6083
10696TIP3    H153503   4.117   3.818  12.457 -0.3410 -1.5073 -0.6613
10696TIP3    H253504   4.188   3.713  12.540  2.8184  0.4479 -0.6939
10697TIP3   OH253505   5.827   6.720  16.543 -0.4159  0.2384 -0.2454
10697TIP3    H153506   5.778   6.641  16.520  0.4325  0.3422 -2.6342
10697TIP3    H253507   5.845   6.763  16.460 -1.6843  3.5295  1.0128
10698TIP3   OH253508   6.458   0.654  14.076  0.0204 -0.0319  0.5313
10698TIP3    H153509   6.526   0.588  14.060  0.1516  0.1770  0.2064
10698TIP3    H253510   6.466   0.674  14.169  3.1705  2.9413 -0.1719
10699TIP3   OH253511   5.884   1.846   1.216 -0.2416 -0.4362 -0.2964
10699TIP3    H153512   5.897   1.933   1.179 -1.2124 -1.0153 -2.1212
10699TIP3    H253513   5.896   1.858   1.310  0.6375  1.4532 -0.5991
10700TIP3   OH253514   0.238   2.298   2.010 -0.1874  0.3030  0.4653
10700TIP3    H153515   0.196   2.316   1.926 -0.2892  0.9786  0.6511
10700TIP3    H253516   0.325   2.265   1.987 -0.1140  0.7429  0.0873
10701TIP3   OH253517   6.216   6.650   2.340 -0.6563  0.0548  0.5735
10701TIP3    H153518   6.253   6.604   2.264  0.2591 -0.8292  1.5313
10701TIP3    H253519   6.124   6.626   2.339 -0.7556  0.4053 -0.5058
10702TIP3   OH253520   0.026   4.131  14.588 -0.1731 -0.1516  0.0436
10702TIP3    H153521  -0.049   4.075  14.609 -0.5385  0.7074  1.1541
10702TIP3    H253522  -0.005   4.219  14.608  0.2654  0.5185 -2.0233
10703TIP3   OH253523   2.568   6.733  11.695  0.3619  0.1864  0.0991
10703TIP3    H153524   2.562   6.687  11.779  1.7284  0.9714  0.6831
10703TIP3    H253525   2.571   6.664  11.629 -3.2675 -0.4402  0.3941
10704TIP3   OH253526   4.885   1.548  15.577 -0.1303  0.0628 -0.6604
10704TIP3    H153527   4.800   1.591  15.585  0.0717  0.3019  0.3856
10704TIP3    H253528   4.910   1.527  15.667  1.2778  0.6978 -0.8814
10705TIP3   OH253529   5.180   6.714   3.400  0.1180 -0.2425  0.2207
10705TIP3    H153530   5.121   6.639   3.408  1.0264 -0.7983  2.2714
10705TIP3    H253531   5.267   6.677   3.419  1.0691  0.6961 -1.9618
10706TIP3   OH253532   2.604   0.403  13.743  0.3402  0.0821 -0.4609
10706TIP3    H153533   2.621   0.497  13.749  3.0070 -0.2623 -1.0038
10706TIP3    H253534   2.652   0.365  13.817 -0.7818 -0.8522 -0.1858
10707TIP3   OH253535   1.154   5.495  14.639  1.0082  0.6582  0.6635
10707TIP3    H153536   1.214   5.422  14.655  0.4400 -0.1780 -0.8172
10707TIP3    H253537   1.100   5.467  14.565 -1.0744  1.4699  1.7660
10708TIP3   OH253538   3.849   3.656  11.712 -1.0130  0.3629 -0.6567
10708TIP3    H153539   3.840   3.734  11.767 -0.3472  1.3384 -1.8659
10708TIP3    H253540   3.760   3.620  11.708 -1.0038  0.0417  1.3283
10709TIP3   OH253541   1.400   1.912  16.629 -0.1334  0.2612 -0.2650
10709TIP3    H153542   1.463   1.845  16.604 -0.7877  0.2724 -2.0650
10709TIP3    H253543   1.329   1.864  16.672  0.2175  0.0293  0.0602
10710TIP3   OH253544   0.302   3.295  12.716  0.8891 -0.3500 -0.0202
10710TIP3    H153545   0.213   3.291  12.681  0.9832  1.8218 -0.6320
10710TIP3    H253546   0.291   3.286  12.811 -0.2683  2.0585  0.1494
10711TIP3   OH253547   2.808   4.857   0.355 -0.2878 -0.1732 -0.4947
10711TIP3    H153548   2.885   4.802   0.338 -0.6924 -0.7245 -0.5745
10711TIP3    H253549   2.806   4.919   0.282 -0.4227 -0.7287 -0.9675
10712TIP3   OH253550   3.795   1.900  10.743  0.7198 -0.3933 -0.0983
10712TIP3    H153551   3.798   1.985  10.698 -0.1744  0.1238  0.7860
10712TIP3    H253552   3.743   1.844  10.684 -0.8520  0.4151  0.4576
10713TIP3   OH253553   4.372   2.370  11.632 -0.0900  0.0621 -0.1334
10713TIP3    H153554   4.369   2.310  11.707  1.5284  0.4727  0.3231
10713TIP3    H253555   4.465   2.394  11.625 -0.6111  2.1544 -0.5801
10714TIP3   OH253556   1.860   4.101   4.486  0.0311 -0.2284 -0.3579
10714TIP3    H153557   1.922   4.058   4.427  2.0006 -1.0261  2.0748
10714TIP3    H253558   1.892   4.191   4.493 -0.0356 -0.2056 -0.3501
10715TIP3   OH253559   2.083   3.616   4.264  0.0306 -0.1208  0.3345
10715TIP3    H153560   2.075   3.634   4.358 -1.7980  1.8150 -0.1158
10715TIP3    H253561   1.993   3.605   4.234  0.6418 -1.6967 -1.0652
10716TIP3   OH253562   2.435   0.151   5.211  0.2504  0.0224  0.1218
10716TIP3    H153563   2.477   0.092   5.274  1.0821 -0.4498 -0.8528
10716TIP3    H253564   2.476   0.236   5.225  0.3944 -0.0692  0.2472
10717TIP3   OH253565   4.400   3.814  11.147  0.3463  0.0967  0.1165
10717TIP3    H153566   4.349   3.894  11.136 -0.0840 -0.0617  0.9035
10717TIP3    H253567   4.409   3.804  11.242  2.3693  0.4522 -0.0014
10718TIP3   OH253568   6.437   3.483  17.309  0.0519  0.0532  0.3195
10718TIP3    H153569   6.428   3.471  17.403  0.4074  1.1876  0.5152
10718TIP3    H253570   6.387   3.411  17.270  0.3645 -0.7496  1.3671
10719TIP3   OH253571   3.440   2.805  15.392 -0.0764  0.2924 -1.1640
10719TIP3    H153572   3.516   2.822  15.336 -1.3194  1.0896 -2.6951
10719TIP3    H253573   3.404   2.892  15.410  0.6834  0.1406  1.5716
10720TIP3   OH253574   5.961   3.184   1.447 -0.1163 -0.2015 -0.2407
10720TIP3    H153575   5.899   3.135   1.393 -0.4784  1.1818 -1.1359
10720TIP3    H253576   5.915   3.199   1.530  0.8693 -3.3414  1.0086
10721TIP3   OH253577   1.397   0.487   3.830 -0.5220 -0.1474  0.6037
10721TIP3    H153578   1.339   0.522   3.898  0.6962  0.3345  1.4207
10721TIP3    H253579   1.442   0.414   3.871 -0.8409 -0.7831 -0.1587
10722TIP3   OH253580   2.275   5.352   0.725  0.1859  0.3206 -0.0919
10722TIP3    H153581   2.312   5.311   0.647 -1.5277  1.8274 -1.8275
10722TIP3    H253582   2.180   5.345   0.712 -0.1571  2.7100  0.6258
10723TIP3   OH253583   0.105   3.245  16.040  0.2313  0.2535 -0.0553
10723TIP3    H153584   0.082   3.321  16.093  1.7421  2.2776 -2.0817
10723TIP3    H253585   0.022   3.213  16.006 -0.3069  2.8874 -1.4828
10724TIP3   OH253586   1.673   2.479   2.872  0.1648  0.0414  0.5925
10724TIP3    H153587   1.767   2.497   2.874  0.1270  0.2395  0.6614
10724TIP3    H253588   1.665   2.394   2.829  0.4332 -0.3738  1.3475
10725TIP3   OH253589   5.502   6.547   3.760  0.5280  0.3808  0.1991
10725TIP3    H153590   5.533   6.464   3.723 -0.1298  0.7854 -1.3225
10725TIP3    H253591   5.579   6.604   3.757  0.1470  0.8921 -2.1047
10726TIP3   OH253592   3.280   5.909   5.236 -0.1674  0.5074  0.7794
10726TIP3    H153593   3.229   5.958   5.300 -0.2402  0.0655  1.0648
10726TIP3    H253594   3.264   5.817   5.258 -1.0727  0.3125 -0.5523
10727TIP3   OH253595   0.338   6.209  14.165 -0.3637 -0.3616 -0.1637
10727TIP3    H153596   0.274   6.277  14.146 -0.0156  0.1371  0.4214
10727TIP3    H253597   0.386   6.197  14.083 -0.9112 -0.4304 -0.4797
10728TIP3   OH253598   3.944   2.830  13.818  0.5488  0.2847 -0.0512
10728TIP3    H153599   4.006   2.901  13.837 -1.0452  1.6853  0.1380
10728TIP3    H253600   3.930   2.787  13.902  0.7844  0.3762  0.0345
10729TIP3   OH253601   5.234   5.440   5.186  0.2016 -0.1686 -0.3063
10729TIP3    H153602   5.163   5.376   5.190 -0.5274  0.6835  0.8113
10729TIP3    H253603   5.309   5.395   5.227  0.5455 -1.3021 -2.0556
10730TIP3   OH253604   6.165   2.852  11.958 -0.1192 -0.4074  0.3682
10730TIP3    H153605   6.236   2.907  11.928 -0.5464  0.5547  1.0525
10730TIP3    H253606   6.177   2.769  11.913  2.0996 -0.6591  1.3278
10731TIP3   OH253607   3.770   5.238  12.108  0.0671 -0.1129  0.0719
10731TIP3    H153608   3.833   5.207  12.173 -0.8014  0.9079  1.4821
10731TIP3    H253609   3.708   5.290  12.159  0.2124  2.0658 -1.8235
10732TIP3   OH253610   1.642   0.585  13.348 -0.2684 -0.2168  0.5133
10732TIP3    H153611   1.695   0.610  13.272  0.8674 -2.4514  0.4932
10732TIP3    H253612   1.704   0.545  13.409 -1.5363 -0.5130  1.6586
10733TIP3   OH253613   3.758   2.850   1.949 -0.1872  0.0089 -0.1190
10733TIP3    H153614   3.853   2.855   1.955 -0.1875  0.6629 -0.6027
10733TIP3    H253615   3.740   2.818   1.861 -0.4223  0.2845 -0.1753
10734TIP3   OH253616   4.727   5.472   4.690  0.2619 -0.0857 -0.7307
10734TIP3    H153617   4.766   5.407   4.748  0.6508  0.0358 -0.8513
10734TIP3    H253618   4.776   5.464   4.608 -0.4667 -0.4505 -1.1392
10735TIP3   OH253619   0.425   5.163  14.389 -0.1168  0.2847  0.2547
10735TIP3    H153620   0.436   5.171  14.294  1.2122 -1.0756  0.2701
10735TIP3    H253621   0.384   5.077  14.401  0.1202  0.2629  0.9342
10736TIP3   OH253622   4.420   1.254   3.725  0.4981 -0.0994  0.1949
10736TIP3    H153623   4.386   1.175   3.768  1.1540  0.0592  1.0293
10736TIP3    H253624   4.342   1.298   3.691  0.0686 -0.8071  0.2428
10737TIP3   OH253625   2.914   3.684   0.818 -0.2971  0.6866 -0.0161
10737TIP3    H153626   2.903   3.737   0.739 -0.1716 -1.2131 -1.3798
10737TIP3    H253627   2.924   3.594   0.785 -0.7106 -0.2300  2.1932
10738TIP3   OH253628   1.473   4.009  14.255 -0.1676 -0.5090 -0.2031
10738TIP3    H153629   1.498   3.987  14.345 -1.1415 -2.3097 -0.3138
10738TIP3    H253630   1.548   3.981  14.202 -0.1016 -0.6250 -0.0509
10739TIP3   OH253631   1.348   6.252  12.376  0.4164  0.0217 -0.2175
10739TIP3    H153632   1.414   6.225  12.441 -1.2935 -1.7383  0.8688
10739TIP3    H253633   1.387   6.231  12.292  2.6892  2.3228  0.1350
10740TIP3   OH253634   0.602   6.006  16.170  0.2334 -0.4988  0.7878
10740TIP3    H153635   0.522   6.036  16.212  0.7017  0.1238  1.2597
10740TIP3    H253636   0.672   6.042  16.225  0.8516 -0.1233 -0.2304
10741TIP3   OH253637   0.846   1.754  12.954  0.5217 -0.4547  0.0054
10741TIP3    H153638   0.823   1.713  13.038 -0.6555 -1.0410 -0.5824
10741TIP3    H253639   0.864   1.681  12.895 -0.8332 -0.1249 -0.8485
10742TIP3   OH253640   5.821   4.551  15.328 -0.2919 -0.2193 -0.3802
10742TIP3    H153641   5.725   4.561  15.325 -0.1014  3.3461  1.4394
10742TIP3    H253642   5.838   4.510  15.413 -0.1481 -1.5161 -0.9986
10743TIP3   OH253643   0.512   1.177  11.078  0.3019 -0.3494  0.0618
10743TIP3    H153644   0.434   1.229  11.096 -0.9718 -2.4089  0.8519
10743TIP3    H253645   0.487   1.121  11.004  1.3127 -0.4841 -0.1963
10744TIP3   OH253646   3.728   3.538  16.821 -0.0444 -0.0119 -0.4966
10744TIP3    H153647   3.682   3.599  16.763 -1.8712  0.2789  1.1538
10744TIP3    H253648   3.668   3.523  16.893  2.3075  0.0536  1.6390
10745TIP3   OH253649   3.428   3.949  13.393  0.3841  0.0234 -0.1735
10745TIP3    H153650   3.356   4.009  13.408 -1.4119 -2.3475  1.4083
10745TIP3    H253651   3.422   3.927  13.300 -0.8579 -0.0479 -0.0871
10746TIP3   OH253652   4.013   3.900  13.352 -0.2476 -0.0005 -0.2648
10746TIP3    H153653   4.084   3.909  13.289  0.4485 -2.1032  0.1500
10746TIP3    H253654   4.038   3.956  13.425  1.4243 -1.2637  0.1978
10747TIP3   OH253655   1.901   3.093   3.620 -0.1473 -0.0523 -0.4223
10747TIP3    H153656   1.847   3.156   3.572  0.0788  0.5844  0.1415
10747TIP3    H253657   1.878   3.008   3.583 -1.4122  0.2276 -0.3270
10748TIP3   OH253658   5.856   2.084  17.065  0.5440 -0.2065 -0.8492
10748TIP3    H153659   5.891   1.999  17.038  1.3848 -0.3750  0.6212
10748TIP3    H253660   5.774   2.063  17.109  1.0017 -0.3471 -0.0283
10749TIP3   OH253661   4.113   3.508  16.744 -0.0001 -0.2382  0.2833
10749TIP3    H153662   4.044   3.450  16.777 -0.2056 -0.4289 -0.4576
10749TIP3    H253663   4.167   3.527  16.821  0.4412 -1.9293  0.4465
10750TIP3   OH253664   3.522   3.739   0.228  0.3564  0.1757  0.4429
10750TIP3    H153665   3.434   3.701   0.230  0.2806  0.1651 -1.4819
10750TIP3    H253666   3.523   3.793   0.149  1.6296  1.3354  1.2077
10751TIP3   OH253667   5.864   6.526   2.633  0.2319  0.0057  0.2712
10751TIP3    H153668   5.932   6.519   2.700 -0.2922 -0.8436  0.7340
10751TIP3    H253669   5.872   6.444   2.583  1.1263  0.9553 -1.2120
10752TIP3   OH253670   6.000   0.118  14.101  0.0142  0.2316  0.9462
10752TIP3    H153671   5.937   0.135  14.031 -1.4587 -0.6181  1.9889
10752TIP3    H253672   6.019   0.205  14.137 -0.4570  0.5201  0.5181
10753TIP3   OH253673   4.575   1.932  13.179 -0.0961  0.0407  0.6163
10753TIP3    H153674   4.651   1.901  13.130 -1.2991 -0.6538 -0.8816
10753TIP3    H253675   4.571   1.874  13.255  0.6817 -0.1241  0.5433
10754TIP3   OH253676   0.468   3.370  15.524 -1.0177 -0.4178  0.1499
10754TIP3    H153677   0.389   3.323  15.551 -0.8583 -1.4249 -1.0251
10754TIP3    H253678   0.438   3.426  15.452 -0.7711 -0.4239  0.0403
10755TIP3   OH253679   2.389   4.730   1.300  0.3436 -0.9952 -0.4454
10755TIP3    H153680   2.317   4.773   1.346  1.0664  1.3106 -1.3201
10755TIP3    H253681   2.381   4.638   1.323 -1.3485 -0.4279  1.5144
10756TIP3   OH253682   3.122   5.271  12.196 -0.3876  0.1176 -0.1932
10756TIP3    H153683   3.182   5.226  12.256 -1.0754  0.4499  0.7752
10756TIP3    H253684   3.176   5.293  12.120  0.8254  0.7255  0.7928
10757TIP3   OH253685   3.788   6.390  16.375 -0.1294 -0.0133 -0.0182
10757TIP3    H153686   3.757   6.338  16.449 -1.1901 -0.4086 -0.7080
10757TIP3    H253687   3.866   6.344  16.343  0.0610 -0.0952  0.5609
10758TIP3   OH253688   6.729   1.921   1.397  0.4975 -0.6642  0.2684
10758TIP3    H153689   6.731   1.880   1.484  0.1583 -0.4586  0.3756
10758TIP3    H253690   6.655   1.981   1.401 -0.8694 -2.1873 -0.8548
10759TIP3   OH253691   1.446   1.719   1.584 -0.0878  0.1955 -0.6192
10759TIP3    H153692   1.487   1.789   1.533  1.4410 -0.0584  0.1895
10759TIP3    H253693   1.515   1.690   1.644 -0.7851 -1.7845 -0.6990
10760TIP3   OH253694   5.890   1.757  16.665  0.1993  0.0730  0.0738
10760TIP3    H153695   5.950   1.706  16.719 -1.1214 -2.7710 -0.9714
10760TIP3    H253696   5.806   1.712  16.673 -0.8209  1.5310 -1.7137
10761TIP3   OH253697   1.873   4.112  14.557 -0.0568  0.0197 -0.7203
10761TIP3    H153698   1.937   4.182  14.573 -1.2094  1.6468 -2.7205
10761TIP3    H253699   1.819   4.110  14.636  1.3238 -0.1414  0.2521
10762TIP3   OH253700   0.553   2.383  12.974 -0.0465  0.3869  0.6650
10762TIP3    H153701   0.563   2.343  12.887 -0.5889  0.0234  0.7668
10762TIP3    H253702   0.459   2.378  12.992  0.1889 -0.5589  1.7564
10763TIP3   OH253703   1.916   0.675  16.473 -0.2613  0.3070 -0.2280
10763TIP3    H153704   1.917   0.619  16.395  0.0131  0.7858 -0.5724
10763TIP3    H253705   2.002   0.715  16.475  0.1983 -0.6815  1.0517
10764TIP3   OH253706   0.765   1.577  16.538 -1.1119  0.0305 -0.1540
10764TIP3    H153707   0.712   1.587  16.459  0.0594 -2.1881 -1.3193
10764TIP3    H253708   0.723   1.505  16.586 -1.2688  0.7352  0.7887
10765TIP3   OH253709   6.037   4.421   2.517 -0.0608  0.5318  0.3779
10765TIP3    H153710   6.052   4.441   2.609  2.3546  0.3467  0.0985
10765TIP3    H253711   6.004   4.331   2.517 -1.6732  1.0946  1.1159
10766TIP3   OH253712   2.151   0.342  11.326 -0.1268 -0.1002  0.0004
10766TIP3    H153713   2.194   0.428  11.332  1.9580 -1.1565  1.8585
10766TIP3    H253714   2.220   0.280  11.348 -2.0497 -2.1447  0.6001
10767TIP3   OH253715   0.036   0.860   3.122 -0.1509 -0.6563 -0.3102
10767TIP3    H153716   0.109   0.805   3.152 -0.4244 -0.8658 -0.0184
10767TIP3    H253717   0.078   0.934   3.079  0.2335 -0.8222 -0.2268
10768TIP3   OH253718   6.177   0.880   0.116  0.6067  0.1794 -0.3232
10768TIP3    H153719   6.186   0.918   0.029  0.3111  0.8149 -0.0816
10768TIP3    H253720   6.267   0.860   0.143  0.7097  0.0898 -0.7248
10769TIP3   OH253721   0.439   2.091  15.702 -0.0947 -0.3111  0.0005
10769TIP3    H153722   0.382   2.102  15.778 -1.1332 -0.4434 -0.7445
10769TIP3    H253723   0.493   2.014  15.724 -1.9494 -1.7681 -0.3179
10770TIP3   OH253724   3.775   3.379   0.367  0.0132 -0.0214  0.5419
10770TIP3    H153725   3.836   3.310   0.390  0.7570  0.9295  1.5305
10770TIP3    H253726   3.707   3.374   0.435  0.0017  0.1305  0.5425
10771TIP3   OH253727   2.473   5.340   1.734  0.0597 -0.0143 -0.9403
10771TIP3    H153728   2.497   5.284   1.660 -1.6083 -2.8236  0.4447
10771TIP3    H253729   2.377   5.338   1.735 -0.0698  2.7292 -0.6198
10772TIP3   OH253730   4.008   2.971   5.671 -0.1314 -0.5216  0.5455
10772TIP3    H153731   4.034   2.905   5.735 -2.7081 -1.3415  0.8578
10772TIP3    H253732   4.013   2.926   5.587 -0.6106 -0.7150  0.6174
10773TIP3   OH253733   6.668   4.644  16.028 -0.1658 -0.7823  0.0145
10773TIP3    H153734   6.606   4.665  16.098  0.0020 -2.5579  0.7423
10773TIP3    H253735   6.753   4.673  16.061 -0.3801  0.5167 -0.4746
10774TIP3   OH253736   0.140   3.973  12.122 -0.5779 -0.2808 -0.2513
10774TIP3    H153737   0.081   3.989  12.196 -0.6615  2.5096 -0.8049
10774TIP3    H253738   0.213   4.033  12.136 -0.0921 -0.4490 -1.9017
10775TIP3   OH253739   6.708   0.082  15.058  0.2551  0.4506  0.5605
10775TIP3    H153740   6.746   0.054  15.141 -0.3256  0.1438  0.7259
10775TIP3    H253741   6.647   0.013  15.035  0.8009  0.2748 -0.3951
10776TIP3   OH253742   3.030   0.584   5.293 -0.4874 -0.8422  0.3079
10776TIP3    H153743   2.974   0.566   5.369  1.6468  1.8129  2.7371
10776TIP3    H253744   3.117   0.556   5.320  0.5028  1.0140 -0.7611
10777TIP3   OH253745   1.231   0.627  12.128 -0.3137 -0.8848 -0.0758
10777TIP3    H153746   1.298   0.560  12.141 -0.4612 -1.1805 -0.8067
10777TIP3    H253747   1.225   0.637  12.033  1.9327  2.4303 -0.0362
10778TIP3   OH253748   4.066   0.239  17.307 -0.1881 -0.3006 -0.2927
10778TIP3    H153749   4.105   0.174  17.366  0.9152  0.1823 -0.4801
10778TIP3    H253750   4.135   0.259  17.244 -1.1479 -0.3595 -1.4031
10779TIP3   OH253751   4.076   4.145  14.757  0.6276  0.4448  0.0810
10779TIP3    H153752   4.104   4.230  14.721 -0.9311  0.8433 -0.2588
10779TIP3    H253753   4.057   4.163  14.849  0.9617  0.3004  0.1794
10780TIP3   OH253754   2.228   3.772   5.088  0.2080 -0.1678  0.5135
10780TIP3    H153755   2.304   3.720   5.111  1.0268 -0.0374 -1.6863
10780TIP3    H253756   2.160   3.708   5.066  0.8628 -0.3504 -1.0869
10781TIP3   OH253757   0.891   4.980  16.894  0.7374 -0.2364  0.2718
10781TIP3    H153758   0.835   5.011  16.965  0.6431  1.7159 -0.5888
10781TIP3    H253759   0.830   4.941  16.831  0.5903 -0.0609  0.3045
10782TIP3   OH253760   1.154   4.622  14.875  0.1225  0.3385 -0.4457
10782TIP3    H153761   1.146   4.581  14.789  1.4938 -1.6416  0.3074
10782TIP3    H253762   1.202   4.703  14.858  3.7656 -1.7373 -1.2337
10783TIP3   OH253763   1.902   0.243  13.621 -0.1739  0.1361 -0.2076
10783TIP3    H153764   1.900   0.335  13.597 -0.4614 -0.0894 -1.0926
10783TIP3    H253765   1.812   0.222  13.646  0.0332  0.2591  0.6751
10784TIP3   OH253766   6.141   4.140   5.338 -0.3724 -0.4392 -1.0272
10784TIP3    H153767   6.109   4.068   5.391 -0.7976  0.1429 -0.4783
10784TIP3    H253768   6.067   4.201   5.332  0.5527  0.8668  0.1369
10785TIP3   OH253769   2.487   0.627   3.724 -0.4980 -0.1452 -0.1937
10785TIP3    H153770   2.399   0.640   3.688  0.2478  0.1967 -1.9765
10785TIP3    H253771   2.545   0.672   3.663  0.9592 -0.6231  0.7920
10786TIP3   OH253772   1.798   0.789  14.302 -0.5743  0.8184  0.2970
10786TIP3    H153773   1.816   0.839  14.382 -0.7376  0.3348  0.6424
10786TIP3    H253774   1.850   0.709  14.311 -0.1649  1.0059 -0.3384
10787TIP3   OH253775   5.955   5.965   0.076 -0.2990 -0.4041  0.5578
10787TIP3    H153776   5.891   5.946   0.007  0.4403  2.7188 -1.2076
10787TIP3    H253777   5.923   6.045   0.117  1.7543  0.5246  0.4836
10788TIP3   OH253778   4.288   4.783  11.587  0.2973  0.5005 -0.0465
10788TIP3    H153779   4.348   4.847  11.549  0.1466  1.2255  0.8887
10788TIP3    H253780   4.281   4.714  11.521  1.4276  0.8503 -0.5555
10789TIP3   OH253781   5.485   2.028  16.067 -0.5053  0.0364 -0.1338
10789TIP3    H153782   5.563   1.991  16.025  0.4471 -0.1763  1.7286
10789TIP3    H253783   5.498   2.123  16.061 -0.6020  0.0210 -0.6791
10790TIP3   OH253784   1.059   2.861  15.817 -0.2260  0.5103  0.4110
10790TIP3    H153785   1.050   2.902  15.731 -1.4524 -1.5960 -0.5407
10790TIP3    H253786   1.002   2.784  15.813  1.0050 -0.6049  2.5078
10791TIP3   OH253787   4.462   6.436  14.710 -0.0343 -0.5925 -0.2605
10791TIP3    H153788   4.447   6.359  14.766 -1.3493  0.0584  0.3229
10791TIP3    H253789   4.374   6.471  14.693  0.5982  1.8251  0.9881
10792TIP3   OH253790   1.980   2.060   2.838 -0.2577 -0.0266  0.1994
10792TIP3    H153791   1.973   2.114   2.760  0.3826  0.6982  0.6276
10792TIP3    H253792   2.073   2.041   2.847 -0.1176  1.1656  1.5976
10793TIP3   OH253793   2.920   5.769   3.867 -0.4000  0.1253  0.3318
10793TIP3    H153794   2.955   5.680   3.860  1.7728  0.9877 -0.5579
10793TIP3    H253795   2.936   5.795   3.957  2.7604  0.9977 -0.3637
10794TIP3   OH253796   5.783   4.335  17.161  0.3107  0.4143  0.6119
10794TIP3    H153797   5.855   4.371  17.212  0.1782  1.0143  0.3776
10794TIP3    H253798   5.709   4.331  17.222  0.0800  1.3731  0.4129
10795TIP3   OH253799   4.252   5.705  14.298 -0.0164 -0.1094 -0.1551
10795TIP3    H153800   4.247   5.678  14.389  0.5351  1.9982  0.5649
10795TIP3    H253801   4.167   5.745  14.279 -0.1956 -0.6967 -0.6455
10796TIP3   OH253802   2.994   1.889   4.051 -0.1835 -0.0285  0.1541
10796TIP3    H153803   2.908   1.918   4.080  0.2002  0.7288  0.5802
10796TIP3    H253804   3.015   1.815   4.107  1.0779  2.1611  2.7899
10797TIP3   OH253805   4.911   6.016  15.470 -0.1652  0.0448  0.2332
10797TIP3    H153806   4.884   6.075  15.540  1.3199  0.6770  0.3103
10797TIP3    H253807   4.877   5.930  15.496 -2.3836  0.8290  0.1010
10798TIP3   OH253808   6.427   2.135   2.551 -0.0331 -0.2557 -0.0790
10798TIP3    H153809   6.492   2.067   2.535  1.1987  0.5386  1.3032
10798TIP3    H253810   6.345   2.098   2.519  0.7111 -2.1287  0.0600
10799TIP3   OH253811   3.749   2.911  15.432 -0.5053  0.4939 -0.4238
10799TIP3    H153812   3.820   2.951  15.480 -1.9785  1.9788  0.6275
10799TIP3    H253813   3.762   2.939  15.341  1.2470 -0.8049 -0.6159
10800TIP3   OH253814   3.036   5.643   5.007  0.0908  0.6560  0.2125
10800TIP3    H153815   3.026   5.562   4.958 -0.7581  0.3680  0.8561
10800TIP3    H253816   3.096   5.621   5.078 -0.1998  0.5691  0.4322
10801TIP3   OH253817   6.637   5.176  12.054  0.2818 -0.6043 -0.2116
10801TIP3    H153818   6.642   5.268  12.081 -1.2941 -0.7395  0.7134
10801TIP3    H253819   6.565   5.175  11.991 -0.1364 -1.2806  0.2643
10802TIP3   OH253820   1.486   4.906   1.506 -0.6237 -0.1509 -0.8313
10802TIP3    H153821   1.562   4.856   1.478 -0.6440 -0.1189 -0.9446
10802TIP3    H253822   1.439   4.848   1.566 -1.1836 -0.6618 -1.7351
10803TIP3   OH253823   4.280   0.060   0.064  0.1613  0.8789  0.2285
10803TIP3    H153824   4.227  -0.013   0.095 -1.8001  2.3579  0.6244
10803TIP3    H253825   4.310   0.033  -0.023 -1.4000 -0.0093 -0.0769
10804TIP3   OH253826   3.057   1.158   2.673  0.3672  0.3247 -0.1069
10804TIP3    H153827   3.031   1.149   2.765 -0.4399  0.5493 -0.3104
10804TIP3    H253828   3.133   1.216   2.676  0.2367  0.4757  0.4085
10805TIP3   OH253829   5.742   3.094  15.216 -0.3371  0.0544  0.4000
10805TIP3    H153830   5.833   3.124  15.210 -0.4186  0.0639 -2.2456
10805TIP3    H253831   5.698   3.159  15.271  1.2531 -0.0236  1.8313
10806TIP3   OH253832   3.408   5.776   2.790 -0.2937 -0.4258 -0.7243
10806TIP3    H153833   3.433   5.753   2.700 -1.4514  2.2762 -1.8420
10806TIP3    H253834   3.357   5.856   2.781 -1.2408 -0.5696  2.3059
10807TIP3   OH253835   2.349   4.970  16.589 -0.1577  0.4897  0.5984
10807TIP3    H153836   2.435   4.965  16.631  0.2789 -1.4233 -0.3836
10807TIP3    H253837   2.299   4.898  16.629  0.0586 -0.9565 -1.5700
10808TIP3   OH253838   3.418   1.092  14.691  0.0080 -0.1309  0.2521
10808TIP3    H153839   3.343   1.130  14.645  0.3439 -0.3199 -0.4562
10808TIP3    H253840   3.380   1.054  14.770 -0.5355  0.4221  0.2670
10809TIP3   OH253841   1.363   3.395   5.624  0.0315 -0.4262 -0.4087
10809TIP3    H153842   1.415   3.315   5.612 -0.8677 -0.9550 -0.8042
10809TIP3    H253843   1.276   3.372   5.594 -0.2299  0.7265 -0.5543
10810TIP3   OH253844   0.213   6.532  12.486 -0.5738  0.0065  0.4999
10810TIP3    H153845   0.122   6.509  12.506 -0.3226 -1.2422  0.2991
10810TIP3    H253846   0.236   6.599  12.550 -0.8815 -1.3860  2.1230
10811TIP3   OH253847   4.990   0.322  16.220  0.4526 -0.4863 -0.2824
10811TIP3    H153848   4.971   0.232  16.247  4.2170 -1.4933 -0.4710
10811TIP3    H253849   5.057   0.352  16.281  2.1196  0.7170 -2.5579
10812TIP3   OH253850   2.285   3.189   2.863 -0.4511 -0.2940 -0.7665
10812TIP3    H153851   2.204   3.218   2.905 -1.0548  0.1168 -2.1574
10812TIP3    H253852   2.329   3.136   2.929 -2.1944 -1.0954 -0.1998
10813TIP3   OH253853   6.256   2.659  13.483  0.2974  0.1291  0.4051
10813TIP3    H153854   6.301   2.575  13.483 -1.9828 -1.2259  2.1073
10813TIP3    H253855   6.261   2.689  13.573 -0.0688  1.1691  0.0950
10814TIP3   OH253856   3.697   3.391   1.457 -0.4187  0.2137  0.8242
10814TIP3    H153857   3.771   3.437   1.497  0.6008  0.9465 -1.7114
10814TIP3    H253858   3.622   3.448   1.475  0.1769  0.9939  0.8921
10815TIP3   OH253859   4.807   1.883  13.048  0.0796 -0.1041  0.3379
10815TIP3    H153860   4.876   1.939  13.084 -1.5305  3.3419 -1.5143
10815TIP3    H253861   4.842   1.852  12.965  0.4380 -0.7151  0.7108
10816TIP3   OH253862   1.327   6.459  14.477  0.0002  0.2889 -0.1064
10816TIP3    H153863   1.254   6.406  14.509 -0.5880  0.3821 -1.2250
10816TIP3    H253864   1.340   6.525  14.544  0.6316 -1.1406  1.2337
10817TIP3   OH253865   2.748   5.784   4.246  0.0571  0.4337  0.1732
10817TIP3    H153866   2.822   5.791   4.185 -0.0015 -1.1524 -0.1065
10817TIP3    H253867   2.704   5.703   4.222 -1.5321  1.1265  0.6377
10818TIP3   OH253868   3.245   1.227  12.077 -0.2346 -0.5451  0.0581
10818TIP3    H153869   3.163   1.277  12.072 -0.1413 -0.3258  0.6253
10818TIP3    H253870   3.314   1.292  12.060 -0.1502 -0.6162  0.1265
10819TIP3   OH253871   4.215   0.829   4.234 -0.1767 -0.2284  0.0912
10819TIP3    H153872   4.233   0.859   4.145 -0.2530 -1.6864 -0.4471
10819TIP3    H253873   4.128   0.790   4.229 -0.1136 -0.4708  0.7606
10820TIP3   OH253874   2.087   2.392  12.235 -0.5842  0.4177 -0.6523
10820TIP3    H153875   2.160   2.431  12.282 -1.1401 -0.5598  1.1338
10820TIP3    H253876   2.102   2.298  12.243 -0.2511  0.1948 -3.2404
10821TIP3   OH253877   4.957   2.452  14.004 -0.3666  0.1523 -0.1775
10821TIP3    H153878   4.961   2.507  13.927 -0.9849 -0.7231 -0.8543
10821TIP3    H253879   4.909   2.503  14.069 -0.3286  0.6721 -0.5571
10822TIP3   OH253880   5.449   5.245   0.269  0.1716  0.0634 -0.4363
10822TIP3    H153881   5.431   5.224   0.361 -1.8625  0.9408 -0.5721
10822TIP3    H253882   5.522   5.307   0.273 -0.2748  0.5571  0.6616
10823TIP3   OH253883   2.335   4.543  10.509  0.3956 -0.5604 -0.2176
10823TIP3    H153884   2.310   4.526  10.599 -1.7274 -0.4645 -0.7283
10823TIP3    H253885   2.275   4.489  10.457  0.8226  0.2432 -1.5963
10824TIP3   OH253886   6.013   2.590  12.130  0.4862  0.2378 -0.3722
10824TIP3    H153887   5.995   2.526  12.061  1.5204  1.9779 -2.3700
10824TIP3    H253888   6.108   2.600  12.128  0.4187  1.1826  0.5356
10825TIP3   OH253889   1.011   1.535  13.203 -0.3395 -0.0976  0.3673
10825TIP3    H153890   1.061   1.549  13.283 -2.7201  0.5325  1.8521
10825TIP3    H253891   0.929   1.583  13.217 -1.4516 -1.1773 -1.8469
10826TIP3   OH253892   6.435   0.588  12.228 -0.2468  0.9188 -0.1293
10826TIP3    H153893   6.497   0.587  12.154  1.0378 -1.0682  0.8763
10826TIP3    H253894   6.490   0.574  12.305 -1.9536 -1.2612  0.7920
10827TIP3   OH253895   2.829   1.644   1.609  0.2045 -0.2054  0.2838
10827TIP3    H153896   2.899   1.594   1.567 -1.9643 -1.0371 -2.6817
10827TIP3    H253897   2.869   1.729   1.629  2.2637 -0.9197 -0.5464
10828TIP3   OH253898   0.813   2.310  11.471 -0.1803  0.3482 -0.1379
10828TIP3    H153899   0.845   2.254  11.400 -1.6423  0.7960 -1.1917
10828TIP3    H253900   0.763   2.251  11.527  1.2652 -0.0792  0.7835
10829TIP3   OH253901   4.012   6.430  12.901 -0.6432  0.2664 -0.1687
10829TIP3    H153902   4.102   6.411  12.927 -0.6226 -1.4109 -1.3146
10829TIP3    H253903   3.970   6.461  12.981  0.8849  0.9217  0.4278
10830TIP3   OH253904   2.085   4.700  17.244 -0.2791  0.6144 -0.2304
10830TIP3    H153905   2.156   4.733  17.300  0.3236 -0.4523 -0.3264
10830TIP3    H253906   2.130   4.642  17.182 -1.2122  0.1148 -0.4480
10831TIP3   OH253907   4.469   4.691   3.921 -0.1718 -0.4073  0.4266
10831TIP3    H153908   4.490   4.730   4.006  1.0688 -1.4782  0.6515
10831TIP3    H253909   4.380   4.659   3.930 -0.9305  1.5946  0.4967
10832TIP3   OH253910   1.133   3.917  12.579  0.2301 -0.4410  0.3283
10832TIP3    H153911   1.105   3.926  12.670 -0.7541 -0.1292  0.0028
10832TIP3    H253912   1.058   3.876  12.535  0.5758 -0.2926 -0.4050
10833TIP3   OH253913   6.243   5.286  14.031 -0.4531  0.1837 -0.0730
10833TIP3    H153914   6.334   5.299  14.056  0.5165 -1.2604 -2.5368
10833TIP3    H253915   6.193   5.321  14.105  2.0135  2.8581  0.5165
10834TIP3   OH253916   6.304   4.960   4.343 -0.1677 -0.2780 -0.1268
10834TIP3    H153917   6.386   4.929   4.303 -0.3025 -0.4776 -0.2482
10834TIP3    H253918   6.313   4.936   4.435 -0.7871 -1.7834 -0.4306
10835TIP3   OH253919   5.988   5.523  11.391 -0.0244 -0.0433 -0.1608
10835TIP3    H153920   5.951   5.435  11.393 -0.0116 -0.0855 -1.1941
10835TIP3    H253921   5.922   5.578  11.435 -0.8307 -0.2958 -1.0137
10836TIP3   OH253922   3.632   2.135   1.394  0.3088 -0.2872 -0.1858
10836TIP3    H153923   3.638   2.142   1.490 -0.0546 -0.8259 -0.1214
10836TIP3    H253924   3.676   2.052   1.374  3.2366  1.2641 -0.7918
10837TIP3   OH253925   2.396   2.968   5.329  0.6714 -0.0382  0.1112
10837TIP3    H153926   2.480   2.951   5.373  0.3302 -0.7439  0.5142
10837TIP3    H253927   2.352   2.883   5.330  0.6050 -0.0601 -1.5097
10838TIP3   OH253928   1.200   5.571   6.218 -0.0291  0.3333 -0.1778
10838TIP3    H153929   1.235   5.634   6.281  0.2519 -0.4638  0.4837
10838TIP3    H253930   1.135   5.521   6.267  1.3686 -1.4079 -0.0060
10839TIP3   OH253931   6.484   3.194  16.604  0.1831  0.1408  0.1792
10839TIP3    H153932   6.568   3.178  16.647 -0.5254 -1.3174  1.0941
10839TIP3    H253933   6.500   3.176  16.512  0.4985 -1.7713  0.5769
10840TIP3   OH253934   2.883   0.321  16.486  0.3104 -0.6542 -0.1460
10840TIP3    H153935   2.861   0.407  16.450 -1.2816 -0.6270  0.8047
10840TIP3    H253936   2.839   0.259  16.427 -2.2993 -0.6097  1.6055
10841TIP3   OH253937   2.711   1.122  14.403 -0.0995 -0.0769  0.6072
10841TIP3    H153938   2.750   1.189  14.348 -0.7633 -1.0556 -1.1289
10841TIP3    H253939   2.776   1.053  14.407  0.3916  0.4348  2.0035
10842TIP3   OH253940   1.907   0.223  11.277 -0.1749 -0.5028 -0.6513
10842TIP3    H153941   1.901   0.173  11.195  2.1434 -1.1355 -0.4974
10842TIP3    H253942   1.993   0.263  11.274 -1.4621  2.5279 -0.1566
10843TIP3   OH253943   0.381   3.149  15.187 -0.0705 -0.2114  0.5386
10843TIP3    H153944   0.346   3.064  15.215  0.1924 -0.7923 -0.8428
10843TIP3    H253945   0.320   3.179  15.119 -0.8231  1.2855  1.8043
10844TIP3   OH253946   5.334   1.977   4.244  0.1120 -0.2188  0.0708
10844TIP3    H153947   5.303   2.063   4.217  0.8676 -0.0071 -0.1445
10844TIP3    H253948   5.323   1.921   4.167  0.1960 -0.1629  0.0185
10845TIP3   OH253949   0.899   3.566  14.778 -0.3453  0.3180 -0.3784
10845TIP3    H153950   0.929   3.639  14.724 -1.8096  1.6612  0.5326
10845TIP3    H253951   0.804   3.572  14.776 -0.4645 -0.1509  1.5384
10846TIP3   OH253952   5.501   1.607  15.003 -0.1883 -0.5968  0.0045
10846TIP3    H153953   5.595   1.597  15.014  0.1109  1.1658 -0.6289
10846TIP3    H253954   5.469   1.636  15.088 -0.2146 -1.4547  0.2933
10847TIP3   OH253955   5.585   2.440  16.918 -0.8553  0.6402  0.6363
10847TIP3    H153956   5.563   2.351  16.944  0.6182 -0.0527 -0.3278
10847TIP3    H253957   5.631   2.477  16.993  1.7407 -0.7073 -0.1500
10848TIP3   OH253958   1.282   3.217  13.710 -0.0447  0.5439  0.3413
10848TIP3    H153959   1.349   3.263  13.660 -0.2454  2.1248  1.4638
10848TIP3    H253960   1.267   3.136  13.660  2.6685  0.1049  0.0363
10849TIP3   OH253961   3.022   1.074   4.166 -0.7392  0.5170 -0.3649
10849TIP3    H153962   3.085   1.002   4.163 -0.2134  0.9226  0.6162
10849TIP3    H253963   3.066   1.146   4.119 -0.7680  0.5802 -0.2942
10850TIP3   OH253964   3.504   3.603  10.538  0.2822 -0.3403 -0.6586
10850TIP3    H153965   3.600   3.597  10.539  0.2672 -0.7224  0.7990
10850TIP3    H253966   3.475   3.524  10.583 -0.5772  1.3602  1.9636
10851TIP3   OH253967   0.395   0.195  14.420  1.4895  0.1963  0.1662
10851TIP3    H153968   0.479   0.205  14.376  2.0884  0.7205  1.3858
10851TIP3    H253969   0.358   0.283  14.421  1.7590  0.3076  1.2161
10852TIP3   OH253970   1.949   4.441   1.338 -0.1415 -0.4772  0.1394
10852TIP3    H153971   2.010   4.511   1.363  0.6447 -1.3193  0.6156
10852TIP3    H253972   2.005   4.372   1.302 -0.8584 -1.1023  0.1990
10853TIP3   OH253973   4.083   4.221   5.536  0.6686  0.6311 -0.1465
10853TIP3    H153974   4.146   4.230   5.608  0.6168  1.0889 -0.1534
10853TIP3    H253975   4.062   4.128   5.534  2.1348  0.2865 -0.8177
10854TIP3   OH253976   5.540   5.527  16.431  0.5453  0.3832 -0.0730
10854TIP3    H153977   5.526   5.451  16.488 -1.4759 -0.0730 -1.1000
10854TIP3    H253978   5.458   5.575  16.435  1.2266  1.6580 -0.7307
10855TIP3   OH253979   4.655   5.549   2.216  0.3074  0.4261 -0.1632
10855TIP3    H153980   4.698   5.538   2.131  0.3522 -0.0315 -0.0849
10855TIP3    H253981   4.563   5.569   2.194  0.1459 -0.4409 -0.3210
10856TIP3   OH253982   6.112   3.575  11.502 -0.7210  0.0517 -0.4204
10856TIP3    H153983   6.033   3.543  11.546 -0.1129 -0.1215  0.5851
10856TIP3    H253984   6.108   3.670  11.511 -0.5105  0.0102  0.2098
10857TIP3   OH253985   4.375   0.558  12.280 -0.9101  0.2345 -0.3082
10857TIP3    H153986   4.352   0.629  12.340  0.5352  0.4622  0.0040
10857TIP3    H253987   4.469   0.546  12.291 -1.0433 -1.4150 -0.7117
10858TIP3   OH253988   0.936   0.364   4.272 -0.4291 -0.5237  0.0475
10858TIP3    H153989   0.965   0.297   4.210 -3.7652 -0.9158 -1.2966
10858TIP3    H253990   0.944   0.321   4.358  1.9147 -0.8590 -0.2654
10859TIP3   OH253991   3.344   6.469   3.193  0.4013 -0.3811 -0.0372
10859TIP3    H153992   3.408   6.443   3.260  0.6520 -2.2750 -0.9520
10859TIP3    H253993   3.365   6.560   3.174  0.7116  0.0323  1.9954
10860TIP3   OH253994   0.466   3.143  11.290 -0.5084  0.1922 -0.5525
10860TIP3    H153995   0.547   3.181  11.324 -2.2618  1.6625  2.3177
10860TIP3    H253996   0.465   3.167  11.197  2.1652  0.3421 -0.6152
10861TIP3   OH253997   5.031   4.003  13.120  0.0619  0.2538  0.2092
10861TIP3    H153998   5.034   3.912  13.090  2.7736  0.7589 -1.4366
10861TIP3    H253999   5.029   4.055  13.039  0.9026  1.6541  1.0376
10862TIP3   OH254000   1.178   3.468   0.545  0.0259 -0.0345 -1.1840
10862TIP3    H154001   1.205   3.394   0.491 -2.1401 -1.0634 -0.9648
10862TIP3    H254002   1.092   3.493   0.511  0.0193  1.3720 -0.2389
10863TIP3   OH254003   3.840   4.406  16.269  0.2922 -0.2962 -0.3172
10863TIP3    H154004   3.873   4.489  16.303 -0.7098  0.1398 -0.3587
10863TIP3    H254005   3.745   4.418  16.267  0.2847 -0.0794 -3.7404
10864TIP3   OH254006   1.522   1.413  15.754  0.2851 -0.0909 -0.4528
10864TIP3    H154007   1.601   1.360  15.766  0.7689  0.7710  0.2268
10864TIP3    H254008   1.453   1.348  15.737  1.1280 -0.8511 -1.0800
10865TIP3   OH254009   3.475   1.336   2.304 -0.1690 -0.1680 -0.2646
10865TIP3    H154010   3.518   1.267   2.355  0.7390 -0.1112 -0.9287
10865TIP3    H254011   3.453   1.294   2.220 -0.9195 -0.0385 -0.1445
10866TIP3   OH254012   1.557   0.847  13.732  0.4274 -0.3382 -0.0916
10866TIP3    H154013   1.533   0.780  13.795  0.7672  0.2830  0.7179
10866TIP3    H254014   1.652   0.842  13.726  0.3685 -0.6506 -0.8552
10867TIP3   OH254015   4.327   0.068  14.083 -0.5450  0.1552 -0.0806
10867TIP3    H154016   4.374   0.001  14.134 -0.8015  1.1106  1.4786
10867TIP3    H254017   4.289   0.019  14.010  2.4673 -0.7581 -1.2370
10868TIP3   OH254018   6.151   2.882  14.516  0.1432 -0.3654  0.2520
10868TIP3    H154019   6.135   2.807  14.572  0.4175 -1.7959 -1.4715
10868TIP3    H254020   6.076   2.940  14.530  0.8490  0.0105  3.0178
10869TIP3   OH254021   6.619   3.962  12.687  0.2269 -0.5881 -0.4850
10869TIP3    H154022   6.676   3.910  12.745 -0.3426 -1.0429 -0.3267
10869TIP3    H254023   6.570   3.896  12.637 -0.8100 -0.2072  0.0097
10870TIP3   OH254024   2.896   3.650   4.846 -0.0948 -0.4599  0.2982
10870TIP3    H154025   2.954   3.605   4.785 -0.6166 -1.0312  0.2126
10870TIP3    H254026   2.946   3.658   4.927 -0.6174 -2.8553  0.9160
10871TIP3   OH254027   3.959   2.132  12.274  0.1202 -0.1297 -0.4156
10871TIP3    H154028   4.031   2.112  12.334  0.5696 -1.3809 -1.3173
10871TIP3    H254029   3.998   2.191  12.209 -0.5321  1.7561  0.8034
10872TIP3   OH254030   0.606   5.376   2.837  0.1923 -0.5221 -0.0912
10872TIP3    H154031   0.529   5.399   2.889  0.0750  0.0863 -0.5218
10872TIP3    H254032   0.614   5.281   2.847 -1.0597 -0.7148 -0.6227
10873TIP3   OH254033   2.625   5.782  14.265 -0.2492  0.0664  0.2700
10873TIP3    H154034   2.690   5.850  14.286 -0.3784  0.3294 -0.1690
10873TIP3    H254035   2.677   5.703  14.252  0.4052  0.8530 -3.0793
10874TIP3   OH254036   6.134   0.910  13.636  0.3666  0.1931  0.4991
10874TIP3    H154037   6.098   0.922  13.724 -0.5697 -2.2197  0.5394
10874TIP3    H254038   6.100   0.824  13.608  0.5608  0.9135 -2.2621
10875TIP3   OH254039   3.280   2.426   3.424  0.0555 -0.4365 -0.1116
10875TIP3    H154040   3.232   2.498   3.383  0.5560  0.5746  0.9947
10875TIP3    H254041   3.350   2.404   3.363  0.7650  1.0047  0.1412
10876TIP3   OH254042   0.459   6.439   2.791 -0.1374 -0.8289 -0.0701
10876TIP3    H154043   0.412   6.517   2.763 -0.6186 -0.7325  0.9755
10876TIP3    H254044   0.542   6.443   2.743  0.3355  0.9425  0.7735
10877TIP3   OH254045   0.828   2.841   5.325  0.1181  0.3028 -0.0912
10877TIP3    H154046   0.921   2.859   5.333  0.9627 -2.9915 -1.2866
10877TIP3    H254047   0.802   2.807   5.411  0.1218  0.6791  0.0624
10878TIP3   OH254048   6.262   0.517  12.428 -0.0690 -0.0318  0.1884
10878TIP3    H154049   6.307   0.531  12.345 -0.8121  0.0538 -0.2140
10878TIP3    H254050   6.193   0.454  12.408 -0.4620  0.2341  0.6628
10879TIP3   OH254051   2.011   1.196   5.595  0.1672 -0.2562  0.2473
10879TIP3    H154052   1.968   1.140   5.661  0.2449 -0.2911  0.2680
10879TIP3    H254053   2.103   1.172   5.600  0.0569 -0.9119 -0.4990
10880TIP3   OH254054   4.864   6.455  17.278  0.0641 -0.5030 -0.2747
10880TIP3    H154055   4.933   6.414  17.330  0.5193 -0.6253 -0.9644
10880TIP3    H254056   4.905   6.475  17.194 -0.2997  0.8284 -0.1755
10881TIP3   OH254057   3.004   4.896  12.574  0.0010  0.8268  0.0172
10881TIP3    H154058   2.980   4.833  12.506  0.1903 -0.1076  0.7797
10881TIP3    H254059   2.943   4.969  12.562  0.7742  1.2014 -1.8442
10882TIP3   OH254060   0.582   2.008   2.750 -0.4979 -0.3659  0.1082
10882TIP3    H154061   0.645   2.023   2.820  0.8644 -0.0716 -1.1541
10882TIP3    H254062   0.549   2.096   2.729  0.7402 -0.1718 -1.1027
10883TIP3   OH254063   5.050   4.796   2.966  0.5794  0.1613 -1.0203
10883TIP3    H154064   4.980   4.823   3.025  1.9164  0.6364  0.4115
10883TIP3    H254065   5.006   4.775   2.884 -1.2484  0.2019 -0.0819
10884TIP3   OH254066   4.605   5.659   1.774 -0.1556 -0.2129  0.2822
10884TIP3    H154067   4.635   5.582   1.821 -0.4032 -1.0693 -0.9213
10884TIP3    H254068   4.582   5.627   1.687 -1.8797  0.9091  0.2728
10885TIP3   OH254069   2.221   0.127   1.524 -0.2660 -0.2699  0.4039
10885TIP3    H154070   2.253   0.078   1.449  0.1847  0.4980  0.0793
10885TIP3    H254071   2.196   0.212   1.487 -0.3469 -0.0019  1.0698
10886TIP3   OH254072   5.896   0.168  16.358 -0.6517  0.8936 -0.4246
10886TIP3    H154073   5.857   0.148  16.272 -0.0597 -0.6171 -0.3757
10886TIP3    H254074   5.892   0.263  16.364 -1.8493  0.9546 -1.5863
10887TIP3   OH254075   3.027   3.773  10.721 -0.2962 -0.1767  0.1963
10887TIP3    H154076   3.007   3.798  10.631 -2.6435 -2.8453 -0.1786
10887TIP3    H254077   3.063   3.685  10.714  0.7181  0.0657  1.8116
10888TIP3   OH254078   5.232   2.923   0.815  0.1242 -0.1339 -0.2139
10888TIP3    H154079   5.172   2.937   0.889 -0.5915 -0.1329 -0.7826
10888TIP3    H254080   5.197   2.978   0.745  1.0653  0.2150 -0.4129
10889TIP3   OH254081   2.981   0.651   4.412 -0.1513  0.1504  0.2077
10889TIP3    H154082   3.025   0.668   4.495  3.4737 -1.0712 -1.2847
10889TIP3    H254083   2.994   0.731   4.361  0.6449 -0.3204 -0.3430
10890TIP3   OH254084   2.752   2.178  16.690  0.1508  0.2045 -0.0254
10890TIP3    H154085   2.789   2.090  16.703  0.4551  0.6365  2.5583
10890TIP3    H254086   2.764   2.222  16.775 -1.7184  2.1118 -0.6677
10891TIP3   OH254087   3.584   6.632  14.989 -0.4028 -0.0381  0.1583
10891TIP3    H154088   3.498   6.649  15.025  0.2307  1.4878  1.0219
10891TIP3    H254089   3.645   6.650  15.061  0.9568  3.5618 -1.6401
10892TIP3   OH254090   0.514   1.851  15.782  0.0089 -0.1427 -0.1946
10892TIP3    H154091   0.582   1.788  15.805 -0.3274 -0.4439 -0.0123
10892TIP3    H254092   0.445   1.836  15.846 -0.3430 -0.0282 -0.5434
10893TIP3   OH254093   5.226   5.264  16.092  0.0917 -0.4898  0.9120
10893TIP3    H154094   5.303   5.226  16.050 -0.1136 -0.8738  0.8731
10893TIP3    H254095   5.212   5.209  16.169 -0.8547 -1.1720  0.2669
10894TIP3   OH254096   4.110   0.716   4.561  0.4619 -0.1758  0.2813
10894TIP3    H154097   4.031   0.757   4.525  0.6884  0.1772  0.1760
10894TIP3    H254098   4.150   0.673   4.487  0.8619  0.4442  0.1288
10895TIP3   OH254099   0.854   0.035   2.121 -0.1165  0.0025 -0.3109
10895TIP3    H154100   0.913   0.074   2.056 -0.5142  0.2385 -0.5298
10895TIP3    H254101   0.794   0.105   2.144 -0.0738 -0.1290  0.1972
10896TIP3   OH254102   1.994   4.807   5.001  0.1116  0.0853 -0.1766
10896TIP3    H154103   2.046   4.771   4.929  1.2548 -1.8570  1.5121
10896TIP3    H254104   2.059   4.827   5.069 -0.9158  2.0743  0.2757
10897TIP3   OH254105   5.014   2.476  16.194 -0.2683 -0.2176  0.5282
10897TIP3    H154106   5.009   2.398  16.250 -0.6859 -0.0909  0.6736
10897TIP3    H254107   5.097   2.517  16.218  0.7168 -1.4509 -0.6742
10898TIP3   OH254108   6.135   6.649   4.641 -0.2086  0.1958  0.2261
10898TIP3    H154109   6.228   6.626   4.644  0.4980  2.8069  0.8254
10898TIP3    H254110   6.106   6.620   4.555  1.7188  1.1849 -0.8254
10899TIP3   OH254111   3.959   0.081   5.096  0.0592 -0.1171  0.7312
10899TIP3    H154112   3.933  -0.005   5.065  1.0367 -0.1178 -0.1599
10899TIP3    H254113   4.010   0.064   5.175  2.3689 -0.6145 -0.7563
10900TIP3   OH254114   6.521   2.789  16.164  0.0332 -0.3300  0.1513
10900TIP3    H154115   6.598   2.769  16.218 -0.6410 -0.5840  1.0311
10900TIP3    H254116   6.469   2.849  16.218 -0.8687 -0.9341 -0.0281
10901TIP3   OH254117   4.737   3.229  10.996 -0.2703  0.5111 -0.2677
10901TIP3    H154118   4.737   3.315  11.039  0.0692 -0.5085  1.9618
10901TIP3    H254119   4.802   3.178  11.045 -1.3018 -1.3708 -0.7385
10902TIP3   OH254120   1.714   3.189   4.526 -0.0291 -0.0253 -0.1341
10902TIP3    H154121   1.735   3.185   4.433  1.7890 -0.2317  0.2544
10902TIP3    H254122   1.755   3.111   4.563 -0.9369 -0.0740  0.8208
10903TIP3   OH254123   4.487   2.785  13.159  0.9607 -0.3660  0.2872
10903TIP3    H154124   4.472   2.860  13.216  0.0622 -0.4492  0.1631
10903TIP3    H254125   4.546   2.818  13.091  0.3019  0.3177  0.0396
10904TIP3   OH254126   1.674   0.919   6.724 -0.3834 -0.1499  0.0006
10904TIP3    H154127   1.686   1.005   6.684 -2.6717 -0.2457 -1.0279
10904TIP3    H254128   1.607   0.877   6.670 -1.7195 -1.3022  2.4207
10905TIP3   OH254129   1.121   3.792   1.484  0.3199 -0.4756 -0.0838
10905TIP3    H154130   1.047   3.835   1.526 -0.6941 -2.0159 -0.2060
10905TIP3    H254131   1.187   3.861   1.474 -1.2841  1.0710 -0.4666
10906TIP3   OH254132   3.359   0.004   3.852 -0.0404 -0.0450 -0.0748
10906TIP3    H154133   3.323   0.009   3.941  0.3678  0.8461  0.0481
10906TIP3    H254134   3.369   0.095   3.825 -0.2041 -0.3067 -1.0620
10907TIP3   OH254135   1.447   3.239  12.806  0.2287 -0.2332  0.7482
10907TIP3    H154136   1.420   3.177  12.738  2.0271 -1.7663  1.3363
10907TIP3    H254137   1.527   3.201  12.842  0.0145  1.1881  2.8801
10908TIP3   OH254138   0.015   6.597   3.543  0.0630  0.1656  0.0401
10908TIP3    H154139  -0.048   6.543   3.591  0.8201 -0.9075 -0.1298
10908TIP3    H254140   0.089   6.539   3.528  0.0976  0.6463 -1.9063
10909TIP3   OH254141   4.222   5.150  10.658 -0.3743  0.5412 -0.0247
10909TIP3    H154142   4.151   5.130  10.597  0.2595 -1.0474 -0.3046
10909TIP3    H254143   4.272   5.220  10.615 -0.8946  0.6031 -0.5398
10910TIP3   OH254144   4.575   3.816   2.534 -0.6844  0.2341  0.0590
10910TIP3    H154145   4.599   3.774   2.617 -0.3162 -0.7435 -0.5174
10910TIP3    H254146   4.657   3.817   2.484 -1.1994 -0.5059 -0.8359
10911TIP3   OH254147   5.206   0.376  11.556 -0.3294 -0.2005 -0.1584
10911TIP3    H154148   5.276   0.331  11.509 -0.0796 -0.8172  0.7587
10911TIP3    H254149   5.151   0.305  11.591 -0.1013  0.2013  1.0622
10912TIP3   OH254150   5.525   0.609  15.541 -0.0148  0.5872 -0.1338
10912TIP3    H154151   5.557   0.693  15.574  0.0867  0.9661 -1.1705
10912TIP3    H254152   5.438   0.600  15.580  0.4637  0.5705  0.9766
10913TIP3   OH254153   6.028   4.428   3.953 -0.2427 -0.1977 -0.1717
10913TIP3    H154154   6.065   4.481   3.883  0.2812 -1.9654 -1.2923
10913TIP3    H254155   6.078   4.347   3.952 -2.2505 -1.5347  0.1510
10914TIP3   OH254156   3.871   5.150   0.673 -0.7694 -0.1019  0.3380
10914TIP3    H154157   3.846   5.214   0.740  0.2467  1.6201 -0.8358
10914TIP3    H254158   3.849   5.192   0.590 -0.5886 -1.5406 -0.4780
10915TIP3   OH254159   6.047   4.762   0.316  0.2803  0.4662  0.3000
10915TIP3    H154160   6.140   4.762   0.339 -0.0345  1.7698  1.7972
10915TIP3    H254161   6.024   4.855   0.309 -1.3261  0.2615  1.9892
10916TIP3   OH254162   1.606   5.159   2.682 -0.3603  0.1594  0.7682
10916TIP3    H154163   1.689   5.173   2.636 -1.1066  1.1667 -0.3730
10916TIP3    H254164   1.618   5.201   2.767  0.4174 -0.0027  0.7414
10917TIP3   OH254165   0.726   1.534   1.703 -0.2241  0.1391 -0.3428
10917TIP3    H154166   0.671   1.523   1.625 -0.8157  3.4436 -0.5325
10917TIP3    H254167   0.813   1.554   1.668  0.3332 -1.5800 -0.0519
10918TIP3   OH254168   2.606   1.941   2.926  0.1038  0.3777 -0.4993
10918TIP3    H154169   2.616   2.036   2.919 -0.5694  0.5405  0.4976
10918TIP3    H254170   2.616   1.909   2.837  1.8211  1.2355 -0.6532
10919TIP3   OH254171   5.067   6.701   0.570  0.0974 -0.6837  0.1887
10919TIP3    H154172   5.098   6.777   0.619 -0.5969 -0.2749  0.0084
10919TIP3    H254173   5.127   6.630   0.596 -0.1494 -0.4461  1.4910
10920TIP3   OH254174   3.837   0.428  15.848  0.4014  0.5526  0.0281
10920TIP3    H154175   3.868   0.406  15.936 -0.3536 -2.7084 -0.3661
10920TIP3    H254176   3.916   0.438  15.796  0.9751 -2.2167  0.1883
10921TIP3   OH254177   5.564   5.874   5.768  0.4754  0.0968  0.1126
10921TIP3    H154178   5.628   5.927   5.721  0.4963 -1.2088 -1.4499
10921TIP3    H254179   5.523   5.821   5.699 -0.7858 -0.6118  1.3656
10922TIP3   OH254180   6.079   5.927   1.734  0.5391  0.4010 -0.4738
10922TIP3    H154181   6.172   5.938   1.711  0.8443  3.8387  1.7008
10922TIP3    H254182   6.038   6.009   1.709 -1.8495 -0.7903 -0.7500
10923TIP3   OH254183   1.853   4.601  15.292 -0.0772  0.4422 -0.3638
10923TIP3    H154184   1.779   4.580  15.235 -0.4048 -2.9744  1.0552
10923TIP3    H254185   1.920   4.536  15.269 -0.4065 -1.4262  3.2854
10924TIP3   OH254186   1.083   0.675   4.628 -0.0485 -0.2796 -0.3823
10924TIP3    H154187   1.154   0.646   4.686  0.4251  0.7912 -0.4020
10924TIP3    H254188   1.123   0.743   4.574 -1.1957  0.6334 -0.1206
10925TIP3   OH254189   5.914   1.775   1.564  0.1052 -0.4458 -0.1286
10925TIP3    H154190   5.933   1.695   1.614 -1.3190 -0.0911  1.0617
10925TIP3    H254191   5.909   1.844   1.629 -2.1533 -0.0238 -0.6471
10926TIP3   OH254192   0.604   4.740  14.237  0.2393 -0.3020  0.0977
10926TIP3    H154193   0.663   4.740  14.161 -3.4863 -0.5361 -3.0745
10926TIP3    H254194   0.617   4.826  14.276  1.4807  0.2998 -1.5032
10927TIP3   OH254195   0.936   5.937   0.900  0.6396 -0.1785 -0.2708
10927TIP3    H154196   0.841   5.953   0.897  0.5632 -0.5901 -0.0251
10927TIP3    H254197   0.945   5.849   0.935  1.0897 -0.4925 -1.1634
10928TIP3   OH254198   1.131   2.436   3.910  0.7719  0.3985 -0.2197
10928TIP3    H154199   1.206   2.381   3.889  2.2553  2.1916  0.0830
10928TIP3    H254200   1.108   2.478   3.827  0.3164  0.1305 -0.2344
10929TIP3   OH254201   3.389   6.546  13.995 -0.5262 -0.6074  0.6947
10929TIP3    H154202   3.294   6.545  13.980 -0.6988 -1.4668  1.7494
10929TIP3    H254203   3.409   6.637  14.015 -0.8432 -0.0864 -1.1350
10930TIP3   OH254204   1.526   1.735   2.993  0.2361 -0.0863  0.0510
10930TIP3    H154205   1.578   1.771   2.922 -0.1256  1.1713  0.3836
10930TIP3    H254206   1.470   1.669   2.952 -1.2740  1.8681 -1.2432
10931TIP3   OH254207   2.215   3.230   0.922  0.0987 -0.2784 -0.3216
10931TIP3    H154208   2.239   3.322   0.930 -1.0099  0.3797 -3.4876
10931TIP3    H254209   2.145   3.217   0.986 -0.9205  1.5659 -1.0070
10932TIP3   OH254210   1.450   6.551   0.040 -0.4378  0.2042 -0.1135
10932TIP3    H154211   1.496   6.633   0.060 -0.4265 -0.1720  1.5050
10932TIP3    H254212   1.390   6.539   0.113 -0.2817 -1.3621 -0.2167
10933TIP3   OH254213   2.129   5.082   0.988 -0.1072  0.2102  0.5042
10933TIP3    H154214   2.175   5.050   0.910 -1.0142 -3.3024  1.2619
10933TIP3    H254215   2.083   5.006   1.023 -0.6109  1.8715  3.9252
10934TIP3   OH254216   0.584   1.030  16.437  0.4535  0.1739 -0.1771
10934TIP3    H154217   0.544   0.950  16.472  0.7282  0.8383  1.8087
10934TIP3    H254218   0.512   1.080  16.401 -0.0066 -0.1384  0.2983
10935TIP3   OH254219   4.879   0.799  15.111 -0.0678 -0.0514 -0.2143
10935TIP3    H154220   4.863   0.714  15.153  1.5541  0.3312  1.3339
10935TIP3    H254221   4.957   0.785  15.057 -0.8187  0.0435 -1.3564
10936TIP3   OH254222   5.596   1.971   2.153  0.3440  0.3245 -0.4861
10936TIP3    H154223   5.616   1.903   2.089 -0.3035 -0.8746  0.5246
10936TIP3    H254224   5.624   1.934   2.237  0.4267  1.5213  0.0445
10937TIP3   OH254225   1.135   4.002   2.372 -0.4545 -0.4177 -0.0001
10937TIP3    H154226   1.159   4.010   2.280  1.8291 -0.3478  0.5409
10937TIP3    H254227   1.065   3.937   2.374 -0.5426 -0.4076 -1.7606
10938TIP3   OH254228   1.429   6.156  11.426 -0.5489  0.3625 -0.2853
10938TIP3    H154229   1.433   6.136  11.520 -0.4988  2.1498  0.1421
10938TIP3    H254230   1.336   6.148  11.404 -0.2873 -2.4433 -0.7216
10939TIP3   OH254231   5.576   1.876  15.502 -0.8419  0.0350 -0.0372
10939TIP3    H154232   5.639   1.806  15.524 -1.2927 -1.1754 -2.2849
10939TIP3    H254233   5.524   1.887  15.582  1.5053  0.3848  1.5811
10940TIP3   OH254234   1.423   2.878  14.868  0.4929 -0.4826 -0.1498
10940TIP3    H154235   1.392   2.885  14.778 -1.6481 -0.3837  0.5363
10940TIP3    H254236   1.439   2.785  14.881 -1.9027 -0.9285  0.1234
10941TIP3   OH254237   2.072   5.501   5.732  0.4348  0.1791  0.8278
10941TIP3    H154238   2.049   5.587   5.769 -0.5973  1.1946 -1.8900
10941TIP3    H254239   1.996   5.478   5.678  0.8416 -2.3405  1.2283
10942TIP3   OH254240   6.542   2.224   5.126 -0.0015  0.1111  0.1511
10942TIP3    H154241   6.529   2.178   5.043  2.4244 -2.7746  1.1705
10942TIP3    H254242   6.631   2.260   5.120  0.0836  0.1636  1.3569
10943TIP3   OH254243   2.671   1.129   4.894 -0.2557 -0.5608 -0.2527
10943TIP3    H154244   2.762   1.099   4.885 -0.1713 -0.0903 -1.0106
10943TIP3    H254245   2.619   1.049   4.892  0.1387 -0.8404  0.2366
10944TIP3   OH254246   5.491   4.025   5.421  0.1137 -0.1267  0.8966
10944TIP3    H154247   5.586   4.014   5.431 -0.0374 -2.1112  0.5242
10944TIP3    H254248   5.455   4.004   5.507 -0.0332  0.2462  0.9311
10945TIP3   OH254249   3.701   3.618   2.739 -0.1567  0.7064  0.3263
10945TIP3    H154250   3.684   3.685   2.672 -1.3191 -0.6427 -0.7858
10945TIP3    H254251   3.711   3.537   2.690  0.9151 -0.0123  1.6776
10946TIP3   OH254252   2.471   5.862  12.669  0.0111  0.3667 -0.3671
10946TIP3    H154253   2.464   5.779  12.621 -1.2020  0.1127  0.2102
10946TIP3    H254254   2.499   5.925  12.603  2.1487 -0.7021 -0.5678
10947TIP3   OH254255   4.547   5.051  15.122 -0.6406 -0.5993  0.3724
10947TIP3    H154256   4.627   4.999  15.114 -0.1545  0.3989 -2.6256
10947TIP3    H254257   4.578   5.140  15.138 -0.9459  0.0864 -2.3669
10948TIP3   OH254258   3.176   2.700  12.804 -0.1530 -0.8571  0.2188
10948TIP3    H154259   3.144   2.613  12.831  2.1784 -1.1438  2.4685
10948TIP3    H254260   3.271   2.696  12.819  0.3585  1.3549 -1.8790
10949TIP3   OH254261   0.314   5.887   6.118  0.4052 -0.1003  0.0385
10949TIP3    H154262   0.374   5.889   6.192 -1.0600  0.7713  1.2752
10949TIP3    H254263   0.235   5.845   6.152 -0.0352 -0.3515 -1.2408
10950TIP3   OH254264   4.992   5.948  13.244  0.1131 -0.4071 -0.2790
10950TIP3    H154265   5.074   5.958  13.292  0.3324  0.2027 -0.7640
10950TIP3    H254266   5.004   5.868  13.192  0.6158 -0.0321 -0.7525
10951TIP3   OH254267   4.654   4.660   5.446 -0.1521  0.5847  0.1585
10951TIP3    H154268   4.695   4.658   5.532 -1.2222  0.5832  0.6878
10951TIP3    H254269   4.561   4.645   5.464 -0.0578 -2.3518 -1.2383
10952TIP3   OH254270   6.281   3.877  15.523  0.5447 -0.1241 -1.0074
10952TIP3    H154271   6.273   3.831  15.606  3.5584 -0.3739 -0.7345
10952TIP3    H254272   6.220   3.833  15.464 -2.0279  0.3739  1.1007
10953TIP3   OH254273   4.358   1.654  14.757  0.2163 -0.1667  0.3223
10953TIP3    H154274   4.442   1.639  14.713  0.6242 -0.4881  1.1816
10953TIP3    H254275   4.339   1.570  14.800 -0.0878  0.1940  0.8899
10954TIP3   OH254276   5.296   0.644   1.351 -0.3484  0.4222 -0.2483
10954TIP3    H154277   5.335   0.721   1.392  0.1641 -0.4801  0.9951
10954TIP3    H254278   5.222   0.621   1.406 -0.1173 -0.3493 -0.2409
10955TIP3   OH254279   6.424   1.228  11.418  0.6357 -0.2369  0.8127
10955TIP3    H154280   6.489   1.160  11.399 -1.1346 -2.6469  2.7390
10955TIP3    H254281   6.453   1.265  11.502 -0.8592 -1.9610  2.1507
10956TIP3   OH254282   6.605   1.021  11.243 -0.2042 -0.5704  0.5290
10956TIP3    H154283   6.660   1.042  11.167 -0.3406 -0.0334  0.5731
10956TIP3    H254284   6.653   0.952  11.288 -0.5733 -1.5605 -0.5377
10957TIP3   OH254285   6.690   5.063   4.963 -0.2191  0.5469  0.0973
10957TIP3    H154286   6.715   5.068   5.056 -1.3675  0.5532  0.4258
10957TIP3    H254287   6.656   5.150   4.944  2.7116  1.5455 -1.1988
10958TIP3   OH254288   1.071   2.867  13.488 -0.4762 -0.1749 -0.4197
10958TIP3    H154289   1.149   2.823  13.452 -0.0090 -1.2990  1.7638
10958TIP3    H254290   1.106   2.923  13.557 -1.6399 -2.0258  1.8155
10959TIP3   OH254291   0.874   6.245  17.278 -0.3315  0.1178  0.5184
10959TIP3    H154292   0.837   6.303  17.212  0.2426  0.4629  0.4995
10959TIP3    H254293   0.823   6.164  17.269 -0.1810  0.1186 -0.4243
10960TIP3   OH254294   1.211   1.162  15.129  0.2611 -0.0376 -0.4760
10960TIP3    H154295   1.234   1.091  15.190 -3.4558  0.1943  1.5099
10960TIP3    H254296   1.200   1.118  15.045 -0.7396 -1.6897  0.4400
10961TIP3   OH254297   2.930   0.506   3.543 -0.3431 -0.7345  0.5644
10961TIP3    H154298   2.957   0.429   3.593  0.2433 -1.2190 -0.4781
10961TIP3    H254299   2.979   0.500   3.461 -1.0965  0.1785  0.0314
10962TIP3   OH254300   5.773   6.353   0.572  0.0674 -0.2090 -0.1685
10962TIP3    H154301   5.841   6.420   0.579  0.1801 -0.0851 -2.0349
10962TIP3    H254302   5.810   6.287   0.514 -1.1201 -0.5067 -0.6125
10963TIP3   OH254303   6.762   6.629  15.877 -0.0649 -0.1399  0.5022
10963TIP3    H154304   6.698   6.664  15.815 -1.1736 -2.2423  0.3535
10963TIP3    H254305   6.709   6.576  15.938  1.4256 -1.1631  0.9565
10964TIP3   OH254306   4.194   4.041   5.749 -0.4304 -0.6541  0.9094
10964TIP3    H154307   4.128   4.032   5.817 -1.3814  1.9736  0.4631
10964TIP3    H254308   4.277   4.029   5.794 -1.0601  0.4845  2.4803
10965TIP3   OH254309   6.150   3.460  13.902  0.2517 -0.0105 -0.0685
10965TIP3    H154310   6.230   3.492  13.944  1.2485 -0.9483 -1.1669
10965TIP3    H254311   6.137   3.373  13.939 -0.2701  0.1441  0.1130
10966TIP3   OH254312   4.458   1.056  11.011  0.0097  0.3250 -0.3634
10966TIP3    H154313   4.485   0.972  10.973 -3.0526 -1.5493  1.2685
10966TIP3    H254314   4.403   1.096  10.943 -1.6572 -0.8533  0.2345
10967TIP3   OH254315   6.548   3.864   4.991 -0.6128 -0.0139 -0.1716
10967TIP3    H154316   6.546   3.777   4.949  0.1210 -0.0209 -0.2021
10967TIP3    H254317   6.456   3.889   4.997 -0.7944 -0.4680 -0.8538
10968TIP3   OH254318   3.596   0.453   4.300  0.4735  0.0982 -0.0353
10968TIP3    H154319   3.514   0.429   4.258  1.0087  1.0499 -1.7195
10968TIP3    H254320   3.612   0.384   4.364  0.1523 -2.0005 -2.1206
10969TIP3   OH254321   2.347   4.361   6.380  0.1989  0.4402 -0.3423
10969TIP3    H154322   2.347   4.407   6.464 -0.8305  2.2158 -1.2656
10969TIP3    H254323   2.317   4.426   6.317 -1.1131 -1.4511 -1.7783
10970TIP3   OH254324   2.679   2.934  12.691  0.5532  0.4611  0.1888
10970TIP3    H154325   2.683   2.842  12.716 -1.6846  0.0335 -0.8010
10970TIP3    H254326   2.601   2.968  12.736  0.8893  1.6724 -0.0972
10971TIP3   OH254327   0.742   6.748  12.567 -0.0237  0.5077  0.6805
10971TIP3    H154328   0.746   6.677  12.631  1.7614  0.4474  0.5668
10971TIP3    H254329   0.828   6.791  12.574 -0.4121  1.5384 -0.5016
10972TIP3   OH254330   0.744   2.793  11.357 -0.4641 -0.7138 -0.0013
10972TIP3    H154331   0.754   2.728  11.287  0.3430  1.1859 -1.7672
10972TIP3    H254332   0.777   2.749  11.435 -0.8260 -2.7210 -0.9086
10973TIP3   OH254333   2.863   4.652  10.767 -0.5393  0.6378  0.1900
10973TIP3    H154334   2.767   4.651  10.766 -0.5565  1.2502 -1.0770
10973TIP3    H254335   2.886   4.738  10.734  0.4588  0.6281  0.8292
10974TIP3   OH254336   0.534   3.177   4.696 -0.0194  0.7144  0.1677
10974TIP3    H154337   0.493   3.142   4.617 -1.1858 -1.1542  1.5379
10974TIP3    H254338   0.627   3.154   4.687 -0.2335  0.0709 -0.4226
10975TIP3   OH254339   6.097   4.808  13.757  0.3150 -0.5504 -0.6169
10975TIP3    H154340   6.178   4.809  13.705 -0.3814  0.4024 -1.7591
10975TIP3    H254341   6.061   4.896  13.744 -0.0984 -0.4283  1.1981
10976TIP3   OH254342   2.913   2.183  13.292  0.4498 -0.3732 -0.4321
10976TIP3    H154343   2.823   2.160  13.316  0.3821 -0.2604 -0.5762
10976TIP3    H254344   2.906   2.218  13.203  0.4000  1.2420  0.1880
10977TIP3   OH254345   6.597   4.487   6.045  0.4233  0.5078  0.6055
10977TIP3    H154346   6.567   4.566   5.999 -2.5313 -0.7776  0.0842
10977TIP3    H254347   6.519   4.453   6.088  1.1222 -3.0842 -0.6243
10978TIP3   OH254348   0.728   2.075  12.571  0.1397  0.0540  0.0330
10978TIP3    H154349   0.716   2.145  12.507 -0.4611  0.0332  0.1169
10978TIP3    H254350   0.823   2.066  12.579  0.2206  0.4725 -0.3985
10979TIP3   OH254351   0.521   0.636   3.972  0.3196  0.5825 -0.4276
10979TIP3    H154352   0.428   0.634   3.992  0.4523  3.9723  1.3186
10979TIP3    H254353   0.563   0.591   4.045  0.0964 -0.4109 -0.9051
10980TIP3   OH254354   6.686   1.006   3.304 -0.1510  0.8120 -0.3607
10980TIP3    H154355   6.756   1.006   3.370 -0.6274  1.6916  0.1715
10980TIP3    H254356   6.729   0.981   3.223  0.6461  0.6734  0.0913
10981TIP3   OH254357   5.461   4.940  12.231 -0.0737 -0.2237 -0.7164
10981TIP3    H154358   5.432   4.926  12.322 -0.5929 -0.5389 -0.9234
10981TIP3    H254359   5.531   4.876  12.219 -0.6323 -0.8297 -0.8197
10982TIP3   OH254360   3.188   2.983   4.159  0.3424 -0.1304  0.6141
10982TIP3    H154361   3.151   3.020   4.078  2.0992  0.0302 -0.1532
10982TIP3    H254362   3.209   2.893   4.136  0.7561 -0.1149  0.9358
10983TIP3   OH254363   0.257   1.539  15.102 -0.4977  0.3382 -0.1133
10983TIP3    H154364   0.213   1.455  15.099 -0.1749  0.1767 -2.4048
10983TIP3    H254365   0.261   1.562  15.195 -0.1867 -2.3612  0.6081
10984TIP3   OH254366   2.347   0.038  13.030  0.5536  0.4359 -0.2506
10984TIP3    H154367   2.259   0.064  13.057  0.3258  1.1058 -1.5509
10984TIP3    H254368   2.334  -0.047  12.986  0.4511  0.8222 -0.9824
10985TIP3   OH254369   0.116   0.636   0.180  0.2498  0.1295 -0.2453
10985TIP3    H154370   0.188   0.578   0.155  0.2872 -0.1933  0.5792
10985TIP3    H254371   0.061   0.582   0.237  0.2344  0.8777  0.4623
10986TIP3   OH254372   3.112   3.539  12.290  0.6717 -0.5317  0.1144
10986TIP3    H154373   3.105   3.632  12.267  1.8274 -0.4072  0.2178
10986TIP3    H254374   3.132   3.539  12.384 -0.0394 -0.9160  0.2729
10987TIP3   OH254375   5.774   6.185  12.450 -0.2174 -0.4627 -0.1895
10987TIP3    H154376   5.718   6.239  12.505  0.8295  2.1661 -1.5237
10987TIP3    H254377   5.735   6.190  12.362  1.1030  0.0380 -0.7866
10988TIP3   OH254378   6.053   1.442   3.990 -0.1206  0.1573 -0.0768
10988TIP3    H154379   5.992   1.493   4.043  1.0946  0.6583  0.8945
10988TIP3    H254380   5.998   1.382   3.940 -1.3271 -0.2798  1.6968
10989TIP3   OH254381   2.214   3.599  12.635 -0.2166 -0.1434  0.3747
10989TIP3    H154382   2.231   3.512  12.597 -0.7564  0.5028 -1.4847
10989TIP3    H254383   2.294   3.648  12.618  0.0122 -0.1998  1.2477
10990TIP3   OH254384   1.400   6.637  13.289  0.2242 -0.1853 -0.3331
10990TIP3    H154385   1.458   6.572  13.329 -0.4776  0.3193  1.6420
10990TIP3    H254386   1.459   6.697  13.243  1.2261 -0.1277  0.9679
10991TIP3   OH254387   1.781   3.869  12.582  0.2598 -0.1802  0.0581
10991TIP3    H154388   1.834   3.887  12.504 -1.2631 -0.0132 -0.9807
10991TIP3    H254389   1.844   3.833  12.645  2.1867  2.6821 -0.0540
10992TIP3   OH254390   6.181   1.020   0.764  0.7258 -0.1494 -0.0197
10992TIP3    H154391   6.093   0.985   0.747  0.1447  1.7871 -1.3546
10992TIP3    H254392   6.165   1.107   0.802  2.0992 -0.4432  1.3043
10993TIP3   OH254393   4.554   5.895  16.126  0.1131  0.3569 -0.1021
10993TIP3    H154394   4.507   5.970  16.090  1.0641  0.3840 -1.3966
10993TIP3    H254395   4.582   5.846  16.048  3.0917  0.9032  0.4833
10994TIP3   OH254396   5.158   1.748  13.076  0.8360 -0.0849 -0.2819
10994TIP3    H154397   5.160   1.803  12.998 -1.0473 -0.4064 -0.6098
10994TIP3    H254398   5.127   1.663  13.044 -0.2970 -0.1222  0.8411
10995TIP3   OH254399   6.620   1.659  16.398  0.1744 -0.1171 -0.1750
10995TIP3    H154400   6.660   1.574  16.379 -0.5799 -0.1848 -1.5861
10995TIP3    H254401   6.530   1.651  16.367 -0.4204  0.6494  1.2391
10996TIP3   OH254402   6.647   1.576  17.203 -0.1486  0.4923  0.0293
10996TIP3    H154403   6.701   1.513  17.251 -2.4472 -2.2225 -0.6804
10996TIP3    H254404   6.680   1.662  17.230  3.2277 -0.9578  0.9951
10997TIP3   OH254405   2.891   3.360   2.692  0.3857  0.3662 -0.0077
10997TIP3    H154406   2.878   3.363   2.598  0.0931 -1.6579 -0.0698
10997TIP3    H254407   2.970   3.411   2.707  0.5508  0.5352 -1.3719
10998TIP3   OH254408   6.250   3.269  17.223 -0.6381 -0.0620 -0.4803
10998TIP3    H154409   6.286   3.204  17.283 -1.9678  0.3863  0.8811
10998TIP3    H254410   6.193   3.219  17.164  1.9608 -0.7594 -2.5933
10999TIP3   OH254411   3.592   6.465   3.324  0.3260 -0.2024  0.0941
10999TIP3    H154412   3.621   6.547   3.363 -0.7118  0.5235 -0.6146
10999TIP3    H254413   3.668   6.432   3.277  1.0500 -0.1772  1.2271
11000TIP3   OH254414   1.681   5.725  15.096 -0.3604  0.1745  0.0344
11000TIP3    H154415   1.640   5.766  15.172 -1.5791  0.8477 -0.9491
11000TIP3    H254416   1.609   5.713  15.034  0.6880  0.0709 -1.1886
11001TIP3   OH254417   4.827   5.629   3.533  0.2279 -0.3137 -0.0529
11001TIP3    H154418   4.798   5.720   3.531  1.7162  0.2643  2.1823
11001TIP3    H254419   4.745   5.578   3.533 -0.7118  1.1115  1.5395
11002TIP3   OH254420   4.404   6.122  16.024 -0.3440 -0.3804 -0.1625
11002TIP3    H154421   4.374   6.205  15.986 -0.2496  0.0734  0.7153
11002TIP3    H254422   4.420   6.143  16.117  0.6101 -1.1397 -0.1390
11003TIP3   OH254423   4.441   1.155  16.780 -0.6746  0.6374 -0.3120
11003TIP3    H154424   4.465   1.182  16.868  1.6075  0.3599 -0.7977
11003TIP3    H254425   4.395   1.072  16.791 -2.7770  1.8595  0.7587
11004TIP3   OH254426   2.231   0.815  15.485 -0.5100  0.0630 -0.4645
11004TIP3    H154427   2.275   0.873  15.548  1.4064 -0.7273 -1.0164
11004TIP3    H254428   2.138   0.824  15.506 -0.0437  1.0346  1.4257
11005TIP3   OH254429   5.513   0.464   0.527  0.0684 -0.3493 -0.3303
11005TIP3    H154430   5.424   0.431   0.522  0.6485 -1.9109 -1.1549
11005TIP3    H254431   5.509   0.553   0.493 -1.3869  0.1245  0.9728
11006TIP3   OH254432   4.324   1.172  15.520  0.4528 -0.4888  0.0105
11006TIP3    H154433   4.301   1.204  15.432 -1.6021 -0.6073  0.4687
11006TIP3    H254434   4.247   1.191  15.573  0.1794 -3.7365  0.9566
11007TIP3   OH254435   4.400   4.700   2.509  0.0266 -0.2418  0.6075
11007TIP3    H154436   4.393   4.795   2.501  0.5836 -0.2980 -0.7187
11007TIP3    H254437   4.478   4.686   2.563  0.3515  0.0458  0.2141
11008TIP3   OH254438   6.345   0.521   3.699  0.0333 -0.4445  0.5038
11008TIP3    H154439   6.309   0.490   3.615  2.1984 -1.3191 -0.1594
11008TIP3    H254440   6.430   0.559   3.676  0.7241 -0.8039  2.3209
11009TIP3   OH254441   4.179   2.999   3.616  0.4202  0.5298 -0.3165
11009TIP3    H154442   4.254   3.035   3.664 -0.2688  1.1026  0.3665
11009TIP3    H254443   4.111   3.066   3.624 -0.8683 -0.8347  0.8715
11010TIP3   OH254444   2.939   3.596  13.033  0.4285 -0.1410  0.4813
11010TIP3    H154445   3.021   3.549  13.048  1.1050  1.2560  1.3488
11010TIP3    H254446   2.944   3.622  12.941 -0.1149 -2.0166 -0.1059
11011TIP3   OH254447   0.769   4.440  11.892  0.0768  0.5440  0.1025
11011TIP3    H154448   0.704   4.425  11.961 -0.0193 -0.9471 -0.2769
11011TIP3    H254449   0.743   4.523  11.852 -2.1157 -0.3977 -0.5826
11012TIP3   OH254450   5.314   2.030   0.593  0.1283 -0.1695 -0.0320
11012TIP3    H154451   5.277   2.041   0.680  0.4438 -2.7597  0.5015
11012TIP3    H254452   5.394   1.980   0.607  1.2722  1.0935 -1.6502
11013TIP3   OH254453   1.967   2.832  15.372 -0.8538 -0.4875  0.4844
11013TIP3    H154454   2.058   2.825  15.401 -0.9052 -0.0806  0.7434
11013TIP3    H254455   1.915   2.798  15.445 -0.9152 -0.7045  0.3424
11014TIP3   OH254456   1.974   3.030  15.150 -0.5838  0.0717 -0.4185
11014TIP3    H154457   1.962   2.968  15.222  1.7391 -0.1793 -0.1745
11014TIP3    H254458   1.984   3.115  15.192  1.9183 -0.2173 -0.2364
11015TIP3   OH254459   1.284   4.142  16.296 -0.2581 -0.3424 -0.0936
11015TIP3    H154460   1.247   4.230  16.303 -0.3245 -0.3147 -0.7139
11015TIP3    H254461   1.361   4.143  16.354 -0.3841  0.0528  0.0679
11016TIP3   OH254462   3.757   3.810   4.946 -0.5086  0.5511 -0.2015
11016TIP3    H154463   3.683   3.849   4.994 -0.9905 -1.2599  0.5814
11016TIP3    H254464   3.757   3.718   4.972  1.3090  0.2558 -1.1222
11017TIP3   OH254465   5.708   0.629   0.861  0.1472  0.8015 -0.1348
11017TIP3    H154466   5.633   0.574   0.838  0.0919  0.6251  0.4573
11017TIP3    H254467   5.760   0.634   0.781 -0.3892  0.7561 -0.4903
11018TIP3   OH254468   1.269   1.179   2.737 -0.0759  0.1278 -0.2450
11018TIP3    H154469   1.187   1.185   2.786 -1.1672 -1.4731 -1.7397
11018TIP3    H254470   1.297   1.270   2.726 -0.5001  0.6028  2.0717
11019TIP3   OH254471   3.992   4.466  14.726 -0.4090 -0.2477 -0.3336
11019TIP3    H154472   4.072   4.517  14.739 -0.3504 -0.3381 -0.3341
11019TIP3    H254473   3.951   4.464  14.813  0.3785 -1.5090  0.0355
11020TIP3   OH254474   5.538   0.472  12.935 -0.5779 -0.3354  0.3768
11020TIP3    H154475   5.527   0.446  13.026 -1.5315 -0.0595  0.3539
11020TIP3    H254476   5.492   0.556  12.928 -0.2901 -0.2211 -0.2995
11021TIP3   OH254477   2.560   3.377   2.213  0.0215 -0.1010 -0.3422
11021TIP3    H154478   2.555   3.448   2.277  0.9860 -1.3232  1.1725
11021TIP3    H254479   2.473   3.338   2.213 -0.4241  0.8616 -0.9532
11022TIP3   OH254480   2.230   1.300   0.890 -0.3404 -0.1776  0.6183
11022TIP3    H154481   2.323   1.278   0.888 -0.7295 -1.9163 -0.1191
11022TIP3    H254482   2.223   1.379   0.837  0.7780  0.3274  1.1807
11023TIP3   OH254483   4.344   1.408  14.901  0.2150  0.8292  0.0582
11023TIP3    H154484   4.302   1.458  14.971  0.2485  1.1048 -0.1156
11023TIP3    H254485   4.428   1.381  14.937 -0.5930 -0.7456  0.8386
11024TIP3   OH254486   3.212   4.928  16.147  0.2531 -0.3316 -0.2875
11024TIP3    H154487   3.213   4.998  16.212  0.1049 -1.1785  0.6539
11024TIP3    H254488   3.281   4.868  16.175  1.0971 -0.0620 -1.6798
11025TIP3   OH254489   6.266   3.514   4.527 -0.3720  0.8061  0.6308
11025TIP3    H154490   6.175   3.508   4.497 -0.0416 -0.2426 -0.2055
11025TIP3    H254491   6.270   3.456   4.603 -0.5005  1.1786  0.9229
11026TIP3   OH254492   5.979   0.346  16.968  0.0957 -0.5710  0.2416
11026TIP3    H154493   5.899   0.396  16.981 -0.6998 -1.1301 -2.0957
11026TIP3    H254494   5.953   0.273  16.912  1.8296 -1.9939  1.1671
11027TIP3   OH254495   6.667   6.451   2.715 -0.0482 -0.0932 -0.2912
11027TIP3    H154496   6.715   6.426   2.636  0.6403 -1.0029  0.4006
11027TIP3    H254497   6.621   6.371   2.741 -0.9526  0.4317 -0.2434
11028TIP3   OH254498   5.665   0.537  12.245  0.0301 -0.0171 -0.3501
11028TIP3    H154499   5.698   0.625  12.259  0.3061 -0.0728 -0.6353
11028TIP3    H254500   5.694   0.487  12.321 -0.2202  0.1607 -0.1347
11029TIP3   OH254501   5.739   2.289   1.665  0.1515  0.2546 -0.4164
11029TIP3    H154502   5.741   2.296   1.760  0.9767 -0.3651 -0.3825
11029TIP3    H254503   5.675   2.220   1.648  1.6468 -1.2622 -0.1874
11030TIP3   OH254504   0.752   0.185  11.967 -0.3328 -0.4016  0.5853
11030TIP3    H154505   0.696   0.134  12.026 -0.7868  0.1014  0.5933
11030TIP3    H254506   0.699   0.261  11.943  0.3536  0.0904  0.6016
11031TIP3   OH254507   0.459   3.726  16.015  0.0538  0.6733  0.3701
11031TIP3    H154508   0.539   3.750  15.969  0.4198 -2.2458 -0.6953
11031TIP3    H254509   0.394   3.713  15.946 -1.2720  2.4335  1.1809
11032TIP3   OH254510   5.974   4.752  15.512 -0.5141 -0.1397 -0.1941
11032TIP3    H154511   5.999   4.758  15.420 -0.6324  0.9851 -0.1707
11032TIP3    H254512   5.878   4.746  15.509 -0.4435 -1.6499 -0.1835
11033TIP3   OH254513   3.081   4.118  11.828 -0.1240 -0.2380  0.3874
11033TIP3    H154514   3.139   4.085  11.760  1.8620  0.8464  1.4666
11033TIP3    H254515   3.022   4.178  11.783  1.6783  1.1000 -0.3127
11034TIP3   OH254516   0.072   6.670  16.320  0.0484 -0.3193  0.0141
11034TIP3    H154517   0.045   6.591  16.273  1.1255 -0.6978  0.0038
11034TIP3    H254518   0.001   6.686  16.382 -1.0236 -0.2746 -1.1775
11035TIP3   OH254519   1.470   4.576   3.562 -0.0638 -0.3433 -0.3605
11035TIP3    H154520   1.491   4.576   3.468 -1.1901  0.3963 -0.6459
11035TIP3    H254521   1.379   4.546   3.566 -0.2022  0.1438  0.4401
11036TIP3   OH254522   1.762   1.524  17.102  1.0123  0.3976  0.1647
11036TIP3    H154523   1.728   1.610  17.127  1.2508  0.5100  0.1034
11036TIP3    H254524   1.749   1.520  17.007 -0.7889 -0.4170  0.3990
11037TIP3   OH254525   2.965   5.955  16.694 -0.3327  0.3376  0.0180
11037TIP3    H154526   2.919   6.033  16.661  0.7305  1.0294  0.1138
11037TIP3    H254527   2.899   5.908  16.745 -0.5448  2.1611  1.5347
11038TIP3   OH254528   6.483   2.811  14.838  0.2898 -0.3246  0.0857
11038TIP3    H154529   6.516   2.816  14.927  0.8034  0.8780 -0.1448
11038TIP3    H254530   6.498   2.721  14.811  0.3329 -0.6377  1.1382
11039TIP3   OH254531   3.622   5.838   3.670 -0.4000  0.0901  0.0160
11039TIP3    H154532   3.592   5.918   3.714 -0.9513  0.5630 -1.1596
11039TIP3    H254533   3.712   5.858   3.643 -0.2151 -0.0351  0.5398
11040TIP3   OH254534   5.741   1.534  17.107 -0.6899 -0.6345  0.0476
11040TIP3    H154535   5.795   1.538  17.186  1.1776  0.6275 -1.2014
11040TIP3    H254536   5.672   1.598  17.122  1.0987  1.5146 -0.2638
11041TIP3   OH254537   4.682   4.609   0.822  0.1742 -0.5690 -0.1182
11041TIP3    H154538   4.633   4.529   0.844 -1.6485  0.6196  0.3638
11041TIP3    H254539   4.682   4.612   0.727  0.9664 -1.5349 -0.1685
11042TIP3   OH254540   0.379   4.364   0.789 -0.2234  0.0154 -0.6398
11042TIP3    H154541   0.293   4.401   0.769 -0.4754  1.5577  2.6124
11042TIP3    H254542   0.369   4.270   0.773 -3.0397 -0.0715  0.9958
11043TIP3   OH254543   2.819   3.781  13.216  0.2312  0.6156 -0.4815
11043TIP3    H154544   2.849   3.697  13.181 -4.4697 -1.8992  0.6814
11043TIP3    H254545   2.864   3.790  13.300  2.3616  0.4740 -1.5357
11044TIP3   OH254546   1.325   1.799  15.962  0.1684 -0.1884  0.2809
11044TIP3    H154547   1.260   1.828  16.025 -0.9086 -3.0061  0.5958
11044TIP3    H254548   1.398   1.767  16.015  0.5087  0.1160  0.0046
11045TIP3   OH254549   5.734   5.753  13.922 -0.0315  0.3370  0.2069
11045TIP3    H154550   5.777   5.671  13.898 -0.4204 -0.0440  0.7753
11045TIP3    H254551   5.641   5.730  13.927 -0.1676  0.8650  0.1664
11046TIP3   OH254552   3.982   6.668   6.013 -0.2637 -0.1611 -0.2679
11046TIP3    H154553   3.928   6.708   5.945  1.3322  1.3685 -0.7047
11046TIP3    H254554   4.063   6.642   5.968  0.1541 -0.6460  0.7238
11047TIP3   OH254555   0.469   3.426   1.541 -0.5240  0.6481  0.5941
11047TIP3    H154556   0.406   3.399   1.474  0.4925 -0.2110 -0.0362
11047TIP3    H254557   0.538   3.361   1.537  0.8351  2.0281  0.6737
11048TIP3   OH254558   2.018   6.043   5.626  0.9950 -0.4055  0.2421
11048TIP3    H154559   2.059   6.128   5.642 -0.3431  0.2346  0.4642
11048TIP3    H254560   1.987   6.048   5.536 -0.9333  0.1904  0.8935
11049TIP3   OH254561   3.779   4.098  16.984 -0.1262 -0.3288  0.1399
11049TIP3    H154562   3.754   4.024  16.929 -0.7419  0.1362 -0.2226
11049TIP3    H254563   3.848   4.142  16.935  0.7378 -1.0511  0.6821
11050TIP3   OH254564   1.967   5.327  13.442 -0.2301 -0.2563  0.2697
11050TIP3    H154565   2.015   5.409  13.454 -1.2789  0.5411 -0.7001
11050TIP3    H254566   2.025   5.260  13.477  0.3189  0.9738  1.8446
11051TIP3   OH254567   1.378   3.580  14.932 -0.0436 -0.0273  0.2611
11051TIP3    H154568   1.372   3.669  14.967 -1.0642  1.0129 -2.3365
11051TIP3    H254569   1.290   3.545  14.942 -0.1552  0.0128 -0.5451
11052TIP3   OH254570   2.090   3.203   4.375 -0.0617 -0.0687  0.6657
11052TIP3    H154571   2.150   3.269   4.409 -0.3401 -0.3346  1.7101
11052TIP3    H254572   2.018   3.254   4.337  0.9790  0.2550 -0.9488
11053TIP3   OH254573   4.005   1.321  16.109  0.1091  0.0801  0.3197
11053TIP3    H154574   3.916   1.346  16.132 -0.1032 -0.4817  0.1345
11053TIP3    H254575   4.005   1.225  16.112  0.2892  0.0108 -1.1646
11054TIP3   OH254576   3.555   3.530  12.854  0.3803 -0.4238 -0.1597
11054TIP3    H154577   3.567   3.620  12.884  0.5531 -1.2754  2.6029
11054TIP3    H254578   3.553   3.537  12.759  2.1001  2.2800 -0.1169
11055TIP3   OH254579   0.259   5.596  15.479  0.5010 -0.2713  0.0447
11055TIP3    H154580   0.207   5.594  15.398  0.9153  0.7836 -0.2621
11055TIP3    H254581   0.218   5.663  15.533  0.2482 -0.9498  0.7194
11056TIP3   OH254582   0.435   1.770  14.576 -0.2376  0.0505 -0.0527
11056TIP3    H154583   0.530   1.759  14.567 -0.0833  2.0397 -1.2392
11056TIP3    H254584   0.405   1.685  14.609  2.0223 -0.4187  1.0203
11057TIP3   OH254585   4.002   0.737   0.029  0.1382 -0.3539 -0.4406
11057TIP3    H154586   3.973   0.698  -0.053 -0.5981 -0.2365 -0.2461
11057TIP3    H254587   4.007   0.664   0.090 -0.5522 -0.2597 -0.2624
11058TIP3   OH254588   5.386   6.517  17.191 -0.0246  0.2327 -0.2788
11058TIP3    H154589   5.441   6.527  17.268 -1.1360 -1.5840  0.8324
11058TIP3    H254590   5.436   6.558  17.120  2.4716 -0.7960  0.7728
11059TIP3   OH254591   4.848   1.451  17.233  0.2115  0.0441  0.1200
11059TIP3    H154592   4.900   1.411  17.164 -0.6669  0.3366 -0.7326
11059TIP3    H254593   4.773   1.392  17.244  0.6059 -0.2743  1.1974
11060TIP3   OH254594   4.310   3.311   4.601 -0.4877 -1.0865 -0.1653
11060TIP3    H154595   4.389   3.294   4.652 -1.4687  2.2096  2.8710
11060TIP3    H254596   4.342   3.341   4.516  1.5242 -0.5166  0.7338
11061TIP3   OH254597   5.871   4.575  16.469  0.0093  0.0440 -0.0628
11061TIP3    H154598   5.818   4.501  16.442 -0.5777  1.0115 -1.7162
11061TIP3    H254599   5.809   4.648  16.474  0.5192  0.4117  1.7687
11062TIP3   OH254600   1.956   1.945  13.493  0.4999 -0.3417 -0.1473
11062TIP3    H154601   1.951   1.907  13.405  2.4240  0.8431 -0.8442
11062TIP3    H254602   2.021   1.893  13.538  0.1154 -0.4318  0.3099
11063TIP3   OH254603   3.481   0.962  16.254 -0.1193 -0.0304 -0.1573
11063TIP3    H154604   3.472   1.032  16.190  2.3001 -0.5082 -1.1343
11063TIP3    H254605   3.467   1.005  16.338 -2.1209  0.8701 -0.8950
11064TIP3   OH254606   4.734   2.234   0.369  0.5802 -0.1417 -0.1717
11064TIP3    H154607   4.712   2.327   0.371  0.9673 -0.0566  0.6592
11064TIP3    H254608   4.666   2.194   0.315 -1.9044  0.0371  2.5594
11065TIP3   OH254609   2.528   0.457  15.393 -0.2140  0.4354  0.4164
11065TIP3    H154610   2.535   0.535  15.338  0.2794  1.0794  1.3474
11065TIP3    H254611   2.465   0.401  15.349  0.8077  0.5398 -1.2427
11066TIP3   OH254612   5.792   2.008   5.514 -0.2537 -0.3529 -0.7510
11066TIP3    H154613   5.841   1.960   5.580  0.9487  1.0411 -0.5571
11066TIP3    H254614   5.730   1.945   5.477 -2.1752 -0.7978  2.8258
11067TIP3   OH254615   2.527   2.240  11.165 -0.4760 -0.1361  0.2946
11067TIP3    H154616   2.464   2.226  11.094  0.0830 -0.1525 -0.2005
11067TIP3    H254617   2.488   2.197  11.241 -1.8298  1.1936  0.4146
11068TIP3   OH254618   0.741   0.821   2.653 -0.0070  0.2448  0.8567
11068TIP3    H154619   0.650   0.850   2.650 -0.2674 -0.5413  0.8825
11068TIP3    H254620   0.745   0.750   2.588  0.8004  0.8555  0.2227
11069TIP3   OH254621   4.906   0.706   0.940 -0.3936 -0.7297  0.4195
11069TIP3    H154622   4.869   0.724   0.854  0.9910  0.2579 -0.0104
11069TIP3    H254623   4.992   0.747   0.938  1.0158 -3.4336  1.1639
11070TIP3   OH254624   4.988   2.017   1.003 -0.6595  0.1749  0.5942
11070TIP3    H154625   4.898   2.012   1.036 -0.1281  0.5648  2.1852
11070TIP3    H254626   5.042   2.016   1.082  0.6808  1.4041 -0.2712
11071TIP3   OH254627   1.105   3.331   5.523 -0.3669 -1.0451 -0.2631
11071TIP3    H154628   1.020   3.370   5.543  1.1028  3.3471 -1.5196
11071TIP3    H254629   1.090   3.284   5.440 -1.7386 -1.2464  0.0721
11072TIP3   OH254630   1.505   5.655   0.244 -0.6001 -0.0906 -0.2287
11072TIP3    H154631   1.430   5.709   0.268  0.4215  0.3975  2.1552
11072TIP3    H254632   1.554   5.644   0.326  1.8354 -0.5315 -1.6512
11073TIP3   OH254633   3.717   3.140  12.085  0.0304  0.7425  0.2406
11073TIP3    H154634   3.704   3.180  11.999  2.7200 -0.5521 -0.8772
11073TIP3    H254635   3.674   3.055  12.079  0.8337  0.3533 -0.1064
11074TIP3   OH254636   0.093   6.754  13.294 -0.6781 -0.3857  0.4425
11074TIP3    H154637   0.052   6.824  13.243 -0.2393  0.2265  0.9136
11074TIP3    H254638   0.186   6.776  13.295 -0.1988 -2.0906 -1.1342
11075TIP3   OH254639   6.774   1.259   2.191 -0.3704 -0.3002  0.0084
11075TIP3    H154640   6.752   1.328   2.254 -0.0197 -0.1699 -0.0096
11075TIP3    H254641   6.690   1.234   2.153 -0.4320  0.5699 -0.4553
11076TIP3   OH254642   3.147   6.092   0.032 -0.6321  0.2378 -0.4080
11076TIP3    H154643   3.148   6.041  -0.049 -1.3640 -0.9285  0.2898
11076TIP3    H254644   3.056   6.090   0.060 -0.0652 -1.1594  1.5155
11077TIP3   OH254645   3.894   3.718   2.054  0.4588 -0.2107  0.2064
11077TIP3    H154646   3.921   3.627   2.042 -0.6058 -0.7267  1.4382
11077TIP3    H254647   3.972   3.762   2.088  1.0283 -0.6152 -0.5420
11078TIP3   OH254648   1.792   6.671  11.402 -0.3974 -0.0531  0.1468
11078TIP3    H154649   1.756   6.757  11.382 -0.3987 -0.3220 -1.0589
11078TIP3    H254650   1.725   6.609  11.374 -0.0643 -0.4745  0.2641
11079TIP3   OH254651   3.968   5.143  13.439 -0.4020 -0.4868 -0.3125
11079TIP3    H154652   4.061   5.128  13.427 -0.0020  1.3980  0.1594
11079TIP3    H254653   3.956   5.150  13.533 -0.6876  0.9556 -0.4223
11080TIP3   OH254654   1.114   2.330   4.707  0.2920 -0.0424  0.6531
11080TIP3    H154655   1.178   2.259   4.708  0.8964  0.4913  1.6861
11080TIP3    H254656   1.062   2.314   4.628  1.6489 -0.5305 -0.1842
11081TIP3   OH254657   1.787   0.251  15.649  0.2796 -0.2832  0.1209
11081TIP3    H154658   1.836   0.267  15.730 -0.0915 -0.1752  0.3284
11081TIP3    H254659   1.853   0.225  15.585  0.8127  1.2576 -0.0015
11082TIP3   OH254660   2.648   1.430  14.202  0.0060  0.1570 -0.4663
11082TIP3    H154661   2.725   1.410  14.254  0.8608  1.9134 -0.9779
11082TIP3    H254662   2.668   1.396  14.115 -0.9171 -1.6983  0.0087
11083TIP3   OH254663   4.371   5.175  15.693  1.1088  0.4896 -0.4829
11083TIP3    H154664   4.393   5.150  15.603 -0.4697 -0.3884 -0.6617
11083TIP3    H254665   4.283   5.214  15.686  1.6369  1.9417  0.4622
11084TIP3   OH254666   5.574   4.376   0.023  0.1780  0.2050  0.3090
11084TIP3    H154667   5.590   4.455   0.075  1.2964  0.2103 -0.0329
11084TIP3    H254668   5.484   4.386  -0.007  0.8339  2.2133 -1.1767
11085TIP3   OH254669   4.171   3.831   2.614 -0.0397 -0.1845  0.5532
11085TIP3    H154670   4.251   3.841   2.561  0.5597  1.2674  1.6572
11085TIP3    H254671   4.116   3.772   2.563  1.2100 -0.1999 -0.8577
11086TIP3   OH254672   3.994   1.635  11.442 -0.0703 -0.3812 -0.6216
11086TIP3    H154673   4.055   1.569  11.407  0.1752 -0.6246  0.2516
11086TIP3    H254674   4.001   1.708  11.381 -0.7576 -1.3642 -1.9335
11087TIP3   OH254675   3.909   0.885  16.097  0.2629 -0.3790 -0.2686
11087TIP3    H154676   3.871   0.812  16.147  0.3136  0.4978  1.0901
11087TIP3    H254677   3.849   0.958  16.112  1.3470  0.4464  0.1841
11088TIP3   OH254678   2.679   1.881  11.957  0.0922 -0.6517 -0.1421
11088TIP3    H154679   2.706   1.963  11.998  4.6006 -2.1972  0.5338
11088TIP3    H254680   2.708   1.812  12.017 -0.7189 -2.8297 -2.0588
11089TIP3   OH254681   1.790   3.291   6.094  0.0070 -0.0520  0.3187
11089TIP3    H154682   1.855   3.244   6.146 -0.9126 -0.6058  0.9943
11089TIP3    H254683   1.742   3.343   6.158 -0.1849  0.3883 -0.1840
11090TIP3   OH254684   5.388   4.580  14.942  0.1306  0.2516 -0.2856
11090TIP3    H154685   5.340   4.629  15.009  0.4968  1.4564 -0.8831
11090TIP3    H254686   5.381   4.634  14.863  2.9241  0.7926 -0.2640
11091TIP3   OH254687   0.924   5.972  11.072 -0.0344 -0.0881  0.5755
11091TIP3    H154688   0.857   5.991  11.138 -0.0549  1.3708  0.1774
11091TIP3    H254689   0.995   5.931  11.122 -0.2442  0.5565  1.4457
11092TIP3   OH254690   3.452   5.997  11.663  0.0548  0.2437 -0.2269
11092TIP3    H154691   3.412   6.083  11.662  1.3126  0.8694 -1.5871
11092TIP3    H254692   3.486   5.986  11.574  1.5202 -0.8660  0.4322
11093TIP3   OH254693   3.525   5.860   3.258  0.2192 -0.2823 -0.0778
11093TIP3    H154694   3.527   5.824   3.169  1.7152  1.7150 -0.9365
11093TIP3    H254695   3.616   5.858   3.286 -0.1753 -0.4500  1.2511
11094TIP3   OH254696   4.649   4.745  13.853 -0.6143 -0.2417 -0.5835
11094TIP3    H154697   4.607   4.768  13.771 -2.4494  0.2760  0.4399
11094TIP3    H254698   4.651   4.649  13.853  0.9270 -0.2558 -1.9088
11095TIP3   OH254699   2.509   3.913   1.227  0.3366 -0.3515  0.6445
11095TIP3    H154700   2.465   3.832   1.200 -0.5101  0.2766  0.0774
11095TIP3    H254701   2.595   3.884   1.258  0.2355 -1.4158 -0.0016
11096TIP3   OH254702   3.520   5.201   2.616 -0.2740 -0.0743  0.0058
11096TIP3    H154703   3.558   5.175   2.701  2.0188  1.1219 -0.5783
11096TIP3    H254704   3.523   5.296   2.616 -2.6119  0.0642 -0.4699
11097TIP3   OH254705   6.602   1.449  15.027 -0.5948  0.1645  0.2920
11097TIP3    H154706   6.565   1.532  15.057 -1.1759 -0.4576  1.3921
11097TIP3    H254707   6.536   1.415  14.966 -1.1368 -0.2189  1.0689
11098TIP3   OH254708   4.765   4.649  12.128  0.2499  0.0524  0.5893
11098TIP3    H154709   4.790   4.616  12.215 -0.0664 -0.7547  0.3807
11098TIP3    H254710   4.699   4.587  12.097 -1.0450  1.4109  0.5642
11099TIP3   OH254711   1.012   3.331  12.934 -0.0417  0.4825 -0.3216
11099TIP3    H154712   1.002   3.249  12.885 -2.3502 -0.1086  1.0191
11099TIP3    H254713   1.031   3.303  13.024  0.2066  1.4657 -0.0524
11100TIP3   OH254714   3.846   0.543   1.363 -0.4831 -0.7064  0.1068
11100TIP3    H154715   3.770   0.542   1.305  0.1652  0.4103 -0.8050
11100TIP3    H254716   3.895   0.621   1.336  1.7995 -2.2205 -0.3975
11101TIP3   OH254717   0.674   5.540   1.966  0.1146 -0.4710 -0.1988
11101TIP3    H154718   0.732   5.616   1.973  2.3370 -2.0225 -0.6723
11101TIP3    H254719   0.640   5.528   2.055  0.5286  0.4699  0.1049
11102TIP3   OH254720   0.235   0.223  16.700  0.4811 -0.1114 -0.1868
11102TIP3    H154721   0.245   0.133  16.730 -0.8315 -0.6783 -1.3089
11102TIP3    H254722   0.194   0.268  16.774  0.2389 -0.6873  0.0385
11103TIP3   OH254723   6.086   3.366   1.259  0.4514  0.2895 -0.1521
11103TIP3    H154724   6.064   3.302   1.327 -1.7211 -1.4013 -2.2826
11103TIP3    H254725   6.173   3.340   1.229 -0.2753 -1.5747 -0.7777
11104TIP3   OH254726   4.139   2.127   1.321 -0.7440  0.0757  0.7419
11104TIP3    H154727   4.088   2.203   1.348 -1.7736  0.2256 -1.3908
11104TIP3    H254728   4.095   2.052   1.361 -0.2381  0.4863  2.1330
11105TIP3   OH254729   3.828   3.301  11.806 -0.5368  0.6700  0.1439
11105TIP3    H154730   3.880   3.355  11.866  1.6703 -1.0886 -0.0927
11105TIP3    H254731   3.741   3.342  11.807  0.6138  3.3199  1.1017
11106TIP3   OH254732   4.596   1.222  10.502 -0.3825 -0.6889  0.0713
11106TIP3    H154733   4.501   1.217  10.488 -0.2273 -2.0550 -0.7476
11106TIP3    H254734   4.629   1.262  10.422 -0.4101  1.7210  1.1961
11107TIP3   OH254735   0.759   1.377  16.786 -0.0932 -0.5543 -0.2887
11107TIP3    H154736   0.855   1.370  16.785 -0.0887 -0.4345 -1.1173
11107TIP3    H254737   0.730   1.308  16.726 -0.4367  0.7627 -1.6654
11108TIP3   OH254738   0.180   3.293  14.731 -0.3376  0.1158  0.0384
11108TIP3    H154739   0.158   3.294  14.638  1.3920 -0.0838 -0.4001
11108TIP3    H254740   0.157   3.381  14.762 -2.3183 -0.2736 -0.1973
11109TIP3   OH254741   0.208   0.527   5.669 -0.1126  0.2899 -0.3167
11109TIP3    H154742   0.145   0.527   5.741  0.6334  0.9609  0.3624
11109TIP3    H254743   0.292   0.506   5.711  0.3664  0.9024 -0.9477
11110TIP3   OH254744   5.322   4.170   3.391  0.1698  0.1811 -0.3312
11110TIP3    H154745   5.354   4.231   3.457  0.4835  0.6178 -0.8759
11110TIP3    H254746   5.299   4.091   3.440 -0.8142  0.9286  0.4692
11111TIP3   OH254747   4.129   5.076   5.057 -0.1001 -0.2280  0.2128
11111TIP3    H154748   4.061   5.019   5.095 -1.6253  0.6360 -1.1141
11111TIP3    H254749   4.169   5.023   4.988  0.3883 -0.6212  0.7815
11112TIP3   OH254750   6.583   4.456  15.568 -0.1714  0.1198 -0.5887
11112TIP3    H154751   6.588   4.477  15.661  0.0059 -0.7859 -0.3775
11112TIP3    H254752   6.525   4.522  15.531  1.0724  1.5261 -0.1587
11113TIP3   OH254753   1.537   1.797  11.554  0.5332  0.3012  0.3418
11113TIP3    H154754   1.564   1.877  11.600 -1.0774  1.0666  0.0477
11113TIP3    H254755   1.499   1.742  11.622 -0.8131  0.9589  0.1702
11114TIP3   OH254756   6.665   5.774  15.140  0.3026 -0.1511 -0.1424
11114TIP3    H154757   6.594   5.814  15.190 -0.3749 -1.3794 -0.0699
11114TIP3    H254758   6.625   5.696  15.101  1.3416 -0.2805 -0.9760
11115TIP3   OH254759   4.610   5.007  15.731 -0.2932  0.2374 -0.0334
11115TIP3    H154760   4.515   5.007  15.722 -0.3598  2.0017  0.1791
11115TIP3    H254761   4.632   4.920  15.763 -2.1346  0.6400  2.6610
11116TIP3   OH254762   0.971   2.969  16.599  0.3075 -0.7261 -0.4302
11116TIP3    H154763   1.023   2.980  16.519 -0.2568  0.5379 -0.6526
11116TIP3    H254764   0.909   2.899  16.579 -0.6284  0.3846 -1.5566
11117TIP3   OH254765   2.752   2.224  15.554 -0.3047  0.1047 -0.0101
11117TIP3    H154766   2.770   2.223  15.461  0.7188 -1.5177  0.1768
11117TIP3    H254767   2.666   2.182  15.562  0.3411 -1.2830 -0.1128
11118TIP3   OH254768   2.845   0.456   5.131  0.8423 -0.9056  0.5188
11118TIP3    H154769   2.894   0.511   5.191 -0.8032 -0.6644  1.6959
11118TIP3    H254770   2.912   0.411   5.079  2.3084 -0.9282  2.3423
11119TIP3   OH254771   4.262   5.182  13.875  0.2104  0.6789  0.1010
11119TIP3    H154772   4.320   5.118  13.916  0.2002  0.0753 -0.8164
11119TIP3    H254773   4.319   5.233  13.818 -0.2013 -0.1221 -1.0485
11120TIP3   OH254774   3.372   3.384   1.964 -0.3275 -0.2593  0.5058
11120TIP3    H154775   3.450   3.413   2.011 -1.0414  0.4173  1.3032
11120TIP3    H254776   3.404   3.362   1.876  0.4486  1.9150  0.1767
11121TIP3   OH254777   3.993   5.517  16.345 -0.1818 -0.0628  0.5154
11121TIP3    H154778   4.070   5.460  16.351 -0.5533 -0.4737  1.4367
11121TIP3    H254779   3.922   5.465  16.382 -1.0689  0.0581 -0.9336
11122TIP3   OH254780   4.231   4.842  13.257  0.0749  0.2596  0.3159
11122TIP3    H154781   4.223   4.756  13.297  0.4723 -0.5574 -1.2803
11122TIP3    H254782   4.165   4.842  13.187  3.3283 -0.8146 -3.0854
11123TIP3   OH254783   5.173   2.251   2.567  0.1156 -0.0512 -0.4021
11123TIP3    H154784   5.178   2.231   2.661  0.9226  1.2307 -0.1420
11123TIP3    H254785   5.264   2.257   2.539 -0.1131  0.3692 -1.0868
11124TIP3   OH254786   0.060   0.693   4.494  0.0178  0.2040 -0.8337
11124TIP3    H154787  -0.009   0.734   4.442  1.6005  0.6619 -2.6596
11124TIP3    H254788   0.137   0.697   4.439  1.5160 -0.3602  1.1223
11125TIP3   OH254789   3.574   4.686  10.806  0.2534  0.2677 -0.5451
11125TIP3    H154790   3.483   4.657  10.798  0.4395  0.1232 -2.7353
11125TIP3    H254791   3.575   4.738  10.887 -1.7136  0.0685 -0.3321
11126TIP3   OH254792   5.513   4.036   5.706  0.2691  0.0856  0.3736
11126TIP3    H154793   5.511   3.941   5.719  1.0860  0.1938  1.4650
11126TIP3    H254794   5.605   4.056   5.692  0.1069  0.7268  0.1983
11127TIP3   OH254795   1.544   2.061   0.907 -0.8645  0.3282  0.1791
11127TIP3    H154796   1.539   2.137   0.966 -2.1106  1.5004 -1.3242
11127TIP3    H254797   1.486   2.084   0.835  1.9241 -0.2113 -2.4316
11128TIP3   OH254798   1.980   4.420  11.392  0.5305  0.3050 -0.3732
11128TIP3    H154799   1.885   4.421  11.390  0.4601  1.7685  1.5671
11128TIP3    H254800   2.002   4.352  11.456  0.7476  0.7121 -0.0112
11129TIP3   OH254801   1.065   5.005   5.882 -0.1863 -0.1490  0.6509
11129TIP3    H154802   0.970   5.003   5.865 -0.3114 -1.5828  1.3645
11129TIP3    H254803   1.076   5.075   5.947 -0.4404  1.4958 -1.0035
11130TIP3   OH254804   5.548   0.494   2.462  0.5110  0.3536 -0.1910
11130TIP3    H154805   5.519   0.408   2.494 -1.5765  0.6266 -1.2046
11130TIP3    H254806   5.569   0.478   2.370 -3.0257  1.4611 -1.3455
11131TIP3   OH254807   0.586   6.019  14.830  0.1610  0.5335 -0.1571
11131TIP3    H154808   0.625   5.932  14.837 -0.6363 -0.0079 -1.9535
11131TIP3    H254809   0.502   6.012  14.875 -1.7336 -0.8788 -3.5443
11132TIP3   OH254810   1.479   2.933  13.313  0.3336  0.2097  0.0456
11132TIP3    H154811   1.398   2.885  13.330 -0.5737  1.9936  1.1568
11132TIP3    H254812   1.542   2.898  13.376  1.3502 -3.0115 -2.5032
11133TIP3   OH254813   1.191   6.048  15.010  0.1528  0.0366 -0.0050
11133TIP3    H154814   1.114   6.087  15.051  0.6951  0.6280  0.4605
11133TIP3    H254815   1.183   6.072  14.917 -0.4049 -0.2154 -0.0259
11134TIP3   OH254816   5.726   3.616  12.383  0.4168 -0.7750 -0.0955
11134TIP3    H154817   5.786   3.618  12.307 -1.1860 -1.4508 -1.4367
11134TIP3    H254818   5.666   3.544  12.364 -1.4754  0.5218  0.6939
11135TIP3   OH254819   6.520   4.334   0.672 -0.4450  0.3560 -0.8767
11135TIP3    H154820   6.598   4.338   0.727 -0.9167  2.4342 -0.2800
11135TIP3    H254821   6.468   4.263   0.710 -1.0614  2.1434  1.8912
11136TIP3   OH254822   4.171   4.617  14.827 -0.7044 -0.2818 -0.1511
11136TIP3    H154823   4.234   4.547  14.809  0.3000  0.7183 -0.6891
11136TIP3    H254824   4.208   4.663  14.902 -0.5307  0.6187 -0.7814
11137TIP3   OH254825   1.821   6.242   6.112 -0.5577  0.0412  0.2523
11137TIP3    H154826   1.830   6.156   6.071 -2.2585 -0.1003  0.1029
11137TIP3    H254827   1.871   6.301   6.056 -1.1439 -0.5028 -0.8868
11138TIP3   OH254828   2.141   0.728   2.374  0.0229 -0.3242 -0.4719
11138TIP3    H154829   2.069   0.670   2.395  0.4607 -0.7483 -0.1351
11138TIP3    H254830   2.209   0.671   2.338  0.4248 -0.0155 -0.2168
11139TIP3   OH254831   2.779   5.730   1.200 -0.5374 -0.2650  0.4592
11139TIP3    H154832   2.770   5.824   1.209  0.5575  0.1557 -2.0306
11139TIP3    H254833   2.872   5.716   1.179 -0.4671 -2.0067  1.6433
11140TIP3   OH254834   6.408   6.641  13.249  0.2880  0.7111 -0.0276
11140TIP3    H154835   6.404   6.610  13.339 -3.2723  0.5456 -0.0993
11140TIP3    H254836   6.364   6.726  13.250  0.4024  0.8247 -1.5857
11141TIP3   OH254837   4.534   1.757   2.664  0.4319 -0.0863  0.3791
11141TIP3    H154838   4.581   1.838   2.681 -0.5322  0.7164 -0.6053
11141TIP3    H254839   4.600   1.699   2.625  0.8491  0.6610 -0.0546
11142TIP3   OH254840   1.002   5.908  13.272  0.0964  0.1417 -0.5091
11142TIP3    H154841   1.005   5.989  13.221  0.6134  0.2260 -0.3549
11142TIP3    H254842   0.938   5.853  13.226 -1.3623  1.1680  0.2103
11143TIP3   OH254843   5.638   0.511  11.638  0.1287  0.1932  0.8572
11143TIP3    H154844   5.605   0.446  11.700  0.2995  1.4307  2.3288
11143TIP3    H254845   5.607   0.483  11.553  1.9759 -3.0039  1.0906
11144TIP3   OH254846   0.809   5.476  16.350 -0.0728 -0.3474 -0.6449
11144TIP3    H154847   0.805   5.421  16.272 -0.8636  0.4048 -1.1613
11144TIP3    H254848   0.814   5.565  16.316 -1.9946  0.1031  0.1190
11145TIP3   OH254849   4.921   3.674   6.396 -0.2780  0.3187 -0.3094
11145TIP3    H154850   4.936   3.738   6.327  1.7020  0.2802  0.0477
11145TIP3    H254851   4.966   3.595   6.366 -1.5470 -0.5112 -0.1185
11146TIP3   OH254852   2.764   1.785   5.242  0.6440  0.0374 -0.1859
11146TIP3    H154853   2.844   1.795   5.292  0.8584 -2.0408 -0.0003
11146TIP3    H254854   2.790   1.796   5.151  1.3374 -1.3334 -0.1838
11147TIP3   OH254855   2.015   5.971  16.931  0.3327 -0.3818  0.3363
11147TIP3    H154856   1.943   5.909  16.917  0.1820  0.2036 -1.8044
11147TIP3    H254857   1.972   6.053  16.955  0.3754 -0.4269  0.5666
11148TIP3   OH254858   2.658   4.582   4.952 -0.5832  0.1204  0.2552
11148TIP3    H154859   2.642   4.493   4.983  0.8628  0.0024  0.7705
11148TIP3    H254860   2.717   4.619   5.018  2.3691 -0.0282 -2.0637
11149TIP3   OH254861   0.694   4.710   3.425 -0.3149 -0.0747  0.1779
11149TIP3    H154862   0.755   4.703   3.351  0.1441  0.0467  0.5407
11149TIP3    H254863   0.738   4.663   3.496 -1.5770 -1.8540 -0.1419
11150TIP3   OH254864   1.613   5.232   2.327  0.5294  0.0824  0.8475
11150TIP3    H154865   1.704   5.229   2.356  0.8873 -0.0716 -0.2453
11150TIP3    H254866   1.600   5.322   2.296  0.4668 -0.0450  0.5051
11151TIP3   OH254867   6.770   1.986   5.034  0.7586 -0.5863 -0.0600
11151TIP3    H154868   6.701   1.936   4.991  2.2316 -1.7535 -1.1609
11151TIP3    H254869   6.797   2.051   4.969 -1.1409  1.7980  1.3525
11152TIP3   OH254870   6.226   3.219  10.497  0.2437  0.2260 -0.5718
11152TIP3    H154871   6.321   3.224  10.508  0.1339 -1.0369  1.5775
11152TIP3    H254872   6.211   3.136  10.453  0.1320  0.2405 -0.5630
11153TIP3   OH254873   3.974   2.211  11.592  0.2381 -0.4670  0.3912
11153TIP3    H154874   3.973   2.304  11.570 -1.1956  0.0417  2.2941
11153TIP3    H254875   3.981   2.166  11.508  0.3381  1.3530 -0.6200
11154TIP3   OH254876   2.938   5.156   3.980 -0.4639 -0.3114  0.0938
11154TIP3    H154877   2.958   5.084   3.919  0.8946 -2.2386  2.6393
11154TIP3    H254878   2.850   5.136   4.012 -0.6104 -0.0854 -0.1611
11155TIP3   OH254879   0.403   3.562  14.101 -0.3357  0.1082 -0.1549
11155TIP3    H154880   0.335   3.511  14.146 -0.3664  0.8465  0.6652
11155TIP3    H254881   0.402   3.647  14.145  0.2109  0.5737 -1.0268
11156TIP3   OH254882   4.178   1.699  15.858 -0.0549 -0.0960 -0.0930
11156TIP3    H154883   4.218   1.614  15.879  0.9525  1.0069  3.0120
11156TIP3    H254884   4.084   1.682  15.862 -0.0239 -1.7385 -3.0802
11157TIP3   OH254885   2.684   0.248   0.090 -0.5704  0.3949  0.0688
11157TIP3    H154886   2.747   0.313   0.060 -1.7549  1.8589  0.6131
11157TIP3    H254887   2.599   0.280   0.058 -1.0202 -1.8778 -1.2522
11158TIP3   OH254888   0.617   2.380  11.995 -0.0129  0.7067  0.1064
11158TIP3    H154889   0.570   2.459  12.023  0.3781  0.9157  0.1856
11158TIP3    H254890   0.709   2.400  12.014  0.1524  0.4659 -0.4275
11159TIP3   OH254891   3.373   4.464  15.530 -0.4028 -0.3829 -0.0130
11159TIP3    H154892   3.344   4.510  15.451  0.5962  0.1547 -0.0809
11159TIP3    H254893   3.442   4.519  15.566 -0.8911 -0.5753  1.2932
11160TIP3   OH254894   2.740   5.350  11.804 -0.5235 -0.6193  0.3119
11160TIP3    H154895   2.661   5.307  11.770 -0.4923  0.2115 -0.9084
11160TIP3    H254896   2.716   5.443  11.808  0.1809 -0.4402  0.5674
11161TIP3   OH254897   0.051   3.839  14.106  0.1363  0.2372 -0.3284
11161TIP3    H154898   0.025   3.748  14.090 -1.1386  0.7661 -1.5277
11161TIP3    H254899  -0.023   3.877  14.154 -0.4770  1.2183 -1.9366
11162TIP3   OH254900   5.532   5.878  15.161 -0.2034  0.0573  0.0513
11162TIP3    H154901   5.530   5.813  15.231  1.6498  0.3074  0.3933
11162TIP3    H254902   5.616   5.922  15.172 -0.9733  1.8307 -0.7970
11163TIP3   OH254903   5.528   3.521  17.072 -0.1607 -0.0981  0.9184
11163TIP3    H154904   5.603   3.579  17.055 -1.0534  0.5487 -1.0241
11163TIP3    H254905   5.465   3.576  17.118 -0.7544  0.3360 -0.3753
11164TIP3   OH254906   1.393   5.502   1.576  0.3791  0.2945 -0.5689
11164TIP3    H154907   1.417   5.519   1.485 -1.3019  0.2533 -1.0555
11164TIP3    H254908   1.454   5.434   1.604 -0.8842 -1.8395 -2.6269
11165TIP3   OH254909   3.219   0.896   5.504  0.1065  0.0769  0.5661
11165TIP3    H154910   3.237   0.913   5.597  1.9057 -2.5238  0.7905
11165TIP3    H254911   3.240   0.804   5.492 -0.1367  0.3230 -2.4567
11166TIP3   OH254912   5.589   1.592  10.862  0.1505 -0.3261  0.2162
11166TIP3    H154913   5.649   1.658  10.827  1.0337 -1.0937  0.2457
11166TIP3    H254914   5.646   1.531  10.909 -0.6635 -1.0928  0.2160
11167TIP3   OH254915   4.336   5.673   4.855  0.6027  0.0006 -0.5285
11167TIP3    H154916   4.421   5.710   4.831 -0.1193  2.2145  0.0312
11167TIP3    H254917   4.313   5.617   4.781  2.1591  0.0411 -1.0833
11168TIP3   OH254918   6.503   0.281  15.629  0.3779  0.6272  0.0106
11168TIP3    H154919   6.572   0.241  15.683  0.6300  1.8811  0.6489
11168TIP3    H254920   6.534   0.271  15.539  0.4249 -0.6200  0.1488
11169TIP3   OH254921   2.867   2.879  15.681 -0.2505 -0.3102 -0.3022
11169TIP3    H154922   2.794   2.906  15.625  1.8925  0.1265 -3.0999
11169TIP3    H254923   2.828   2.870  15.768 -3.5716  0.0415 -1.6022
11170TIP3   OH254924   2.156   1.551  12.448 -0.0068 -0.3351 -0.2635
11170TIP3    H154925   2.078   1.503  12.421  0.5475 -1.8755  0.7409
11170TIP3    H254926   2.150   1.556  12.543  0.4292  0.7844 -0.2778
11171TIP3   OH254927   0.121   3.309   5.488  0.2869 -0.4856  0.0286
11171TIP3    H154928   0.140   3.399   5.460  2.3786 -0.8181  0.2700
11171TIP3    H254929   0.146   3.255   5.413 -3.8342 -0.7917 -1.3739
11172TIP3   OH254930   0.130   0.661   2.857 -0.6908  0.0832  0.2897
11172TIP3    H154931   0.121   0.751   2.886 -0.2020 -0.2948  1.6781
11172TIP3    H254932   0.224   0.645   2.853 -0.7728 -0.4254  0.2237
11173TIP3   OH254933   5.248   2.168   2.827  0.1923  1.0151 -0.7907
11173TIP3    H154934   5.228   2.076   2.810  0.2067  0.6857  0.8389
11173TIP3    H254935   5.186   2.195   2.894  1.9043  1.4057  0.7120
11174TIP3   OH254936   1.434   5.418  12.462  0.2149 -0.4424  0.3972
11174TIP3    H154937   1.376   5.342  12.461 -2.7659  1.6484 -0.5245
11174TIP3    H254938   1.415   5.462  12.545 -1.7737  1.6968 -1.0430
11175TIP3   OH254939   4.062   2.228   5.034  0.6653 -0.7055  0.1940
11175TIP3    H154940   4.011   2.152   5.006  2.9950 -1.7219 -1.5755
11175TIP3    H254941   4.153   2.202   5.023  1.5828  1.7610  1.1975
11176TIP3   OH254942   1.532   4.875  14.048  0.3736  0.0951 -0.4471
11176TIP3    H154943   1.558   4.847  14.136 -0.2144  1.4804  0.2061
11176TIP3    H254944   1.573   4.961  14.038  0.1412  0.0987 -1.3897
11177TIP3   OH254945   0.154   1.497   5.062 -0.1069  0.0353 -0.2585
11177TIP3    H154946   0.248   1.481   5.062  0.1080  0.2588  3.8385
11177TIP3    H254947   0.116   1.417   5.097 -1.7339 -0.5861 -3.1120
11178TIP3   OH254948   2.981   5.214  15.797  0.0316 -0.0204  0.1567
11178TIP3    H154949   2.968   5.308  15.786  0.0374  0.4490  3.1714
11178TIP3    H254950   2.920   5.173  15.736  0.6206  1.8889 -1.8150
11179TIP3   OH254951   3.037   1.705  17.103 -0.4967 -0.4167  0.1219
11179TIP3    H154952   2.985   1.634  17.142  1.0293 -1.5871  0.1246
11179TIP3    H254953   3.121   1.702  17.149  0.0412  0.5963 -0.7390
11180TIP3   OH254954   2.043   2.440   2.205 -0.0009 -0.5784  0.2096
11180TIP3    H154955   2.006   2.377   2.144  0.5646 -0.6275 -0.0909
11180TIP3    H254956   1.996   2.425   2.287 -0.8965 -0.3782 -0.2616
11181TIP3   OH254957   6.721   3.913   2.807 -0.0777 -0.1484 -0.0965
11181TIP3    H154958   6.784   3.857   2.852 -0.4454  0.2180  0.8869
11181TIP3    H254959   6.686   3.858   2.737  0.2747 -0.8316  0.2567
11182TIP3   OH254960   4.034   5.284   7.105 -0.5545  0.3865  0.2300
11182TIP3    H154961   3.963   5.245   7.053  0.9538 -0.4422 -1.3259
11182TIP3    H254962   4.060   5.215   7.166 -0.3574  0.2780  0.0266
11183TIP3   OH254963   2.027   0.724  12.979  0.7663  0.3349 -0.0327
11183TIP3    H154964   2.095   0.718  12.912  0.5795  0.0812 -0.2031
11183TIP3    H254965   1.957   0.667  12.947  1.1275 -0.6967  0.9102
11184TIP3   OH254966   0.650   3.542  12.693 -0.5446  0.0627 -0.0073
11184TIP3    H154967   0.606   3.609  12.642  0.5240  1.5691  0.9694
11184TIP3    H254968   0.600   3.539  12.776 -1.2869 -1.2082 -0.4702
11185TIP3   OH254969   0.667   2.960   5.129 -0.3958  0.7790 -0.4745
11185TIP3    H154970   0.609   3.016   5.180 -0.3028 -0.1048  0.6651
11185TIP3    H254971   0.727   2.922   5.194 -0.7661 -0.9930 -1.0999
11186TIP3   OH254972   4.837   1.920   4.384 -0.0721 -0.1272  0.6302
11186TIP3    H154973   4.826   1.839   4.432 -0.4430 -1.1910 -1.1684
11186TIP3    H254974   4.775   1.914   4.312  1.6388  0.6200 -0.9774
11187TIP3   OH254975   2.302   2.780  14.047  0.7978 -0.1392  0.4956
11187TIP3    H154976   2.311   2.872  14.021  2.9892  0.4007  2.8228
11187TIP3    H254977   2.264   2.784  14.135  2.9076 -1.2990  1.5122
11188TIP3   OH254978   5.471   4.722   1.646  0.2264 -0.1849  0.0344
11188TIP3    H154979   5.414   4.790   1.682  0.2527  0.3665 -0.9074
11188TIP3    H254980   5.457   4.646   1.702 -1.6391 -0.1545 -0.3107
11189TIP3   OH254981   5.022   4.012  15.571 -0.4132  0.0558  0.0987
11189TIP3    H154982   4.967   4.060  15.509 -0.0710 -0.0435 -0.2918
11189TIP3    H254983   5.049   4.076  15.636 -1.4881 -0.0286  0.6417
11190TIP3   OH254984   5.773   4.521   3.385  0.0793  0.2611  0.1113
11190TIP3    H154985   5.793   4.471   3.464  1.2022 -1.0688 -0.9667
11190TIP3    H254986   5.678   4.512   3.376  0.2540 -1.9369 -0.1592
11191TIP3   OH254987   4.933   1.678  16.176  0.0052  0.3312  0.2541
11191TIP3    H154988   4.922   1.612  16.244  3.1294  0.1767  0.7671
11191TIP3    H254989   4.870   1.655  16.108 -0.7540 -1.6012  1.5473
11192TIP3   OH254990   6.053   3.817   0.145 -0.0042  0.4878  0.5734
11192TIP3    H154991   6.132   3.871   0.134 -0.1333  0.7013  0.6783
11192TIP3    H254992   6.086   3.730   0.166  0.2400  0.1189 -1.2385
11193TIP3   OH254993   3.938   1.524  12.075 -0.6390  0.1899 -0.2035
11193TIP3    H154994   4.014   1.502  12.021 -0.4583  1.5184 -0.5240
11193TIP3    H254995   3.954   1.615  12.102 -0.6800 -0.4714  2.1761
11194TIP3   OH254996   1.178   5.140  12.166  0.3189  0.4387 -0.3641
11194TIP3    H154997   1.089   5.109  12.148  0.2030  0.9792 -0.7714
11194TIP3    H254998   1.179   5.230  12.132  1.1087  0.3395 -0.6241
11195TIP3   OH254999   1.071   2.963  15.540 -0.8626 -0.2295  0.4172
11195TIP3    H155000   1.145   3.023  15.548  0.1490 -1.1912 -1.1160
11195TIP3    H255001   1.007   3.010  15.488 -1.2523  0.5164  1.5394
11196TIP3   OH255002   2.483   4.865  16.820 -0.2097  0.0754 -0.4168
11196TIP3    H155003   2.550   4.806  16.787 -0.1964 -0.4021  0.4305
11196TIP3    H255004   2.530   4.946  16.841  0.0273 -0.1076 -0.2364
11197TIP3   OH255005   5.071   6.598  12.727 -0.0494  0.1701 -0.2260
11197TIP3    H155006   5.120   6.626  12.805  1.4355  2.0211 -1.7202
11197TIP3    H255007   5.011   6.670  12.709 -0.2698 -0.1695 -0.8690
11198TIP3   OH255008   4.810   2.517   3.828  0.1565 -0.4631  0.3373
11198TIP3    H155009   4.765   2.601   3.833  1.5107  0.3654 -0.6005
11198TIP3    H255010   4.784   2.471   3.908 -0.5349  0.8819  0.9200
11199TIP3   OH255011   3.724   3.916  14.460 -0.0313 -0.0758 -0.4396
11199TIP3    H155012   3.770   3.944  14.380 -1.7286 -0.2017 -1.4933
11199TIP3    H255013   3.704   3.998  14.505  1.3922 -0.0269  0.1607
11200TIP3   OH255014   0.008   3.263   0.891 -0.4844  0.0789 -0.2456
11200TIP3    H155015   0.040   3.249   0.980 -2.9058 -0.6409  0.5677
11200TIP3    H255016   0.011   3.176   0.851  0.2603  0.3397 -0.7886
11201TIP3   OH255017   6.094   2.548   2.686 -0.0618  0.1493  0.7958
11201TIP3    H155018   6.047   2.526   2.767 -1.8362  1.3761  0.1898
11201TIP3    H255019   6.169   2.489   2.684 -1.8980 -2.3922  1.5595
11202TIP3   OH255020   6.235   1.956   0.390 -0.4241 -0.2930  0.9362
11202TIP3    H155021   6.240   1.861   0.386 -0.1625 -0.2459 -1.5556
11202TIP3    H255022   6.325   1.984   0.408  0.0254 -0.4994 -0.8258
11203TIP3   OH255023   1.187   1.489  11.821  0.0213 -0.3922 -0.2942
11203TIP3    H155024   1.148   1.494  11.734 -1.3435  0.0816  0.3104
11203TIP3    H255025   1.134   1.548  11.874  1.3882  0.0272  0.6680
11204TIP3   OH255026   2.617   2.808   1.609 -0.5249 -0.4890 -0.0710
11204TIP3    H155027   2.576   2.724   1.592  1.7666 -1.7373  0.1545
11204TIP3    H255028   2.709   2.796   1.583 -0.0242  1.7843  0.4198
11205TIP3   OH255029   2.709   1.711   2.247  0.1030 -0.4761  0.3379
11205TIP3    H155030   2.617   1.738   2.252  0.0001 -0.1117 -2.1647
11205TIP3    H255031   2.721   1.653   2.322 -1.9980 -0.0700  1.0604
11206TIP3   OH255032   1.494   4.114  16.496 -0.4435  0.1722 -0.3005
11206TIP3    H155033   1.583   4.147  16.504 -0.1351 -0.4769 -0.8877
11206TIP3    H255034   1.444   4.160  16.563  0.3834  0.3814  0.1766
11207TIP3   OH255035   3.656   6.621   0.131  0.0157 -0.3235 -0.1374
11207TIP3    H155036   3.577   6.583   0.093 -0.4481  1.6318 -1.2948
11207TIP3    H255037   3.626   6.662   0.212  0.4267 -1.9442  0.8729
11208TIP3   OH255038   5.101   3.738   3.245 -0.1244  0.2423  0.3238
11208TIP3    H155039   5.009   3.723   3.268 -0.4057 -2.2246 -1.9185
11208TIP3    H255040   5.146   3.660   3.276  0.7596  0.2943 -0.7986
11209TIP3   OH255041   1.186   1.777   2.291  0.1492  0.2832  0.1342
11209TIP3    H155042   1.186   1.682   2.281  2.3886  0.1755  0.5268
11209TIP3    H255043   1.099   1.805   2.261 -0.5540 -1.8652  0.0079
11210TIP3   OH255044   4.355   2.508   3.721 -0.0792 -0.1708 -0.6931
11210TIP3    H155045   4.264   2.519   3.696 -0.0859  3.1870  0.2606
11210TIP3    H255046   4.355   2.518   3.817  1.4715  3.0211 -0.8797
11211TIP3   OH255047   1.931   0.588   3.339  0.1779  0.0539  0.4560
11211TIP3    H155048   1.924   0.557   3.429  2.9751  0.7415  1.0170
11211TIP3    H255049   1.981   0.670   3.346  0.4088  0.1582 -1.7087
11212TIP3   OH255050   4.230   5.781   4.187  0.1768  0.2410  0.1775
11212TIP3    H155051   4.236   5.693   4.152  2.4902  0.2103  0.4726
11212TIP3    H255052   4.151   5.780   4.242 -0.8991 -1.0340 -1.3091
11213TIP3   OH255053   3.478   4.883   4.424 -0.0462 -0.0755  0.3634
11213TIP3    H155054   3.385   4.899   4.407  0.2536  0.2111 -1.1640
11213TIP3    H255055   3.489   4.903   4.517 -1.0811  2.0395  0.0946
11214TIP3   OH255056   2.444   5.375   4.305  0.2223  0.2776 -0.2365
11214TIP3    H155057   2.416   5.288   4.277 -0.8213  0.0486  1.4184
11214TIP3    H255058   2.408   5.385   4.393 -0.7528  2.8633 -0.8283
11215TIP3   OH255059   3.924   4.489  10.967  0.3129 -0.1618  0.3938
11215TIP3    H155060   3.868   4.541  11.025  0.8556 -0.7022  1.4448
11215TIP3    H255061   3.991   4.453  11.025  0.7190 -0.9501 -0.5361
11216TIP3   OH255062   3.689   1.479  12.177  0.3106  0.2946  0.8637
11216TIP3    H155063   3.767   1.465  12.124  0.1686 -0.7396  0.9005
11216TIP3    H255064   3.712   1.549  12.237  1.6829 -0.8584  1.7550
11217TIP3   OH255065   1.909   3.499  15.393 -0.0974  0.2174 -0.6280
11217TIP3    H155066   1.824   3.492  15.438 -0.6818 -1.7981 -1.9446
11217TIP3    H255067   1.947   3.580  15.428 -1.9648  0.4834  0.9847
11218TIP3   OH255068   1.448   4.285  13.517  0.1381  0.8949  0.5929
11218TIP3    H155069   1.484   4.216  13.573 -0.2782 -0.6206 -0.9338
11218TIP3    H255070   1.494   4.365  13.545  0.5997  0.0441  2.4405
11219TIP3   OH255071   3.547   2.895  12.006 -0.6329 -0.9880 -0.2042
11219TIP3    H155072   3.452   2.904  12.006 -0.6922 -1.5804  0.6573
11219TIP3    H255073   3.569   2.883  11.913 -1.4778 -1.7585 -0.3163
11220TIP3   OH255074   1.230   2.098  14.436  0.2984  0.3990  0.6412
11220TIP3    H155075   1.275   2.056  14.364 -0.5990  0.0347  0.2782
11220TIP3    H255076   1.253   2.045  14.513 -0.3060 -0.3914  0.2953
11221TIP3   OH255077   1.201   0.508  16.967  0.2424 -0.0174  0.1283
11221TIP3    H155078   1.179   0.457  17.045 -1.3260  0.3112 -0.0654
11221TIP3    H255079   1.283   0.552  16.990  0.6533 -1.1631  0.9776
11222TIP3   OH255080   1.583   0.163   6.531  0.0945  0.2473  0.0699
11222TIP3    H155081   1.634   0.208   6.598  0.2501  0.7330 -0.3667
11222TIP3    H255082   1.621   0.075   6.526  0.5044  0.4208  0.1550
11223TIP3   OH255083   4.648   1.070   0.576  1.1325  0.5689 -0.3262
11223TIP3    H155084   4.703   1.143   0.550  1.4724  0.3474 -0.2296
11223TIP3    H255085   4.590   1.106   0.642  0.7548  0.9522 -0.8560
11224TIP3   OH255086   2.322   5.979   5.147 -0.0995 -0.0261  0.1024
11224TIP3    H155087   2.370   5.896   5.154  0.4165  0.1421 -1.2402
11224TIP3    H255088   2.251   5.960   5.085 -0.7569  0.2000  0.7668
11225TIP3   OH255089   6.663   2.521   1.958 -0.4621 -0.4173  0.5127
11225TIP3    H155090   6.659   2.497   2.051 -0.9074  1.9604  1.1686
11225TIP3    H255091   6.579   2.493   1.922  0.1576 -2.4202  0.4816
11226TIP3   OH255092   0.863   0.504   1.072  0.1002 -0.0977 -0.6348
11226TIP3    H155093   0.846   0.581   1.018 -1.6222  0.1335  0.1706
11226TIP3    H255094   0.957   0.508   1.091  0.0815  1.7009 -0.7454
11227TIP3   OH255095   1.074   1.254  13.272  0.0765  0.0830  0.1917
11227TIP3    H155096   1.148   1.193  13.274  0.1950  0.2297  0.2975
11227TIP3    H255097   1.104   1.330  13.322  0.0911  0.4132 -0.3134
11228TIP3   OH255098   5.923   5.727  14.498  0.4488 -0.4805  0.3328
11228TIP3    H155099   5.931   5.685  14.412 -3.0658  0.6876 -0.7473
11228TIP3    H255100   5.895   5.817  14.478  2.0752  0.6439  2.6979
11229TIP3   OH255101   4.189   0.246   6.098 -0.2615 -0.7556 -1.1826
11229TIP3    H155102   4.257   0.194   6.142 -0.2952 -0.1943 -0.4511
11229TIP3    H255103   4.207   0.236   6.005 -1.0117 -3.1109 -1.1406
11230TIP3   OH255104   5.532   6.628   1.170 -0.0179 -0.1290  0.0948
11230TIP3    H155105   5.576   6.662   1.093  0.0737  1.0869  0.6640
11230TIP3    H255106   5.597   6.573   1.214  0.2922  0.0963 -0.0878
11231TIP3   OH255107   2.894   3.592  14.787 -0.1651  0.2792  0.0997
11231TIP3    H155108   2.895   3.687  14.801 -1.3889  0.1650  1.1719
11231TIP3    H255109   2.867   3.582  14.696 -0.2274  0.9681  0.0321
11232TIP3   OH255110   5.078   0.632  13.146 -0.4417  0.2453 -0.4588
11232TIP3    H155111   5.026   0.574  13.090 -0.5664  0.1748 -0.2719
11232TIP3    H255112   5.027   0.639  13.227  0.2080 -0.4513  0.0283
11233TIP3   OH255113   1.496   5.260   1.148  0.9482  0.0261  0.0352
11233TIP3    H155114   1.508   5.199   1.221 -0.5993  0.5992  0.8304
11233TIP3    H255115   1.448   5.209   1.082  1.0844 -0.0841  0.0212
11234TIP3   OH255116   1.126   3.428  12.366  0.1316 -0.7528 -0.0822
11234TIP3    H155117   1.208   3.379  12.369  1.0731  0.5519 -2.5869
11234TIP3    H255118   1.145   3.509  12.413 -0.0769 -0.9022  0.2651
11235TIP3   OH255119   4.113   1.633   0.738 -0.3090  0.3430  0.0649
11235TIP3    H155120   4.111   1.728   0.730  0.5935  0.3023 -0.9718
11235TIP3    H255121   4.082   1.615   0.827 -0.7495  1.5827  0.1774
11236TIP3   OH255122   3.904   6.279   6.254 -0.3378 -0.2163  0.5688
11236TIP3    H155123   3.981   6.264   6.309  0.6312  0.8780 -0.4146
11236TIP3    H255124   3.850   6.340   6.305 -0.0523 -0.1725  0.8229
11237TIP3   OH255125   5.683   4.390   6.207 -0.1821  0.2783  0.5325
11237TIP3    H155126   5.590   4.388   6.232 -0.5892 -2.8427 -0.8116
11237TIP3    H255127   5.728   4.345   6.279 -0.5119 -2.8864 -1.0757
11238TIP3   OH255128   5.254   0.223  14.474 -0.1247  0.5126 -0.0822
11238TIP3    H155129   5.250   0.300  14.418  0.5584  0.9939  0.5104
11238TIP3    H255130   5.168   0.220  14.517 -0.4284  0.4931 -0.6813
11239TIP3   OH255131   0.208   5.652   4.838 -0.0201 -0.4895 -0.3251
11239TIP3    H155132   0.153   5.657   4.916  0.1637 -1.3763 -0.1283
11239TIP3    H255133   0.180   5.726   4.785  1.4753  1.5768  1.5971
11240TIP3   OH255134   5.768   2.021  13.888 -0.8205  0.3703  0.2044
11240TIP3    H155135   5.814   2.045  13.968  0.9674  1.9080 -1.1683
11240TIP3    H255136   5.716   2.098  13.865 -0.2120  0.5087 -0.8086
11241TIP3   OH255137   2.481   5.496  14.156 -0.0025  0.1729 -0.0048
11241TIP3    H155138   2.499   5.483  14.249 -0.9271  0.8229  0.2789
11241TIP3    H255139   2.386   5.505  14.150  0.0887  0.7010 -0.9324
11242TIP3   OH255140   4.266   1.271  17.132  0.4265 -0.1785  0.0767
11242TIP3    H155141   4.282   1.330  17.058 -0.3193 -0.3827 -0.2548
11242TIP3    H255142   4.350   1.264  17.176  1.0765 -0.6994 -1.2232
11243TIP3   OH255143   0.552   0.647  12.494  0.2173 -0.0172 -0.0260
11243TIP3    H155144   0.497   0.598  12.555  2.4334 -0.4789  1.7351
11243TIP3    H255145   0.566   0.587  12.421 -2.4012  0.5090 -1.0605
11244TIP3   OH255146   2.367   2.788  13.059  0.7364 -0.3640  0.1412
11244TIP3    H155147   2.463   2.787  13.055  0.7259 -0.1408 -0.1965
11244TIP3    H255148   2.347   2.844  13.134  0.8612  0.2406 -0.2751
11245TIP3   OH255149   1.060   0.689   5.800 -0.1477 -0.1388 -0.5358
11245TIP3    H155150   1.152   0.714   5.794  0.3847 -1.8873 -0.4222
11245TIP3    H255151   1.027   0.695   5.710  0.3021 -0.2411 -0.7066
11246TIP3   OH255152   2.631   6.362   4.566 -0.1800  0.0787 -0.4248
11246TIP3    H155153   2.599   6.337   4.652 -0.8216  1.1123 -0.3515
11246TIP3    H255154   2.655   6.454   4.574 -2.3596  0.8733 -1.8777
11247TIP3   OH255155   2.503   4.272  16.358  0.3009  0.1755 -0.0741
11247TIP3    H155156   2.561   4.215  16.308  0.4943 -0.1702  0.5285
11247TIP3    H255157   2.512   4.241  16.448 -0.8753  0.0824  0.0148
11248TIP3   OH255158   1.815   6.152  16.421  0.0319  0.5148 -0.3949
11248TIP3    H155159   1.863   6.155  16.504 -0.7479 -0.3460  0.1104
11248TIP3    H255160   1.736   6.102  16.442  0.8103 -1.6144 -2.1274
11249TIP3   OH255161   1.153   4.077   4.116  0.2624  0.3576 -0.5096
11249TIP3    H155162   1.210   4.065   4.192  0.7443 -0.5698 -1.0043
11249TIP3    H255163   1.065   4.082   4.153  0.6577  1.9786  0.2730
11250TIP3   OH255164   6.450   0.523  16.332  0.4269  0.1851  0.4538
11250TIP3    H155165   6.484   0.471  16.405 -0.5397 -1.3064 -0.1145
11250TIP3    H255166   6.385   0.467  16.291  0.9382  0.9789 -1.5600
11251TIP3   OH255167   5.141   0.678   3.098  0.5918  0.1894 -0.1816
11251TIP3    H155168   5.082   0.710   3.030 -0.1378 -0.0852  0.3138
11251TIP3    H255169   5.194   0.754   3.122  1.3714  0.1098 -1.5723
11252TIP3   OH255170   2.272   2.583   1.268  0.1281 -0.4560  0.1905
11252TIP3    H155171   2.328   2.605   1.342 -1.7046  0.7154  1.3060
11252TIP3    H255172   2.259   2.666   1.222  0.4080 -0.9760 -0.8588
11253TIP3   OH255173   4.861   4.758  14.187 -0.5051 -0.0208 -0.1850
11253TIP3    H155174   4.943   4.738  14.142  0.1512 -0.0417  0.9717
11253TIP3    H255175   4.836   4.675  14.229  0.0991  0.5102  1.3102
11254TIP3   OH255176   2.769   1.104   5.592  0.4977 -0.0210  0.3330
11254TIP3    H155177   2.697   1.144   5.544  1.5926  1.1301 -0.4206
11254TIP3    H255178   2.780   1.018   5.551  1.3465  0.8979 -1.5163
11255TIP3   OH255179   5.346   5.708  13.211 -0.0724 -0.2428 -0.1960
11255TIP3    H155180   5.275   5.707  13.275  0.6103 -0.6591  0.5771
11255TIP3    H255181   5.423   5.735  13.261  0.2666  0.5324 -1.0874
11256TIP3   OH255182   6.246   5.231   6.319  0.5416 -0.5771  0.6914
11256TIP3    H155183   6.214   5.236   6.410  1.3401  0.5052  0.9348
11256TIP3    H255184   6.272   5.321   6.298 -0.1652 -0.7032 -0.8212
11257TIP3   OH255185   1.696   4.921   6.299  0.5460 -0.5054  0.5426
11257TIP3    H155186   1.738   4.836   6.286  0.1662 -0.5449 -0.4930
11257TIP3    H255187   1.768   4.983   6.309  0.8293 -0.8515  0.6466
11258TIP3   OH255188   2.597   2.584   1.963  0.2194  0.2426 -0.1868
11258TIP3    H155189   2.539   2.661   1.971  1.8778  1.5209  0.0789
11258TIP3    H255190   2.651   2.587   2.042  0.3545 -1.1805 -0.2122
11259TIP3   OH255191   3.244   5.989   3.659  0.6545  0.1092 -0.0077
11259TIP3    H155192   3.321   6.024   3.703  0.1164  0.8787  0.3507
11259TIP3    H255193   3.175   5.990   3.726  0.1377  0.1609 -0.5322
11260TIP3   OH255194   5.647   4.507  13.073  0.3868  0.1201 -0.2210
11260TIP3    H155195   5.605   4.591  13.055  0.6707  0.7512  1.8527
11260TIP3    H255196   5.677   4.477  12.987  2.2434  3.1975 -0.7834
11261TIP3   OH255197   6.603   1.712  11.955 -0.1754 -0.2034  0.1269
11261TIP3    H155198   6.589   1.653  11.881  0.0223  0.7499 -0.6848
11261TIP3    H255199   6.636   1.655  12.025 -0.8596 -1.1984 -0.3425
11262TIP3   OH255200   4.901   1.964   5.810  0.9391  0.5453  0.1827
11262TIP3    H155201   4.899   2.011   5.727  0.0159  0.7534  0.3149
11262TIP3    H255202   4.963   2.013   5.864  1.1982  0.6723 -0.2268
11263TIP3   OH255203   3.876   6.744  13.157  0.3275 -0.6259  0.1237
11263TIP3    H155204   3.964   6.708  13.170 -0.2764 -1.4168  2.5491
11263TIP3    H255205   3.820   6.667  13.147 -0.3889 -0.2111  0.8646
11264TIP3   OH255206   2.803   1.648   1.286  0.1485 -0.1357  0.0978
11264TIP3    H155207   2.799   1.740   1.314  0.2728 -0.3287  0.7624
11264TIP3    H255208   2.772   1.598   1.361  0.6557 -0.6764 -0.0438
11265TIP3   OH255209   0.396   4.135  11.804 -0.0764  0.5207  0.0644
11265TIP3    H155210   0.411   4.219  11.847  0.1639  0.4924  0.0375
11265TIP3    H255211   0.450   4.073  11.853  0.0744  0.4595 -0.1765
11266TIP3   OH255212   2.090   4.280  14.639  0.3752  0.5041  0.5383
11266TIP3    H155213   2.067   4.340  14.709  2.1120  0.5128  1.1645
11266TIP3    H255214   2.184   4.265  14.651 -0.0019 -2.3967  0.4360
11267TIP3   OH255215   0.469   1.381   3.165  0.4763 -0.0939  0.0708
11267TIP3    H155216   0.410   1.308   3.185  1.0340 -0.7221 -0.5186
11267TIP3    H255217   0.418   1.459   3.184 -0.4986 -0.6253 -0.2857
11268TIP3   OH255218   1.423   0.086  17.291  0.2652  0.3883 -0.2819
11268TIP3    H155219   1.498   0.037  17.257  0.8212  0.2659  1.0415
11268TIP3    H255220   1.457   0.131  17.369 -1.4554 -1.2449  1.5425
11269TIP3   OH255221   3.445   1.990   5.319  0.8184 -0.2494 -0.6099
11269TIP3    H155222   3.514   2.045   5.356 -1.4570  1.9329  0.6707
11269TIP3    H255223   3.435   2.020   5.229 -0.3693  1.5223  0.0640
11270TIP3   OH255224   6.379   5.159  17.293  0.1534 -0.1737 -0.3545
11270TIP3    H155225   6.351   5.184  17.205  0.3274 -0.7588 -0.5834
11270TIP3    H255226   6.318   5.089  17.319 -0.3023  0.4337  0.2575
11271TIP3   OH255227   0.162   2.359   5.303 -0.1218  0.3109  0.0688
11271TIP3    H155228   0.229   2.359   5.371 -0.1360  1.2926  0.1025
11271TIP3    H255229   0.101   2.428   5.330 -0.8335 -0.1717 -0.2661
11272TIP3   OH255230   6.573   2.321   4.605 -0.2895  0.3262 -0.5626
11272TIP3    H155231   6.513   2.360   4.667  3.0902  1.1935  2.5176
11272TIP3    H255232   6.557   2.227   4.612 -0.4048  0.4471  1.2473
11273TIP3   OH255233   4.638   5.402  14.032  0.2548  0.0022  0.3528
11273TIP3    H155234   4.681   5.379  13.950 -0.2503  0.5934 -0.0829
11273TIP3    H255235   4.596   5.320  14.061  1.0786 -0.4009  0.4300
11274TIP3   OH255236   6.289   6.486   4.373  0.2138  0.2826 -0.1482
11274TIP3    H155237   6.337   6.450   4.298 -0.3017 -1.5404  0.3622
11274TIP3    H255238   6.298   6.420   4.442 -0.7278  1.1635  0.8613
11275TIP3   OH255239   0.424   4.350  11.956  0.1597  0.1760 -0.8973
11275TIP3    H155240   0.468   4.411  12.016  2.7930  1.0805 -3.5072
11275TIP3    H255241   0.344   4.395  11.930  0.3228  0.9487 -0.1082
11276TIP3   OH255242   2.259   0.551  16.765  0.0436  0.3412 -0.2036
11276TIP3    H155243   2.287   0.483  16.703 -0.5990  0.3010 -0.4586
11276TIP3    H255244   2.195   0.507  16.821  1.3702  0.0850  1.1804
11277TIP3   OH255245   2.798   0.777  16.091  0.3424  0.5077 -0.6590
11277TIP3    H155246   2.856   0.847  16.122 -0.0756  1.0590 -1.0899
11277TIP3    H255247   2.856   0.704  16.072  0.6772  0.3368  0.8762
11278TIP3   OH255248   1.535   0.755   1.409  0.1623  0.1153  0.2501
11278TIP3    H155249   1.586   0.720   1.481  1.2977  0.6039 -0.2928
11278TIP3    H255250   1.522   0.847   1.430 -0.0080  0.1271  0.1056
11279TIP3   OH255251   4.600   5.005  16.248 -0.6185 -0.2142 -0.2609
11279TIP3    H155252   4.548   5.010  16.327  2.0205 -2.6377  1.8621
11279TIP3    H255253   4.661   5.078  16.253 -0.6164 -0.2231 -0.1731
11280TIP3   OH255254   6.375   4.221   3.424  0.6878  0.1622  0.1149
11280TIP3    H155255   6.311   4.155   3.451 -1.7166  2.1550 -0.4062
11280TIP3    H255256   6.397   4.196   3.334 -1.1142  0.6686 -0.5077
11281TIP3   OH255257   6.423   4.933  13.393  0.1770 -0.6626 -0.4493
11281TIP3    H155258   6.399   4.952  13.484 -0.1959 -0.6430 -0.5501
11281TIP3    H255259   6.509   4.973  13.382 -0.3158  0.4214 -0.4649
11282TIP3   OH255260   2.136   0.339   1.394  0.0100 -0.6091  0.0793
11282TIP3    H155261   2.073   0.299   1.334  0.2386  0.3280 -0.8126
11282TIP3    H255262   2.125   0.433   1.381  2.3849 -0.4170 -0.9732
11283TIP3   OH255263   0.280   6.006  13.464  0.4765 -0.1588 -0.1005
11283TIP3    H155264   0.361   5.984  13.511 -0.1063  0.1995  1.0928
11283TIP3    H255265   0.245   6.082  13.511 -0.2494  0.0634 -0.9803
11284TIP3   OH255266   4.410   2.407  14.340 -0.3684  0.1121  0.1697
11284TIP3    H155267   4.456   2.328  14.368 -0.2256  0.0232 -0.2971
11284TIP3    H255268   4.400   2.396  14.245  1.5697  1.6366 -0.2610
11285TIP3   OH255269   6.418   4.396  12.674 -0.0363  0.4509 -0.1477
11285TIP3    H155270   6.329   4.372  12.696 -0.0572  0.2964 -0.3971
11285TIP3    H255271   6.473   4.347  12.736 -0.0542 -0.6129 -0.9370
11286TIP3   OH255272   5.711   5.063   3.611  0.2910  0.4378 -1.1754
11286TIP3    H155273   5.804   5.072   3.589 -0.1443  1.7065 -2.7132
11286TIP3    H255274   5.702   5.106   3.695  1.3699 -1.2119 -0.1566
11287TIP3   OH255275   4.701   5.744  17.074  0.8785  0.1290 -0.0182
11287TIP3    H155276   4.757   5.800  17.021  1.8399 -0.3623  0.4611
11287TIP3    H255277   4.673   5.674  17.014  1.2108  0.0794 -0.1166
11288TIP3   OH255278   1.551   1.505  10.986  0.1342 -0.2234 -0.2614
11288TIP3    H155279   1.495   1.582  10.983  0.1485 -0.1141  1.2654
11288TIP3    H255280   1.632   1.537  11.027  2.3863  0.2194 -4.5637
11289TIP3   OH255281   0.736   2.258   4.025  0.7180 -0.1455 -0.0614
11289TIP3    H155282   0.747   2.320   3.954  0.6424 -0.6082 -0.4838
11289TIP3    H255283   0.643   2.235   4.023  0.9742 -1.1877 -0.6915
11290TIP3   OH255284   6.266   3.087   6.325  0.5401 -0.0990  0.0186
11290TIP3    H155285   6.257   2.992   6.314 -0.1824 -0.4055  2.5367
11290TIP3    H255286   6.330   3.097   6.395  0.2749  1.2599  0.0977
11291TIP3   OH255287   6.000   6.455  16.567  0.6985 -0.5180  0.0039
11291TIP3    H155288   6.093   6.466  16.587  0.3788  1.3870  0.6712
11291TIP3    H255289   5.995   6.462  16.472  1.3288 -1.6019 -0.1247
11292TIP3   OH255290   6.099   3.184  11.813  0.0065 -0.6764  0.4159
11292TIP3    H155291   6.062   3.151  11.732  1.9146  0.0005 -0.8123
11292TIP3    H255292   6.186   3.144  11.818  0.7399  0.8908  1.0204
11293TIP3   OH255293   2.648   4.715   3.534  0.9730 -0.2370 -0.2989
11293TIP3    H155294   2.716   4.706   3.468  0.5582  0.9311 -0.9075
11293TIP3    H255295   2.622   4.807   3.530 -0.0143 -0.4571  0.5450
11294TIP3   OH255296   6.296   3.941   0.148 -0.0993  0.0880 -0.2792
11294TIP3    H155297   6.386   3.972   0.139  0.2902 -0.5242  1.2190
11294TIP3    H255298   6.273   3.961   0.239 -0.4691 -2.2733  0.2099
11295TIP3   OH255299   6.724   6.499  12.564 -0.1706  0.3878  0.5751
11295TIP3    H155300   6.714   6.454  12.648 -0.3235  1.4709  1.1598
11295TIP3    H255301   6.667   6.451  12.504  0.7499 -1.0486  0.8100
11296TIP3   OH255302   3.253   4.339   0.356 -0.5645  0.5340 -0.1189
11296TIP3    H155303   3.298   4.275   0.411  2.5143  2.7139  0.1917
11296TIP3    H255304   3.160   4.327   0.374  0.0665 -1.9050  2.0030
11297TIP3   OH255305   4.885   1.302  14.952  0.1554 -0.3144  0.3261
11297TIP3    H155306   4.916   1.305  15.042 -1.7980 -0.1658  1.0380
11297TIP3    H255307   4.954   1.344  14.901 -0.4388  3.4718  2.3024
11298TIP3   OH255308   0.975   1.191   4.391 -0.0355  0.0506  0.4386
11298TIP3    H155309   0.981   1.096   4.389 -1.3721 -0.0459 -1.0832
11298TIP3    H255310   0.957   1.212   4.483  2.5272 -0.9465  1.2457
11299TIP3   OH255311   5.545   4.709  12.931  0.1114  0.1305 -0.1473
11299TIP3    H155312   5.463   4.749  12.961  0.5874  0.9112  0.1237
11299TIP3    H255313   5.525   4.676  12.844 -0.2707  1.0114 -0.4021
11300TIP3   OH255314   0.327   3.944   3.418 -0.6770  0.4859  0.1361
11300TIP3    H155315   0.379   3.954   3.497 -1.3572 -0.3301  0.7019
11300TIP3    H255316   0.391   3.937   3.347 -0.0212 -0.6177  0.8334
11301TIP3   OH255317   3.671   0.676  15.700 -0.1719 -0.2927  0.2372
11301TIP3    H155318   3.752   0.663  15.751 -0.3621  0.5675  0.7757
11301TIP3    H255319   3.641   0.587  15.681  0.5875 -0.6269  0.5455
11302TIP3   OH255320   1.691   5.859   5.510  0.3570  0.7854  0.6365
11302TIP3    H155321   1.778   5.821   5.493  0.4609  0.6527  1.4058
11302TIP3    H255322   1.702   5.952   5.493 -0.1119  0.4262 -2.0971
11303TIP3   OH255323   2.891   3.324   3.912 -0.3595  0.7462 -0.4099
11303TIP3    H155324   2.812   3.319   3.965 -0.5844  2.3156 -0.5598
11303TIP3    H255325   2.864   3.291   3.826 -0.9260  1.4739 -0.5207
11304TIP3   OH255326   5.130   5.542   1.583 -0.1023 -0.0151 -0.7637
11304TIP3    H155327   5.039   5.549   1.552 -0.6069 -0.4989  0.5465
11304TIP3    H255328   5.178   5.608   1.532 -0.6606 -1.4209 -3.3028
11305TIP3   OH255329   0.746   5.391  13.100 -0.4249  0.4281  0.2180
11305TIP3    H155330   0.796   5.329  13.048  0.3460 -0.1371  1.5915
11305TIP3    H255331   0.725   5.462  13.039  2.9086  1.2080 -0.2383
11306TIP3   OH255332   5.250   1.646   4.609  0.2841  0.4799  0.0171
11306TIP3    H155333   5.223   1.600   4.688  1.0796 -1.0637 -0.5632
11306TIP3    H255334   5.176   1.703   4.587 -0.2294  0.4021  1.4573
11307TIP3   OH255335   1.475   4.687   0.614  0.4330 -0.0698 -0.8530
11307TIP3    H155336   1.484   4.659   0.705  1.0975  0.3405 -0.7918
11307TIP3    H255337   1.554   4.737   0.596  0.7515 -0.9327 -1.9459
11308TIP3   OH255338   1.602   3.023  11.761  0.0974  0.3275 -0.1855
11308TIP3    H155339   1.627   2.958  11.827 -2.5131 -0.3156  0.2727
11308TIP3    H255340   1.594   2.973  11.680 -1.7202  0.0415  0.1265
11309TIP3   OH255341   2.181   2.996   4.969 -0.6387 -0.1004 -0.0661
11309TIP3    H155342   2.180   2.960   4.880  1.0654 -2.5227  0.7990
11309TIP3    H255343   2.102   2.961   5.010 -0.0393 -1.2338  0.1518
11310TIP3   OH255344   5.445   4.693  13.898 -0.0526  0.1943 -0.1873
11310TIP3    H155345   5.468   4.661  13.811  2.5606 -2.1603  1.2332
11310TIP3    H255346   5.358   4.657  13.915  0.1503 -0.7731 -1.1371
11311TIP3   OH255347   1.640   3.724   0.908 -0.2343 -0.8071 -0.3002
11311TIP3    H155348   1.588   3.778   0.967  1.0996  0.2335 -0.0204
11311TIP3    H255349   1.583   3.709   0.832 -0.7586  0.7317 -0.2386
11312TIP3   OH255350   6.403   3.924   2.057 -0.9490  0.4271  0.0645
11312TIP3    H155351   6.376   3.868   1.984  2.4264  0.7478 -1.6209
11312TIP3    H255352   6.460   3.868   2.110  0.4958  1.5178 -0.2908
11313TIP3   OH255353   6.315   1.959  10.923  0.1076 -0.1144 -0.3889
11313TIP3    H155354   6.241   1.899  10.915 -0.5060  0.5370  0.1773
11313TIP3    H255355   6.276   2.041  10.953  0.9410  0.5293 -0.9917
11314TIP3   OH255356   4.727   2.965   1.393  0.0005  0.3154 -0.0086
11314TIP3    H155357   4.775   2.906   1.335 -1.2969  0.6592 -1.4992
11314TIP3    H255358   4.784   3.041   1.403  1.4012 -0.8579  1.4033
11315TIP3   OH255359   4.615   1.788  14.463 -0.0668  0.2296  0.3131
11315TIP3    H155360   4.536   1.834  14.492 -0.5036 -1.0767  1.2670
11315TIP3    H255361   4.629   1.720  14.528  1.8331  0.3867  0.1365
11316TIP3   OH255362   2.254   0.212   5.480  0.4063 -0.3333  0.3086
11316TIP3    H155363   2.316   0.261   5.426 -1.3442  3.1990  1.2278
11316TIP3    H255364   2.172   0.216   5.432 -0.3283 -0.3281  1.5249
11317TIP3   OH255365   4.617   4.915   2.881  0.0571  0.2665 -0.2934
11317TIP3    H155366   4.691   4.961   2.840  0.6960 -1.1513 -0.8042
11317TIP3    H255367   4.540   4.950   2.837  0.6126  0.0485 -1.4793
11318TIP3   OH255368   2.676   5.444   6.515 -0.6801  0.1450 -0.5783
11318TIP3    H155369   2.654   5.519   6.570 -0.7633  0.0711 -0.5099
11318TIP3    H255370   2.762   5.465   6.478 -0.8513  0.4228 -0.8225
11319TIP3   OH255371   3.912   1.879  12.492 -0.1619 -0.2362  0.3925
11319TIP3    H155372   3.864   1.868  12.411 -0.8876  0.0611  0.7770
11319TIP3    H255373   3.856   1.935  12.546  0.7071  0.2932  0.7646
11320TIP3   OH255374   6.515   1.424  11.083  0.4453  0.3549  0.6914
11320TIP3    H155375   6.582   1.482  11.117  0.0871  1.4181 -0.3582
11320TIP3    H255376   6.459   1.480  11.029 -0.1559 -0.8823 -0.0166
11321TIP3   OH255377   0.254   0.263  11.572  0.3988  0.8031 -0.4312
11321TIP3    H155378   0.212   0.247  11.657  0.9597 -0.2739 -0.3407
11321TIP3    H255379   0.208   0.205  11.511  2.7378 -1.7069 -0.0219
11322TIP3   OH255380   1.996   6.416   3.824  0.5404 -0.2524  0.4691
11322TIP3    H155381   2.017   6.323   3.831 -0.7568 -0.5122  1.3310
11322TIP3    H255382   2.037   6.444   3.742  1.3113 -1.4773  0.4153
11323TIP3   OH255383   1.933   2.411  11.962  0.2573  0.0970  0.4964
11323TIP3    H155384   1.906   2.327  11.925  5.0413 -1.7505  0.5756
11323TIP3    H255385   1.957   2.392  12.052  0.4094  1.8584  0.8708
11324TIP3   OH255386   1.877   6.138  13.546  0.1762  0.1211 -0.0811
11324TIP3    H155387   1.855   6.082  13.620 -1.8876 -0.6786 -1.2320
11324TIP3    H255388   1.946   6.091  13.499 -2.5288 -2.4168 -1.8861
11325TIP3   OH255389   0.863   3.894  17.001 -0.0525 -0.0289  0.2127
11325TIP3    H155390   0.898   3.966  17.054 -1.3520  0.2350  0.7524
11325TIP3    H255391   0.851   3.931  16.914 -0.5863  0.3843  0.4534
11326TIP3   OH255392   5.219   4.157  12.666  0.6410  0.6126 -0.2975
11326TIP3    H155393   5.278   4.117  12.602  0.9867  1.8899 -0.8227
11326TIP3    H255394   5.277   4.207  12.723  0.3157 -0.4028  0.9633
11327TIP3   OH255395   3.575   3.031  12.541 -0.7727 -0.3477 -0.1560
11327TIP3    H155396   3.647   2.992  12.492  0.0889  1.1349 -0.1075
11327TIP3    H255397   3.502   2.970  12.528  0.1466 -1.2816 -1.1582
11328TIP3   OH255398   5.864   5.516  16.355 -0.2172  0.6288  0.2112
11328TIP3    H155399   5.825   5.600  16.328 -1.7047 -0.2375 -0.4906
11328TIP3    H255400   5.943   5.509  16.301 -0.4253  1.2877 -0.2027
11329TIP3   OH255401   4.392   1.373  12.922 -0.3261 -0.6215 -0.4599
11329TIP3    H155402   4.368   1.281  12.927 -0.4046 -0.6197 -0.8207
11329TIP3    H255403   4.488   1.372  12.913 -0.4323 -0.7057 -1.6721
11330TIP3   OH255404   6.627   3.733   2.017  0.1758  0.0826  0.1226
11330TIP3    H155405   6.563   3.667   1.990  1.3069 -0.5954 -0.9931
11330TIP3    H255406   6.696   3.683   2.061 -0.1491  0.8342  1.5658
11331TIP3   OH255407   1.527   3.049   2.435 -0.2795  0.1884 -0.4527
11331TIP3    H155408   1.464   3.011   2.496 -1.4700 -1.3329 -2.5141
11331TIP3    H255409   1.610   3.007   2.457 -0.7621 -0.5913 -0.1034
11332TIP3   OH255410   1.944   2.510  17.013 -0.2286  0.0026  0.4299
11332TIP3    H155411   2.011   2.542  16.952 -0.8611  2.1108  0.7664
11332TIP3    H255412   1.865   2.558  16.989 -1.1606 -1.0958  1.2354
11333TIP3   OH255413   6.230   2.137   0.206  0.2040  0.7449 -0.2248
11333TIP3    H155414   6.213   2.084   0.284 -0.4373  1.1721 -0.0633
11333TIP3    H255415   6.148   2.184   0.191 -0.1719 -0.3754 -1.9825
11334TIP3   OH255416   3.530   6.762   2.442  0.3329  0.2166  0.2450
11334TIP3    H155417   3.449   6.717   2.468 -0.2898  1.5318  0.6815
11334TIP3    H255418   3.596   6.693   2.439 -0.4091 -0.6086  1.6549
11335TIP3   OH255419   3.268   1.172   2.993 -0.1538  0.1086  0.2132
11335TIP3    H155420   3.266   1.171   3.089 -0.0257 -0.9233  0.2174
11335TIP3    H255421   3.196   1.230   2.968  0.0480  0.6807  0.9349
11336TIP3   OH255422   2.806   4.425   1.975 -0.2939  0.0456  0.3275
11336TIP3    H155423   2.869   4.404   1.906 -0.4676  1.1073 -0.1776
11336TIP3    H255424   2.725   4.444   1.928 -0.8788 -0.8978  0.9482
11337TIP3   OH255425   0.487   5.041   0.958 -0.2427 -0.4601  0.1164
11337TIP3    H155426   0.492   5.137   0.967 -0.8203 -0.5800  2.2905
11337TIP3    H255427   0.451   5.027   0.871  0.1685  1.2928 -0.3852
11338TIP3   OH255428   1.443   4.896   0.876 -0.1849  0.4197  0.2231
11338TIP3    H155429   1.508   4.954   0.836 -0.9922  1.1824 -0.0111
11338TIP3    H255430   1.478   4.808   0.862 -0.3305  0.6579 -2.0149
11339TIP3   OH255431   0.157   6.227  15.203 -0.4736 -0.0137 -0.1505
11339TIP3    H155432   0.250   6.231  15.224 -0.7776 -0.2731  1.4129
11339TIP3    H255433   0.143   6.139  15.169 -0.3601 -0.4108  0.8100
11340TIP3   OH255434   5.408   2.788  15.848 -0.3212 -0.4513  0.7717
11340TIP3    H155435   5.401   2.884  15.853 -1.8959 -0.5832  1.8335
11340TIP3    H255436   5.396   2.768  15.756 -0.6145  0.3498  0.6229
11341TIP3   OH255437   3.685   6.711   6.124 -0.7020  0.2346 -0.3835
11341TIP3    H155438   3.757   6.675   6.073  2.1457  0.0317  3.3755
11341TIP3    H255439   3.613   6.650   6.111  0.2606 -0.4389 -3.0464
11342TIP3   OH255440   1.074   3.065   0.722 -0.1958  0.1106  0.1028
11342TIP3    H155441   1.162   3.046   0.756 -0.5292 -1.7523 -0.0117
11342TIP3    H255442   1.073   3.028   0.634 -1.0441  0.2611  0.0380
11343TIP3   OH255443   3.099   3.349   4.105 -0.6580 -0.1481  0.3609
11343TIP3    H155444   3.031   3.340   4.038  1.0446  1.2298 -1.6937
11343TIP3    H255445   3.181   3.348   4.056  0.8674 -1.6735  2.7397
11344TIP3   OH255446   4.890   0.638   1.393 -0.3748  0.0180  0.2386
11344TIP3    H155447   4.877   0.726   1.357  0.3437  0.7619  1.7040
11344TIP3    H255448   4.815   0.625   1.451  0.4410  0.4456  1.4290
11345TIP3   OH255449   0.693   1.548  12.603  0.0404  0.1152  0.2267
11345TIP3    H155450   0.763   1.538  12.538  1.7312  1.1115  1.7728
11345TIP3    H255451   0.694   1.642  12.624 -2.4342  0.3341 -0.3601
11346TIP3   OH255452   0.051   2.549  15.519  0.7467  0.2933  0.1929
11346TIP3    H155453   0.073   2.463  15.483 -0.0796  0.3854 -0.5657
11346TIP3    H255454   0.058   2.609  15.445 -0.6811  0.5400  0.2232
11347TIP3   OH255455   5.542   5.503  17.126 -0.3198  0.1135 -0.1588
11347TIP3    H155456   5.564   5.579  17.073 -0.5979 -0.6674 -1.4373
11347TIP3    H255457   5.546   5.429  17.065  0.8086 -1.0315  1.2349
11348TIP3   OH255458   0.178   4.533  15.544 -0.0090  0.2252 -0.0265
11348TIP3    H155459   0.220   4.612  15.511 -2.0582  1.7099  0.7435
11348TIP3    H255460   0.248   4.467  15.542  1.8279  2.0645 -0.5174
11349TIP3   OH255461   4.690   6.204  12.735  0.0549 -0.8803  0.1221
11349TIP3    H155462   4.751   6.270  12.768  0.9346 -1.0416 -1.1001
11349TIP3    H255463   4.676   6.146  12.809  0.3953 -0.1251  0.7978
11350TIP3   OH255464   0.231   2.588  11.305 -0.2781  0.0268  0.3580
11350TIP3    H155465   0.206   2.547  11.223  1.4933 -0.2027 -0.0988
11350TIP3    H255466   0.322   2.613  11.293 -0.4301  1.4041  1.7068
11351TIP3   OH255467   4.648   4.396   4.620 -0.1096 -0.3405  0.1397
11351TIP3    H155468   4.631   4.445   4.540  3.5016  1.9586  0.5364
11351TIP3    H255469   4.698   4.319   4.591  0.7591  0.2308  0.0674
11352TIP3   OH255470   4.318   3.635   0.067 -0.2028  0.2567  0.0421
11352TIP3    H155471   4.272   3.609  -0.013  0.6763 -2.4565  0.3350
11352TIP3    H255472   4.341   3.553   0.110  2.3272  1.5452  1.3767
11353TIP3   OH255473   6.694   5.598   5.726 -0.1635  0.1061  0.0960
11353TIP3    H155474   6.668   5.582   5.635  0.7687  0.6462 -0.2825
11353TIP3    H255475   6.753   5.525   5.747  0.5236  0.5869 -0.1258
11354TIP3   OH255476   6.530   5.156   4.145 -0.1396  0.1762  0.6044
11354TIP3    H155477   6.592   5.181   4.077  0.1584 -0.6523  0.5564
11354TIP3    H255478   6.446   5.192   4.117  0.0522  0.1400 -0.0192
11355TIP3   OH255479   2.545   6.680   5.020  0.2053 -0.5552  0.4875
11355TIP3    H155480   2.547   6.590   5.053 -2.3645 -1.1378 -0.6477
11355TIP3    H255481   2.513   6.732   5.094 -0.6050 -1.0067  0.4701
11356TIP3   OH255482   6.335   2.115   5.305  0.1317 -0.3586 -0.3108
11356TIP3    H155483   6.346   2.025   5.333 -0.3709 -0.0741  0.8711
11356TIP3    H255484   6.412   2.133   5.251 -0.2381 -1.7660 -1.3545
11357TIP3   OH255485   3.398   4.698  11.978 -0.3655  0.4831  0.2743
11357TIP3    H155486   3.493   4.694  11.991 -0.5331  1.2018  1.9483
11357TIP3    H255487   3.377   4.791  11.986 -1.1928  0.3572 -0.3400
11358TIP3   OH255488   4.407   0.669  11.738  0.2963  0.5661 -0.0470
11358TIP3    H155489   4.340   0.650  11.673  0.9267  1.6502 -1.0579
11358TIP3    H255490   4.360   0.665  11.822 -0.2689 -2.0585 -0.3964
11359TIP3   OH255491   1.438   3.600  10.183  0.5729  0.3009  0.3312
11359TIP3    H155492   1.502   3.551  10.234  3.7556  2.4594 -1.2508
11359TIP3    H255493   1.445   3.690  10.215 -1.0384  0.7841 -0.5325
11360TIP3   OH255494   3.611   6.547  16.480 -0.2736  0.3212  0.6840
11360TIP3    H155495   3.627   6.639  16.459 -0.2426 -0.2381 -2.0152
11360TIP3    H255496   3.684   6.500  16.440 -1.6223 -1.0760 -0.2449
11361TIP3   OH255497   3.326   5.468   0.860  0.6382 -0.5167  0.0332
11361TIP3    H155498   3.238   5.505   0.854  1.2638  0.8070 -3.3960
11361TIP3    H255499   3.312   5.375   0.878 -1.4574 -0.3116 -0.3531
11362TIP3   OH255500   5.051   2.728  11.927 -0.8725  0.6498  0.1448
11362TIP3    H155501   5.099   2.738  11.845 -0.0170  1.3861  0.7085
11362TIP3    H255502   5.045   2.634  11.941  0.4921  0.5397  0.0943
11363TIP3   OH255503   6.341   5.816  13.234 -0.4663  0.3446  0.5834
11363TIP3    H155504   6.382   5.770  13.160  3.9448 -0.8507  3.3547
11363TIP3    H255505   6.377   5.904  13.229  0.8901 -0.0875  1.8158
11364TIP3   OH255506   4.758   6.676   2.711 -0.8940  0.0721  0.0592
11364TIP3    H155507   4.779   6.591   2.671 -0.0590  0.8864 -1.3292
11364TIP3    H255508   4.843   6.711   2.738 -1.1278  0.8271 -0.1593
11365TIP3   OH255509   5.510   4.954  13.733 -0.1333 -0.3998 -0.2756
11365TIP3    H155510   5.571   5.004  13.679  1.1118 -0.2566  1.1880
11365TIP3    H255511   5.547   4.958  13.821 -0.5560 -2.9956  0.1000
11366TIP3   OH255512   5.077   3.883   5.488 -0.3740 -0.2526  0.3808
11366TIP3    H155513   5.089   3.975   5.464  2.8084 -1.1727 -2.2258
11366TIP3    H255514   5.017   3.848   5.422  0.1051 -0.5197  0.0875
11367TIP3   OH255515   3.198   2.868  16.192  0.2089 -0.3264  0.4364
11367TIP3    H155516   3.247   2.805  16.139  0.1359  0.1204 -0.1809
11367TIP3    H255517   3.231   2.857  16.281  0.8054 -0.6391  0.1787
11368TIP3   OH255518   3.897   1.791   2.890 -0.0919 -0.0065  0.4038
11368TIP3    H155519   3.865   1.742   2.966  0.5930  0.3519  0.9366
11368TIP3    H255520   3.819   1.808   2.838 -0.8030  0.9524  1.7259
11369TIP3   OH255521   5.559   3.932   6.475 -0.1138  0.2986 -0.0820
11369TIP3    H155522   5.577   3.842   6.501  0.3919  0.1006 -1.0536
11369TIP3    H255523   5.596   3.986   6.545  1.9176 -0.1812 -0.7227
11370TIP3   OH255524   5.385   1.582   0.605 -0.0265 -0.4472 -0.1050
11370TIP3    H155525   5.347   1.498   0.578 -1.4046  0.4306 -0.9988
11370TIP3    H255526   5.360   1.643   0.536  1.3576  0.6223  0.2897
11371TIP3   OH255527   6.239   3.474   5.248 -0.2416  0.7077  0.4820
11371TIP3    H155528   6.186   3.471   5.168 -0.1067  1.1286  0.3708
11371TIP3    H255529   6.237   3.385   5.282  0.3206  0.3439 -0.4053
11372TIP3   OH255530   6.271   0.568   1.034  0.1165  0.0256 -0.1968
11372TIP3    H155531   6.268   0.576   0.938 -1.0312 -0.9423 -0.2554
11372TIP3    H255532   6.180   0.569   1.062  0.3350 -1.4787  0.7145
11373TIP3   OH255533   6.725   3.006   5.807  0.7948  0.0368 -0.1240
11373TIP3    H155534   6.753   2.916   5.823 -1.7694 -0.6724  0.8966
11373TIP3    H255535   6.690   3.035   5.891  0.7003  1.6567 -0.6910
11374TIP3   OH255536   1.677   6.688   4.083 -0.4867  0.2880  0.0530
11374TIP3    H155537   1.754   6.633   4.096 -0.0481  0.7870 -0.3660
11374TIP3    H255538   1.686   6.758   4.148  0.4867  1.4734 -1.2980
11375TIP3   OH255539   4.050   4.481  11.925  0.1621 -0.1794  0.3119
11375TIP3    H155540   4.005   4.437  11.997  1.0281 -0.2648  0.8214
11375TIP3    H255541   4.100   4.411  11.882  0.4016  0.0408  0.2286
11376TIP3   OH255542   5.465   6.674   6.353 -0.0938 -0.3879 -0.2182
11376TIP3    H155543   5.548   6.697   6.395  0.3843 -2.4722  0.0976
11376TIP3    H255544   5.487   6.666   6.260 -0.5000  1.3520 -0.4924
11377TIP3   OH255545   1.337   4.111   2.004  0.0847 -0.2803  0.0259
11377TIP3    H155546   1.249   4.146   1.990  0.8318  1.0734 -1.5839
11377TIP3    H255547   1.389   4.186   2.032  0.9484 -0.8449 -0.0330
11378TIP3   OH255548   1.947   0.744  11.566 -0.1751  0.1433 -0.1728
11378TIP3    H155549   1.945   0.765  11.473 -1.4949  0.8170 -0.0097
11378TIP3    H255550   1.948   0.648  11.569  1.2976  0.0996 -0.8671
11379TIP3   OH255551   4.380   2.646  12.080 -0.6262  0.1377 -0.3100
11379TIP3    H155552   4.289   2.655  12.109 -1.2083  2.1351 -2.4414
11379TIP3    H255553   4.380   2.564  12.029 -1.6159  0.8014 -1.4324
11380TIP3   OH255554   4.566   2.107   0.169  0.6458 -0.0414 -0.4012
11380TIP3    H155555   4.522   2.049   0.107 -1.5103 -1.4099  2.2258
11380TIP3    H255556   4.657   2.108   0.139  0.0125 -1.8094 -2.6984
11381TIP3   OH255557   5.845   1.358  14.684  0.5704 -0.6812 -0.4292
11381TIP3    H155558   5.902   1.412  14.740 -2.2244 -0.1827  2.1930
11381TIP3    H255559   5.807   1.294  14.744 -1.7424 -0.8839 -1.9957
11382TIP3   OH255560   2.538   5.974   6.097 -0.1564  0.1526  0.6320
11382TIP3    H155561   2.538   6.032   6.173 -1.7092  0.5057  0.3961
11382TIP3    H255562   2.463   5.916   6.111  1.0051 -1.4310  0.5566
11383TIP3   OH255563   0.422   3.534   5.528 -0.3609  0.1630  0.2636
11383TIP3    H155564   0.433   3.522   5.434 -0.4941  0.7279  0.1771
11383TIP3    H255565   0.484   3.472   5.567 -0.6283 -0.3986 -0.1869
11384TIP3   OH255566   3.445   4.904  16.895  0.1447  0.5096  0.3792
11384TIP3    H155567   3.395   4.866  16.967 -1.0528  1.5359  0.1263
11384TIP3    H255568   3.448   4.835  16.829  0.4728 -0.1267  1.0577
11385TIP3   OH255569   6.372   4.579  17.072  0.4292 -0.0396 -0.1750
11385TIP3    H155570   6.370   4.561  17.166 -0.1730 -0.6651 -0.3047
11385TIP3    H255571   6.292   4.539  17.038  0.3528  0.6778 -0.8709
11386TIP3   OH255572   2.769   2.914   3.323 -0.2063  0.4364  0.2619
11386TIP3    H155573   2.791   2.822   3.309 -0.0535  0.2810  1.4464
11386TIP3    H255574   2.843   2.963   3.288  0.2924  0.0542  0.7695
11387TIP3   OH255575   6.027   1.416   2.090 -0.6183 -0.2723 -0.1708
11387TIP3    H155576   6.041   1.499   2.043  0.0968  0.3816  1.1562
11387TIP3    H255577   5.933   1.402   2.085 -0.8720  1.0766  0.2918
11388TIP3   OH255578   2.149   5.013  15.838  0.6988  0.0824 -0.0901
11388TIP3    H155579   2.071   4.958  15.833  0.4386  0.1578  2.0596
11388TIP3    H255580   2.121   5.099  15.805 -0.1220  0.0889  0.6048
11389TIP3   OH255581   5.683   0.160  16.616  0.4117  0.0658  0.1055
11389TIP3    H155582   5.666   0.194  16.528 -1.5082  0.1601  0.4607
11389TIP3    H255583   5.746   0.090  16.604 -0.2475 -0.2870 -1.4316
11390TIP3   OH255584   6.226   3.342   4.804  0.1753 -0.3036 -0.1049
11390TIP3    H155585   6.257   3.326   4.892  1.0988 -1.8920 -0.6858
11390TIP3    H255586   6.141   3.386   4.816  0.9225  0.7722  1.5234
11391TIP3   OH255587   6.005   3.857   0.528 -0.1611  0.5959  0.1331
11391TIP3    H155588   5.937   3.847   0.461 -1.0601  1.2462  0.9308
11391TIP3    H255589   6.061   3.926   0.495 -0.6717  0.9974  0.0925
11392TIP3   OH255590   5.072   6.299  15.667 -0.0981 -0.2584  0.3003
11392TIP3    H155591   5.080   6.246  15.746 -1.5691  0.4489  0.9659
11392TIP3    H255592   5.158   6.340  15.657  1.0089 -2.4597 -0.0719
11393TIP3   OH255593   1.872   3.546   1.350 -0.9847  0.0643 -0.6648
11393TIP3    H155594   1.856   3.453   1.336  0.3017 -0.0912 -1.2676
11393TIP3    H255595   1.922   3.549   1.432 -1.6214  0.2979 -0.2765
11394TIP3   OH255596   6.100   2.400   1.180 -0.9688 -0.2389  0.2272
11394TIP3    H155597   6.144   2.475   1.219 -0.4676 -0.8998  0.9704
11394TIP3    H255598   6.074   2.346   1.255 -0.1266 -1.4560 -0.3226
11395TIP3   OH255599   2.235   3.349  15.699 -0.1604 -0.2571 -0.1390
11395TIP3    H155600   2.145   3.326  15.723  0.8912 -2.4140  2.1608
11395TIP3    H255601   2.262   3.280  15.639  1.0333 -1.7642  1.9999
11396TIP3   OH255602   3.235   3.400   5.882  0.0923 -0.3510 -0.2290
11396TIP3    H155603   3.208   3.437   5.798 -0.9945 -0.0061  0.2425
11396TIP3    H255604   3.268   3.312   5.861  1.5811  0.4102 -1.2151
11397TIP3   OH255605   1.920   3.863  13.391 -0.0006  0.4018  0.0346
11397TIP3    H155606   1.863   3.880  13.465 -0.7248 -0.0654 -0.3909
11397TIP3    H255607   1.941   3.949  13.355  1.4607  0.7202  1.5593
11398TIP3   OH255608   3.750   2.110  11.722  0.4694  0.0410 -0.1173
11398TIP3    H155609   3.818   2.162  11.681  1.0655  1.2302  2.2165
11398TIP3    H255610   3.694   2.173  11.767 -1.3761 -1.0266 -0.7822
11399TIP3   OH255611   6.134   2.918  12.355  0.1624 -0.2132 -0.5934
11399TIP3    H155612   6.052   2.872  12.374 -0.1648  0.5860  0.0038
11399TIP3    H255613   6.110   2.979  12.285 -0.1008  0.9302  0.4538
11400TIP3   OH255614   1.214   3.947  14.186 -0.5977 -0.2982 -0.5055
11400TIP3    H155615   1.291   3.962  14.240 -1.8399 -0.5205  1.4556
11400TIP3    H255616   1.215   4.017  14.121  1.1267 -0.1978 -0.3999
11401TIP3   OH255617   1.896   1.370  11.617  0.5510  0.4593  0.7485
11401TIP3    H155618   1.885   1.459  11.583 -1.5101 -0.1870 -0.5190
11401TIP3    H255619   1.853   1.371  11.702 -2.2260  0.0439 -0.5409
11402TIP3   OH255620   2.584   2.854   6.220 -0.2933  0.2100 -0.7233
11402TIP3    H155621   2.493   2.881   6.231 -0.2184 -0.0884  0.9443
11402TIP3    H255622   2.634   2.920   6.269  0.2845 -0.2386 -0.6968
11403TIP3   OH255623   6.199   2.453  14.636  0.3138 -0.0852 -0.0603
11403TIP3    H155624   6.118   2.504  14.625  0.8761  0.7678 -0.3870
11403TIP3    H255625   6.174   2.364  14.612 -0.4590  0.2260 -0.4717
11404TIP3   OH255626   1.832   0.342   5.572  0.2663 -0.0424 -0.1638
11404TIP3    H155627   1.805   0.276   5.636  1.1087 -0.3040 -0.0637
11404TIP3    H255628   1.924   0.358   5.592  0.3349  0.4212 -0.8355
11405TIP3   OH255629   5.182   2.741   4.058 -0.0735  0.7105 -0.1036
11405TIP3    H155630   5.233   2.819   4.078 -1.4248  2.3000 -2.2894
11405TIP3    H255631   5.091   2.768   4.074 -0.4368 -1.2208  1.3309
11406TIP3   OH255632   0.478   4.636   2.128 -0.1425  0.3840 -0.1420
11406TIP3    H155633   0.386   4.661   2.122 -0.4168 -0.3560  0.8570
11406TIP3    H255634   0.505   4.661   2.216 -0.1602 -1.8546  0.5559
11407TIP3   OH255635   0.232   5.362   4.767 -0.0776 -0.2546 -0.1161
11407TIP3    H155636   0.174   5.380   4.693 -0.6382  0.2266  0.4290
11407TIP3    H255637   0.249   5.448   4.806 -0.7808 -0.6196  1.0458
11408TIP3   OH255638   0.689   1.289  17.086 -0.3046 -0.1752  0.4711
11408TIP3    H155639   0.720   1.318  17.000  2.6285 -3.6161  0.1594
11408TIP3    H255640   0.748   1.332  17.148 -1.4566  1.0902  0.7573
11409TIP3   OH255641   0.337   0.335  14.064 -0.1382 -0.1139 -0.1725
11409TIP3    H155642   0.318   0.423  14.032  0.8367 -0.2590 -1.1853
11409TIP3    H255643   0.345   0.281  13.985  1.1566 -0.7190  0.3425
11410TIP3   OH255644   3.633   2.536  12.526  0.6953  0.5034  0.4523
11410TIP3    H155645   3.570   2.546  12.454 -1.1142  0.0388  1.8919
11410TIP3    H255646   3.703   2.482  12.489 -0.4374 -0.1538 -0.8192
11411TIP3   OH255647   2.467   3.572  14.895 -0.0896 -0.5150 -0.2978
11411TIP3    H155648   2.479   3.488  14.940 -0.5771 -0.4777 -0.0911
11411TIP3    H255649   2.373   3.589  14.902  0.0869  0.3114  0.1402
11412TIP3   OH255650   0.700   5.022   4.349  0.2301 -0.1729  0.4381
11412TIP3    H155651   0.651   5.009   4.268 -1.0159  2.0283  0.7598
11412TIP3    H255652   0.779   4.969   4.338 -1.7812 -3.2512 -0.4354
11413TIP3   OH255653   5.098   3.654  14.231  0.8731 -0.2566 -0.0574
11413TIP3    H155654   5.017   3.604  14.229  1.4377 -1.1711 -1.2612
11413TIP3    H255655   5.073   3.742  14.201  0.4622 -0.7787 -1.3179
11414TIP3   OH255656   6.181   4.438   5.527  0.3817  0.1042 -0.3840
11414TIP3    H155657   6.116   4.473   5.588  0.9727  1.6597 -0.5888
11414TIP3    H255658   6.176   4.496   5.450  1.7906  0.1050 -0.5138
11415TIP3   OH255659   2.098   6.095   4.623  0.2361  0.2111 -0.2361
11415TIP3    H155660   2.114   6.089   4.529 -0.3007  2.1952 -0.4920
11415TIP3    H255661   2.131   6.181   4.648 -0.7324  0.2205  1.1453
11416TIP3   OH255662   4.795   2.760  14.435 -0.7857  0.3869 -0.5664
11416TIP3    H155663   4.817   2.715  14.516  1.9821  1.3949 -0.6579
11416TIP3    H255664   4.710   2.799  14.451 -0.6697 -0.1247  1.5311
11417TIP3   OH255665   3.582   5.083   0.422  0.1850  0.1708 -0.1057
11417TIP3    H155666   3.581   5.176   0.400  0.0352  0.3628  0.6574
11417TIP3    H255667   3.570   5.082   0.517 -0.4995 -0.6569 -0.1960
11418TIP3   OH255668   3.169   2.549   4.619 -0.7077  0.5224  0.1112
11418TIP3    H155669   3.173   2.609   4.694 -2.1362  2.2463 -1.1204
11418TIP3    H255670   3.152   2.606   4.544 -0.3259 -1.2693 -1.3993
11419TIP3   OH255671   5.559   0.233   2.104  0.2720 -0.4430 -0.4805
11419TIP3    H155672   5.480   0.287   2.104  0.5614 -0.0115 -1.0655
11419TIP3    H255673   5.622   0.283   2.156  0.0945 -0.8966  0.1842
11420TIP3   OH255674   3.283   0.669   5.122  0.1191 -0.5251 -0.1389
11420TIP3    H155675   3.349   0.679   5.190  1.2092  1.4494 -1.3769
11420TIP3    H255676   3.207   0.716   5.156  0.3096 -0.4203  0.1480
11421TIP3   OH255677   1.172   0.649   3.950 -0.6295 -0.0666 -0.1748
11421TIP3    H155678   1.157   0.657   4.044  0.6489 -1.7529  0.2153
11421TIP3    H255679   1.168   0.739   3.917  1.6716  0.9305  1.9462
11422TIP3   OH255680   3.201   2.181   0.683  0.8402 -0.0862 -0.0246
11422TIP3    H155681   3.165   2.267   0.663 -0.6758 -0.2635  1.6814
11422TIP3    H255682   3.279   2.198   0.734  1.3280  0.2746 -0.8753
11423TIP3   OH255683   0.574   4.642   4.437  0.0427 -0.0739  0.0326
11423TIP3    H155684   0.548   4.727   4.473  0.3353 -0.4792  1.2432
11423TIP3    H255685   0.641   4.609   4.497  0.1602 -1.0323 -0.5883
11424TIP3   OH255686   4.516   4.326  16.963  0.4156 -0.2308  0.0548
11424TIP3    H155687   4.445   4.337  16.900  0.0666  0.6583  0.5911
11424TIP3    H255688   4.592   4.368  16.921  0.1637  0.4330  0.2546
11425TIP3   OH255689   6.175   3.226   5.373 -0.2687  0.2067 -0.6611
11425TIP3    H155690   6.199   3.192   5.460  2.0734  0.5449 -1.1150
11425TIP3    H255691   6.080   3.233   5.376 -0.3605 -1.0072  1.4324
11426TIP3   OH255692   6.128   0.341   4.369  0.0072  0.0047  0.2719
11426TIP3    H155693   6.201   0.401   4.386 -0.0374 -0.3706  1.9415
11426TIP3    H255694   6.058   0.372   4.425 -0.4782 -0.8062  0.1332
11427TIP3   OH255695   2.609   1.174  12.365  0.3411 -0.3079  0.3196
11427TIP3    H155696   2.691   1.159  12.319 -0.2965 -1.2131 -0.5451
11427TIP3    H255697   2.595   1.095  12.416 -0.5771 -0.6507 -0.4484
11428TIP3   OH255698   2.112   3.709  11.591  0.4930  0.4419 -0.9730
11428TIP3    H155699   2.128   3.672  11.677  0.3177  0.4065 -0.9564
11428TIP3    H255700   2.084   3.799  11.609 -1.1643 -0.0610 -0.9027
11429TIP3   OH255701   0.265   4.792  14.927  0.3682  0.0253  0.0800
11429TIP3    H155702   0.339   4.737  14.954 -0.5136 -0.5207  1.4300
11429TIP3    H255703   0.191   4.732  14.923 -0.2035  0.7508 -0.3717
11430TIP3   OH255704   3.995   3.966  13.820  0.8035  0.0454  0.1830
11430TIP3    H155705   4.019   3.873  13.824  0.2063 -0.0712  2.1918
11430TIP3    H255706   3.902   3.967  13.842  0.1362  0.9356 -2.3549
11431TIP3   OH255707   5.589   4.140  11.720 -0.0346 -0.3296  0.0055
11431TIP3    H155708   5.533   4.216  11.707  0.5582  0.6354  2.4631
11431TIP3    H255709   5.544   4.069  11.675 -1.6991  1.0349 -0.5803
11432TIP3   OH255710   4.579   6.066   4.815  0.2336  0.6534  0.5507
11432TIP3    H155711   4.598   6.095   4.726  0.4603  1.6691  0.9117
11432TIP3    H255712   4.664   6.063   4.858  0.2829 -1.0679  0.4048
11433TIP3   OH255713   4.394   0.761   0.488  0.1576  0.5229 -1.0523
11433TIP3    H155714   4.422   0.751   0.397 -0.2986  2.0970 -1.4026
11433TIP3    H255715   4.309   0.805   0.483 -2.0873 -3.2315  0.0059
11434TIP3   OH255716   3.146   6.066   6.379 -0.0072  0.1062  0.3869
11434TIP3    H155717   3.169   5.988   6.431 -2.7448 -0.2741  1.2035
11434TIP3    H255718   3.126   6.133   6.445 -0.0922  0.7099 -0.2506
11435TIP3   OH255719   1.394   0.830   4.963  0.3463  0.4010  0.3134
11435TIP3    H155720   1.483   0.799   4.982  1.4004  1.5685 -2.1889
11435TIP3    H255721   1.356   0.850   5.048  1.8508 -1.6971  1.5764
11436TIP3   OH255722   5.190   0.252   0.974 -0.3532  0.0808 -0.3159
11436TIP3    H155723   5.228   0.319   1.030  1.1800 -0.9732 -0.0573
11436TIP3    H255724   5.112   0.294   0.937 -0.7973  1.1841  1.7012
11437TIP3   OH255725   1.487   4.534  13.224 -0.1305 -0.0836  0.4814
11437TIP3    H155726   1.407   4.585  13.237 -0.1408 -0.0628  0.3449
11437TIP3    H255727   1.475   4.491  13.139 -0.2872 -0.6271  0.7785
11438TIP3   OH255728   5.951   5.924   4.098 -1.1353 -0.2086 -0.1263
11438TIP3    H155729   5.941   5.848   4.155  0.6865  0.5228  1.2664
11438TIP3    H255730   6.017   5.897   4.034  0.3254  0.4860  1.0241
11439TIP3   OH255731   1.431   6.696  11.135 -0.2340 -0.1652  0.5305
11439TIP3    H155732   1.481   6.774  11.111  0.1758 -0.2512  1.0910
11439TIP3    H255733   1.342   6.729  11.152 -0.5029 -0.0714 -0.8759
11440TIP3   OH255734   5.514   5.985  11.546 -0.1763  0.4551  0.0258
11440TIP3    H155735   5.483   6.040  11.474  0.2783 -1.0536 -1.3753
11440TIP3    H255736   5.449   5.999  11.616  0.9077  4.1741  0.5180
11441TIP3   OH255737   1.866   2.816   3.504  0.8950 -0.2934 -0.6085
11441TIP3    H155738   1.879   2.725   3.475 -0.6270 -0.6118 -0.3842
11441TIP3    H255739   1.849   2.809   3.598 -2.1104 -0.1348 -1.0595
11442TIP3   OH255740   1.534   4.453  16.695 -1.0767 -0.0284 -0.4219
11442TIP3    H155741   1.578   4.445  16.780 -0.4941  0.7810 -0.6371
11442TIP3    H255742   1.593   4.407  16.634 -0.6414  0.8373 -0.6662
11443TIP3   OH255743   5.873   4.488  13.518 -0.1804  0.5895  0.2450
11443TIP3    H155744   5.828   4.569  13.492 -1.5031  0.3167  1.5603
11443TIP3    H255745   5.909   4.508  13.605 -1.1621 -0.4481  0.9092
11444TIP3   OH255746   0.013   6.432  14.760  0.4722  0.2740  0.3240
11444TIP3    H155747   0.044   6.521  14.774  0.8319  0.5405 -1.8820
11444TIP3    H255748  -0.049   6.438  14.688 -0.5703 -1.0805  1.0547
11445TIP3   OH255749   6.404   3.659  16.151  0.6890 -0.0285 -0.0383
11445TIP3    H155750   6.321   3.706  16.140  0.6072 -0.3947 -1.0781
11445TIP3    H255751   6.379   3.573  16.183  0.9113  0.9463  3.0169
11446TIP3   OH255752   5.231   2.565  16.317  0.0465  0.0624 -0.0330
11446TIP3    H155753   5.223   2.510  16.394  1.8733  0.3985  0.4587
11446TIP3    H255754   5.326   2.578  16.307 -0.0138 -1.0645 -3.1063
11447TIP3   OH255755   2.820   1.619   2.018 -0.0957 -0.6704 -0.1039
11447TIP3    H155756   2.773   1.630   2.101 -2.4054  2.5569 -1.6307
11447TIP3    H255757   2.871   1.699   2.009 -1.2196 -0.1432 -2.4888
11448TIP3   OH255758   2.870   5.231   2.417 -0.2593 -0.0505 -0.1809
11448TIP3    H155759   2.819   5.159   2.454  1.7679 -0.5382  1.9764
11448TIP3    H255760   2.806   5.291   2.380 -2.0513 -2.8621 -2.0135
11449TIP3   OH255761   1.344   2.863  11.787 -0.0210 -0.3594  0.0372
11449TIP3    H155762   1.411   2.846  11.721  0.6404  1.6137  0.1494
11449TIP3    H255763   1.262   2.866  11.737  0.2647 -0.4789 -0.4479
11450TIP3   OH255764   3.284   6.145  16.688 -0.3161 -0.0062 -0.0720
11450TIP3    H155765   3.247   6.081  16.748 -1.1582 -1.2073 -1.7938
11450TIP3    H255766   3.282   6.228  16.737 -2.4078 -0.6280  1.0203
11451TIP3   OH255767   2.437   3.640  12.918 -0.0736 -0.5294  0.2823
11451TIP3    H155768   2.450   3.643  12.823  0.4960 -0.5559  0.3555
11451TIP3    H255769   2.499   3.705  12.952  0.0037 -0.8034  0.6635
11452TIP3   OH255770   5.381   5.079  11.338  0.1871  0.4582 -0.3017
11452TIP3    H155771   5.334   5.127  11.271  1.3880  0.6503 -1.0394
11452TIP3    H255772   5.343   4.992  11.338 -0.2806  0.6638 -0.7471
11453TIP3   OH255773   0.739   2.666   0.137  0.3035  0.3601 -0.0132
11453TIP3    H155774   0.711   2.755   0.118  1.8118  0.4964 -1.8429
11453TIP3    H255775   0.815   2.676   0.195 -0.3608  0.1872  0.9073
11454TIP3   OH255776   2.336   0.588  17.249  0.4390 -0.1164 -0.7420
11454TIP3    H155777   2.291   0.670  17.265  0.1423 -0.4976  0.4115
11454TIP3    H255778   2.372   0.598  17.160 -0.9762  0.6062 -1.2672
11455TIP3   OH255779   2.203   2.527  11.257  0.1347 -0.2005 -0.4459
11455TIP3    H155780   2.166   2.577  11.184  0.4098  2.8654  1.3415
11455TIP3    H255781   2.294   2.558  11.263  1.0435 -2.6350 -0.5932
11456TIP3   OH255782   2.609   4.460  16.732 -0.6381 -0.1886  0.1959
11456TIP3    H155783   2.569   4.384  16.689 -3.1835  0.0590  1.9095
11456TIP3    H255784   2.611   4.438  16.825 -4.0220  2.6790  1.2003
11457TIP3   OH255785   1.596   0.260  13.643  0.0041 -0.2606  0.3345
11457TIP3    H155786   1.601   0.355  13.646 -1.2532 -0.1611 -0.0769
11457TIP3    H255787   1.554   0.241  13.559 -2.3058 -1.0209  1.5736
11458TIP3   OH255788   2.478   1.123  11.389 -0.0630  0.8379  1.0608
11458TIP3    H155789   2.397   1.098  11.433 -0.6537 -1.0605 -0.9585
11458TIP3    H255790   2.547   1.093  11.449 -0.8341 -0.3625  1.3894
11459TIP3   OH255791   5.465   5.647  15.371 -0.1872  0.6648 -0.4987
11459TIP3    H155792   5.383   5.634  15.323 -0.7062  0.8824  0.3224
11459TIP3    H255793   5.483   5.563  15.412 -0.2132  0.7382 -0.3372
11460TIP3   OH255794   3.207   5.828   6.548  0.0343  0.3699  0.7128
11460TIP3    H155795   3.274   5.794   6.608  0.2469 -1.5867 -0.5210
11460TIP3    H255796   3.125   5.818   6.596  0.2471 -0.7508  0.8800
11461TIP3   OH255797   4.305   5.368  15.115 -0.0359 -0.2820 -0.0672
11461TIP3    H155798   4.263   5.284  15.130  1.4210 -0.9870  0.2135
11461TIP3    H255799   4.322   5.370  15.021  2.9385 -1.8440  0.3328
11462TIP3   OH255800   6.202   2.498  12.448  0.2469 -0.3137  0.6369
11462TIP3    H155801   6.122   2.461  12.485  0.1515  0.3739  1.1376
11462TIP3    H255802   6.230   2.564  12.511  0.7018  0.1047  0.0194
11463TIP3   OH255803   1.172   1.648  12.431  0.4084  0.0375  0.2668
11463TIP3    H155804   1.225   1.709  12.379 -0.0226  0.3980  0.2447
11463TIP3    H255805   1.083   1.684  12.427  0.1306 -0.6331  0.1858
11464TIP3   OH255806   6.456   3.710   4.594  0.3617 -0.2503  0.1248
11464TIP3    H155807   6.420   3.644   4.535  0.2764 -0.4104  0.3508
11464TIP3    H255808   6.415   3.690   4.679 -0.0183  0.3744  0.0912
11465TIP3   OH255809   0.824   1.642   3.739  0.1796  0.4063 -0.2780
11465TIP3    H155810   0.747   1.631   3.684 -0.8722 -0.5136  1.2738
11465TIP3    H255811   0.800   1.712   3.800  1.0774  0.9855 -0.5725
11466TIP3   OH255812   1.288   0.995  11.458  0.5303  0.7178 -0.1484
11466TIP3    H155813   1.376   1.029  11.442  1.9900 -2.7291 -0.1893
11466TIP3    H255814   1.272   0.934  11.386 -1.7157  0.8678  0.1439
11467TIP3   OH255815   1.149   1.591   0.874  0.0743  0.0867  0.9816
11467TIP3    H155816   1.084   1.576   0.943  0.5514  2.0262  1.8793
11467TIP3    H255817   1.231   1.606   0.920  1.3063 -2.5231 -0.1536
11468TIP3   OH255818   5.847   4.274  14.805  0.1058  0.3866  0.0935
11468TIP3    H155819   5.843   4.247  14.897  0.4185 -0.2845 -0.0810
11468TIP3    H255820   5.842   4.369  14.807 -0.5653  0.3463  0.7681
11469TIP3   OH255821   6.214   2.870   2.882 -0.1436 -0.3395  0.4345
11469TIP3    H155822   6.188   2.849   2.971  0.1326 -1.6769  0.2161
11469TIP3    H255823   6.301   2.909   2.891 -1.2043  2.0966  0.9586
11470TIP3   OH255824   1.581   5.790  13.736  0.0448 -0.1815 -0.4597
11470TIP3    H155825   1.493   5.822  13.757 -0.5563 -1.3683 -1.0451
11470TIP3    H255826   1.575   5.763  13.644  1.5783  1.5054 -1.1156
11471TIP3   OH255827   6.657   4.654   2.182 -0.6930  0.0529  0.6888
11471TIP3    H155828   6.674   4.580   2.123 -0.9884  0.4419  0.1091
11471TIP3    H255829   6.567   4.641   2.211 -0.1562 -0.8235  2.0602
11472TIP3   OH255830   3.364   6.329  14.347  0.0352 -0.5989 -0.0152
11472TIP3    H155831   3.370   6.323  14.252 -2.1556 -0.9425 -0.1752
11472TIP3    H255832   3.356   6.422  14.366 -0.0211 -0.5673 -0.2001
11473TIP3   OH255833   3.951   4.288   0.287 -0.3856  0.1276 -0.1060
11473TIP3    H155834   3.988   4.205   0.258 -0.8116 -0.3229  0.6186
11473TIP3    H255835   3.865   4.292   0.245 -0.4373  0.1198 -0.0006
11474TIP3   OH255836   5.276   2.559  12.243 -0.5159 -0.6333  0.3068
11474TIP3    H155837   5.356   2.541  12.194  0.5818  0.5925  1.5463
11474TIP3    H255838   5.205   2.542  12.181  0.6381 -2.5702 -0.5758
11475TIP3   OH255839   1.957   1.541  15.945  0.2948 -0.3895 -0.1544
11475TIP3    H155840   2.021   1.602  15.981 -0.2267  0.1541 -0.1344
11475TIP3    H255841   1.944   1.569  15.855  1.3656 -1.5620 -0.7075
11476TIP3   OH255842   3.461   6.674  13.120 -0.3722  0.4360  0.1753
11476TIP3    H155843   3.380   6.633  13.090 -0.6943  1.3290 -0.2216
11476TIP3    H255844   3.472   6.750  13.063  1.1704 -0.1023 -0.2840
11477TIP3   OH255845   3.715   6.610   4.152 -0.1296  0.5580  0.3350
11477TIP3    H155846   3.792   6.582   4.103  0.2716  1.4550  0.4241
11477TIP3    H255847   3.652   6.636   4.084 -1.0860 -1.8560  0.1848
11478TIP3   OH255848   6.346   2.665   5.431 -0.0460 -0.1910  0.2538
11478TIP3    H155849   6.348   2.675   5.526 -0.9440 -1.0131  0.3737
11478TIP3    H255850   6.393   2.583   5.414  0.0097 -0.1068 -0.0135
11479TIP3   OH255851   1.087   4.605  15.863  0.3345 -0.5319  0.5029
11479TIP3    H155852   1.169   4.590  15.815  0.1936  0.5972 -0.1089
11479TIP3    H255853   1.080   4.529  15.921  0.1121 -2.3563 -1.7777
11480TIP3   OH255854   6.531   6.396  13.773  0.4301 -0.2025 -1.0985
11480TIP3    H155855   6.451   6.344  13.774  0.8271 -0.8673  1.2838
11480TIP3    H255856   6.517   6.465  13.837  2.0498 -0.8599  0.0333
11481TIP3   OH255857   6.241   2.569   4.276  0.3554 -0.2133 -0.0511
11481TIP3    H155858   6.249   2.509   4.350  1.9983 -0.5209 -0.4431
11481TIP3    H255859   6.247   2.656   4.315  1.0050 -0.3690  0.2030
11482TIP3   OH255860   5.829   0.457  11.352 -0.4653  0.1192  0.3220
11482TIP3    H155861   5.742   0.480  11.385 -0.9424  0.6171 -1.2087
11482TIP3    H255862   5.815   0.435  11.260  1.2612  2.0078 -0.4853
11483TIP3   OH255863   1.927   5.157   4.992 -0.4035 -0.1513  0.4484
11483TIP3    H155864   2.011   5.127   5.028 -0.7498 -0.3410  1.0992
11483TIP3    H255865   1.864   5.141   5.061 -0.7473  1.3395  0.4992
11484TIP3   OH255866   6.775   3.390  15.587 -0.7679  0.2920  0.0666
11484TIP3    H155867   6.690   3.432  15.580 -0.8867 -0.0329 -0.5335
11484TIP3    H255868   6.755   3.296  15.595 -0.4524  0.1355 -0.8562
11485TIP3   OH255869   4.340   0.099   6.258  0.1224  0.2946 -0.8260
11485TIP3    H155870   4.287   0.028   6.294 -1.2327  1.1370 -1.0794
11485TIP3    H255871   4.373   0.146   6.335  0.1457  0.0180 -0.6667
11486TIP3   OH255872   1.185   6.165  14.245 -0.5668 -0.4227 -0.0168
11486TIP3    H155873   1.121   6.236  14.248 -0.5505 -0.3634 -0.8742
11486TIP3    H255874   1.269   6.209  14.228 -0.3015 -0.5075  1.0090
11487TIP3   OH255875   0.784   6.191  11.651 -0.2357  0.1861  0.0757
11487TIP3    H155876   0.810   6.117  11.596  0.5914 -0.2031  0.9464
11487TIP3    H255877   0.834   6.179  11.732 -0.7290  1.2402  0.5595
11488TIP3   OH255878   3.423   2.091   2.136 -0.1986  0.8169 -0.6121
11488TIP3    H155879   3.515   2.088   2.110 -0.0284  0.4282  0.0237
11488TIP3    H255880   3.381   2.022   2.084  0.8862 -2.8213  2.9097
11489TIP3   OH255881   3.714   6.036  15.819  0.3345  0.7874  0.1250
11489TIP3    H155882   3.649   5.974  15.853  0.6099  0.1706 -0.4450
11489TIP3    H255883   3.795   6.013  15.863  0.1228  1.7538  1.0610
11490TIP3   OH255884   5.102   0.003  13.715 -0.0599 -0.3364  0.2556
11490TIP3    H155885   5.027   0.021  13.659  0.1498  2.6574  0.7752
11490TIP3    H255886   5.173  -0.018  13.655 -0.1412  1.6049 -0.5675
11491TIP3   OH255887   1.105   5.811   5.429 -0.9573  0.0028 -0.3458
11491TIP3    H155888   1.151   5.771   5.355 -1.9793 -0.0360 -0.9792
11491TIP3    H255889   1.158   5.787   5.505 -0.2207 -0.4767 -0.9884
11492TIP3   OH255890   1.053   2.344  14.804 -0.4224 -0.2295  0.9799
11492TIP3    H155891   1.124   2.299  14.850 -1.1114 -1.9272  0.4463
11492TIP3    H255892   0.985   2.277  14.794 -2.0008  1.2617  1.2254
11493TIP3   OH255893   3.886   1.679  14.822 -0.1315  0.2002  0.1104
11493TIP3    H155894   3.820   1.692  14.753 -1.7360 -0.3962  1.4653
11493TIP3    H255895   3.926   1.595  14.800  0.2981  0.6259 -0.8003
11494TIP3   OH255896   6.336   4.033   6.640 -0.3907 -0.6776  0.1483
11494TIP3    H155897   6.303   3.943   6.635 -0.6345 -0.5212 -2.3728
11494TIP3    H255898   6.398   4.040   6.568 -1.5251  1.5863 -0.7230
11495TIP3   OH255899   6.524   2.313   3.052  0.3219  0.0737  0.2000
11495TIP3    H155900   6.509   2.240   3.113 -0.3867  0.3628  0.3872
11495TIP3    H255901   6.608   2.351   3.080  0.3535 -0.2401  0.5420
11496TIP3   OH255902   6.134   4.077  12.515 -0.3503  0.3531  0.1741
11496TIP3    H155903   6.164   4.069  12.425  0.5150 -2.6810  0.6238
11496TIP3    H255904   6.061   4.015  12.522  1.1782 -1.4254  2.0727
11497TIP3   OH255905   0.044   1.691   1.185  0.1797  0.3115 -0.3489
11497TIP3    H155906   0.039   1.764   1.123 -0.3042 -1.0212 -1.9266
11497TIP3    H255907   0.121   1.641   1.158  1.6140  1.1857  1.8667
11498TIP3   OH255908   4.835   6.654  14.710 -0.1939 -0.9417 -0.6726
11498TIP3    H155909   4.820   6.740  14.672  0.5937 -0.9054 -0.9198
11498TIP3    H255910   4.805   6.593  14.642 -1.2938 -0.8738 -0.2684
11499TIP3   OH255911   5.311   0.253   3.376  0.1592  0.3079  0.2802
11499TIP3    H155912   5.353   0.269   3.292  2.1135 -2.1419  0.6915
11499TIP3    H255913   5.332   0.162   3.397 -2.0425  0.2066  2.4600
11500TIP3   OH255914   5.515   5.391  16.185  0.1750  0.0310  0.2940
11500TIP3    H155915   5.425   5.368  16.210  0.3669 -1.4341 -0.2864
11500TIP3    H255916   5.551   5.432  16.264 -0.6075 -0.5059  0.9566
11501TIP3   OH255917   4.916   1.029   2.111  0.5664 -0.0477  0.4126
11501TIP3    H155918   5.001   0.994   2.085  0.1625 -1.7807  1.3049
11501TIP3    H255919   4.918   1.030   2.206 -1.3181 -2.6742  0.5742
11502TIP3   OH255920   4.347   5.828   2.405  0.6647 -0.0968 -0.0278
11502TIP3    H155921   4.329   5.734   2.406  0.6297 -0.0932 -0.2014
11502TIP3    H255922   4.432   5.837   2.447  0.6949 -0.2124 -0.0649
11503TIP3   OH255923   4.666   3.548  13.299 -0.5459  0.3115 -0.3932
11503TIP3    H155924   4.605   3.607  13.256 -1.1523 -0.2521 -0.3210
11503TIP3    H255925   4.613   3.499  13.362 -0.5132 -1.8056 -1.8869
11504TIP3   OH255926   0.325   4.087   1.034  0.2976  0.1867  0.0037
11504TIP3    H155927   0.352   4.117   0.947  1.1582 -0.9957 -0.1632
11504TIP3    H255928   0.361   3.998   1.041 -1.5372 -0.5587  0.7355
11505TIP3   OH255929   6.073   6.656  13.383 -0.5668 -0.7059  0.0511
11505TIP3    H155930   6.126   6.720  13.431 -1.2252  0.7439 -1.0808
11505TIP3    H255931   6.051   6.589  13.448  3.0174 -1.6606  0.4850
11506TIP3   OH255932   3.877   6.777   0.586 -0.6954  0.0792 -0.4549
11506TIP3    H155933   3.883   6.781   0.490 -0.8904 -1.4650 -0.5511
11506TIP3    H255934   3.829   6.697   0.604  2.0413 -1.3761  1.0171
11507TIP3   OH255935   5.093   6.499  16.187 -0.3691  0.0052 -0.2920
11507TIP3    H155936   5.051   6.567  16.134  0.7653 -0.1152 -1.3906
11507TIP3    H255937   5.092   6.421  16.131  0.1728 -0.3269  0.1506
11508TIP3   OH255938   4.777   3.874   3.212  0.5156  0.2707  0.8772
11508TIP3    H155939   4.716   3.947   3.217  0.4190  0.1350  1.7694
11508TIP3    H255940   4.808   3.862   3.302 -1.3366 -2.3756  1.2613
11509TIP3   OH255941   5.577   5.391   2.739 -0.2926  0.6836  0.1899
11509TIP3    H155942   5.518   5.347   2.679  0.4979  0.7352 -0.6502
11509TIP3    H255943   5.521   5.425   2.808 -1.0365 -0.7042  0.2959
11510TIP3   OH255944   2.520   6.693  13.574  0.9587  0.1946 -0.1078
11510TIP3    H155945   2.495   6.755  13.506 -1.9393  0.9214  1.4593
11510TIP3    H255946   2.452   6.626  13.573  2.3740 -1.3363  0.2975
11511TIP3   OH255947   5.005   4.513   5.686  0.2152  0.2150 -0.2293
11511TIP3    H155948   5.045   4.510   5.599 -0.9218 -0.2713 -0.7462
11511TIP3    H255949   4.922   4.467   5.676 -0.6630  1.5228  0.7316
11512TIP3   OH255950   3.044   4.591   5.357 -0.1779 -0.5606 -0.0582
11512TIP3    H155951   3.136   4.615   5.369 -0.4849  1.3208 -1.0179
11512TIP3    H255952   3.037   4.568   5.264 -0.4174 -2.1314  0.3161
11513TIP3   OH255953   1.901   3.032   2.844 -0.1217 -0.3035 -0.2495
11513TIP3    H155954   1.913   2.963   2.909 -2.0914 -0.4491  0.0247
11513TIP3    H255955   1.964   3.011   2.775  2.6100  0.3375  1.9079
11514TIP3   OH255956   4.608   3.583   5.166 -0.1473 -0.3025 -0.0715
11514TIP3    H155957   4.533   3.570   5.224  0.4583  0.5210  0.9170
11514TIP3    H255958   4.684   3.583   5.224  0.4794  0.4055 -0.8707
11515TIP3   OH255959   5.891   0.625  15.884 -0.1264 -0.0447 -0.8394
11515TIP3    H155960   5.945   0.575  15.945  0.1692  0.2940 -0.8152
11515TIP3    H255961   5.936   0.616  15.799 -0.2727 -0.1236 -0.9068
11516TIP3   OH255962   4.961   0.009  15.673  0.3535 -0.7549  0.1993
11516TIP3    H155963   4.966  -0.075  15.627  0.3140 -0.9537  0.5493
11516TIP3    H255964   4.939  -0.015  15.763 -2.2247 -0.2412 -0.2099
11517TIP3   OH255965   3.804   2.887  15.834  0.2047  0.3924 -0.4332
11517TIP3    H155966   3.850   2.811  15.798  0.1653  0.8348 -1.4543
11517TIP3    H255967   3.872   2.951  15.853  0.3529 -0.2425  1.4060
11518TIP3   OH255968   4.809   0.217  11.395  0.3318 -0.5734 -0.5092
11518TIP3    H155969   4.755   0.170  11.331 -1.0976 -1.1595  1.0415
11518TIP3    H255970   4.891   0.235  11.349 -0.1931 -2.0048 -2.1073
11519TIP3   OH255971   1.211   3.232  16.028 -0.2955 -0.0792  0.8513
11519TIP3    H155972   1.253   3.292  15.966 -1.4366 -0.4844 -0.3670
11519TIP3    H255973   1.233   3.267  16.114  0.2166  1.2846  0.1961
11520TIP3   OH255974   2.583   2.383   0.561 -0.8862  0.4222 -0.1355
11520TIP3    H155975   2.542   2.455   0.609 -2.3767 -1.0957  1.0120
11520TIP3    H255976   2.578   2.309   0.621 -2.0401 -1.3739 -2.3091
11521TIP3   OH255977   5.534   3.419   1.736 -0.2068  0.5661  0.0809
11521TIP3    H155978   5.585   3.414   1.816  1.0931 -0.9055 -0.7791
11521TIP3    H255979   5.481   3.498   1.746  0.1349  0.5945  2.2295
11522TIP3   OH255980   5.628   1.193   5.292 -0.1341  0.5964  0.0958
11522TIP3    H155981   5.589   1.240   5.218  0.2466  0.9083  0.0871
11522TIP3    H255982   5.716   1.230   5.300  0.1498 -0.0671  0.1370
11523TIP3   OH255983   6.715   1.192  14.557 -0.1935 -0.3625 -0.1622
11523TIP3    H155984   6.698   1.116  14.612  0.3219  0.3493  1.0401
11523TIP3    H255985   6.659   1.181  14.481 -0.7983 -1.4773  0.4286
11524TIP3   OH255986   0.750   5.250   1.599 -0.5692  0.4719  0.0340
11524TIP3    H155987   0.671   5.242   1.546 -1.1453  1.7835  0.6431
11524TIP3    H255988   0.797   5.167   1.587 -2.0584 -0.3417 -0.3079
11525TIP3   OH255989   1.185   4.284  13.575  0.0278  0.1003  0.1149
11525TIP3    H155990   1.273   4.294  13.538  0.0408  0.1335  0.1553
11525TIP3    H255991   1.127   4.321  13.508  0.0452  0.0859  0.0917
11526TIP3   OH255992   1.707   6.573  13.118 -0.1912  0.2188 -0.5374
11526TIP3    H155993   1.752   6.643  13.166  1.0670  0.7374 -2.3594
11526TIP3    H255994   1.772   6.541  13.055 -0.7448 -2.6166  0.2097
11527TIP3   OH255995   4.345   2.810  15.466 -0.6760  0.2495  0.6797
11527TIP3    H155996   4.400   2.734  15.486  0.5304  1.5074  2.3870
11527TIP3    H255997   4.407   2.883  15.457 -1.6592  0.8410 -2.4028
11528TIP3   OH255998   1.868   1.818  16.479 -0.2461  0.2273  0.3615
11528TIP3    H155999   1.921   1.750  16.521 -0.0096 -0.5039 -1.0677
11528TIP3    H256000   1.903   1.900  16.513  1.1309 -0.2813  0.2362
11529TIP3   OH256001   4.927   2.164  14.751  0.2401 -0.2461  0.0099
11529TIP3    H156002   4.999   2.102  14.750  1.0663  0.6947 -0.5823
11529TIP3    H256003   4.958   2.237  14.804 -0.1613  0.2895 -0.4787
11530TIP3   OH256004   3.817   5.744  13.641  0.4729  0.2539 -0.0871
11530TIP3    H156005   3.856   5.768  13.725  0.4778 -0.8228  0.2390
11530TIP3    H256006   3.758   5.816  13.620 -0.5826 -0.0653  1.5343
11531TIP3   OH256007   2.134   4.448  14.901  0.1111  0.1134 -0.3649
11531TIP3    H156008   2.208   4.425  14.958 -0.5494 -1.4133 -0.0551
11531TIP3    H256009   2.113   4.538  14.924 -0.2948 -0.5213  2.0491
11532TIP3   OH256010   6.499   3.379  14.354  0.1851  0.7122  0.2085
11532TIP3    H156011   6.462   3.437  14.288  0.0989  2.0047  1.3445
11532TIP3    H256012   6.535   3.306  14.305 -0.4575  1.3184 -1.2071
11533TIP3   OH256013   6.507   3.995   6.430  0.3144 -0.2666 -0.6993
11533TIP3    H156014   6.570   4.018   6.362  0.0129  1.7047 -0.3608
11533TIP3    H256015   6.422   3.992   6.385  0.2641 -0.0334 -0.6227
11534TIP3   OH256016   5.407   0.145   1.823  0.0420 -0.4075 -0.1339
11534TIP3    H156017   5.418   0.183   1.736  0.4635  0.6365  0.3609
11534TIP3    H256018   5.488   0.097   1.839  0.2936  0.0477 -0.0142
11535TIP3   OH256019   5.601   0.936  10.747  0.3087  0.2307 -0.2009
11535TIP3    H156020   5.628   0.956  10.657 -1.1454  1.1573 -0.4540
11535TIP3    H256021   5.675   0.888  10.783  0.6992 -0.6884 -2.0761
11536TIP3   OH256022   4.184   6.204  14.914 -0.3550 -0.4323  0.4510
11536TIP3    H156023   4.114   6.266  14.931  1.7064  2.2123 -0.1541
11536TIP3    H256024   4.219   6.182  15.000  0.2874  1.0093  0.5824
11537TIP3   OH256025   2.471   1.583   6.291  0.0992  0.4113 -0.0195
11537TIP3    H156026   2.481   1.670   6.329  0.2924  0.9317 -1.1985
11537TIP3    H256027   2.430   1.530   6.359  0.3531  1.3219  0.8509
11538TIP3   OH256028   4.850   5.262   4.880 -0.2070  0.3634 -0.3500
11538TIP3    H156029   4.822   5.294   4.966  0.8851  1.1327 -0.2563
11538TIP3    H256030   4.859   5.168   4.891 -1.6458  0.2384 -0.0861
11539TIP3   OH256031   2.132   5.793   0.245  0.4256  0.1047  0.6619
11539TIP3    H156032   2.219   5.755   0.257  0.5953  0.0075 -0.6901
11539TIP3    H256033   2.141   5.851   0.169 -0.4680  0.8352  1.0886
11540TIP3   OH256034   6.625   4.404   2.976  0.4786  0.2755 -0.0200
11540TIP3    H156035   6.610   4.317   2.937  1.2744  0.7727 -1.5106
11540TIP3    H256036   6.719   4.419   2.966  0.1778  1.8040 -0.9174
11541TIP3   OH256037   1.555   2.666  14.294 -0.0003  0.6043 -0.5882
11541TIP3    H156038   1.596   2.659  14.380 -1.0215 -0.8993 -0.1813
11541TIP3    H256039   1.527   2.576  14.273 -0.3581  1.0570 -2.1885
11542TIP3   OH256040   1.551   2.504   4.624 -0.2777 -0.5236 -0.3530
11542TIP3    H156041   1.460   2.499   4.596  0.0883 -0.8005 -1.5881
11542TIP3    H256042   1.565   2.424   4.674 -0.9745  0.0140  0.7418
11543TIP3   OH256043   3.006   3.131  11.884 -0.2986 -0.6885 -0.2379
11543TIP3    H156044   2.920   3.098  11.858 -0.0882 -1.9191  0.4967
11543TIP3    H256045   3.047   3.158  11.802 -0.6954 -1.8358 -0.8522
11544TIP3   OH256046   0.020   3.768  12.328 -0.3277  0.6981 -0.0954
11544TIP3    H156047   0.027   3.709  12.253  0.5937  0.3527  0.2369
11544TIP3    H256048   0.105   3.812  12.331 -0.2045  0.4150  0.9767
11545TIP3   OH256049   1.673   6.495   2.909 -0.2125 -0.3657 -0.1603
11545TIP3    H156050   1.731   6.432   2.951  1.2685  0.0387 -1.4974
11545TIP3    H256051   1.696   6.579   2.949 -0.9495 -0.4012  0.3627
11546TIP3   OH256052   3.906   6.058  11.453  0.2014 -0.3640  0.3721
11546TIP3    H156053   3.933   5.993  11.518 -2.7563 -2.2907 -0.0862
11546TIP3    H256054   3.836   6.106  11.495 -0.2633 -0.1435 -0.6217
11547TIP3   OH256055   6.111   6.054  15.571  0.6310  0.0058  0.3232
11547TIP3    H156056   6.064   6.007  15.640 -1.0593  1.4696  0.2382
11547TIP3    H256057   6.151   5.985  15.518 -0.7128 -1.2735  0.9180
11548TIP3   OH256058   1.754   4.267   6.618  0.5399 -0.3750 -0.4874
11548TIP3    H156059   1.837   4.236   6.653 -0.2107 -1.3708  0.4394
11548TIP3    H256060   1.688   4.204   6.649 -0.5069  0.1291 -1.5760
11549TIP3   OH256061   1.776   2.199   0.309 -0.0180 -0.7358 -0.1199
11549TIP3    H156062   1.846   2.134   0.306  1.7373  1.0101  0.7000
11549TIP3    H256063   1.783   2.245   0.225  1.4858  1.0036  0.8865
11550TIP3   OH256064   2.455   1.524   5.416 -0.2767  0.4444  0.1676
11550TIP3    H156065   2.369   1.488   5.393  0.1324  1.4537 -3.6407
11550TIP3    H256066   2.446   1.618   5.402  0.7678  0.9641  2.5056
11551TIP3   OH256067   2.356   6.408  14.847 -0.4535  0.0233 -0.3064
11551TIP3    H156068   2.261   6.398  14.854 -0.6203  1.3876 -0.2931
11551TIP3    H256069   2.369   6.448  14.761  0.0250  0.6559  0.0487
11552TIP3   OH256070   6.758   4.548  15.277  0.5834 -0.1148 -0.1409
11552TIP3    H156071   6.770   4.640  15.298 -2.0558  0.3516 -0.3315
11552TIP3    H256072   6.764   4.503  15.361 -0.6452  0.5744  0.3336
11553TIP3   OH256073   1.528   6.346  17.055 -0.2049 -0.0980 -0.0536
11553TIP3    H156074   1.588   6.411  17.019  0.8853 -0.1471  1.5593
11553TIP3    H256075   1.482   6.311  16.979  1.5013  0.2627 -1.3068
11554TIP3   OH256076   2.253   6.232  16.922  0.2943 -0.2936 -0.2540
11554TIP3    H156077   2.288   6.316  16.890 -0.1067  0.4021  1.0540
11554TIP3    H256078   2.232   6.183  16.842  0.0252  1.0616 -1.0518
11555TIP3   OH256079   5.715   0.171   0.982 -0.0217 -0.3680  0.0392
11555TIP3    H156080   5.795   0.118   0.975  0.7575  0.7461  0.1910
11555TIP3    H256081   5.736   0.252   0.936 -1.2582 -0.2485 -0.3498
11556TIP3   OH256082   4.859   0.606  13.687 -0.4693 -0.0421  0.0582
11556TIP3    H156083   4.948   0.635  13.670 -0.0567 -1.2741  0.0352
11556TIP3    H256084   4.804   0.679  13.658  0.4859  0.3783 -0.7393
11557TIP3   OH256085   2.655   5.485  11.300  0.3657 -0.6192 -0.5019
11557TIP3    H156086   2.683   5.498  11.391 -3.5868 -1.0399  0.9468
11557TIP3    H256087   2.635   5.573  11.268 -0.7574 -0.6962 -0.0277
11558TIP3   OH256088   5.875   6.206   0.146  0.4901  0.0166 -0.5682
11558TIP3    H156089   5.873   6.301   0.155  0.1176 -0.1292  1.4891
11558TIP3    H256090   5.888   6.174   0.236  0.0644 -1.8852 -1.1405
11559TIP3   OH256091   0.932   5.453  17.052 -0.2538  0.1695  0.0749
11559TIP3    H156092   1.002   5.388  17.053  2.1356  2.4363 -2.6129
11559TIP3    H256093   0.871   5.422  16.986 -2.8989 -2.5725  3.4132
11560TIP3   OH256094   1.824   1.214  15.227 -0.2552  0.0053  0.0200
11560TIP3    H156095   1.918   1.211  15.246 -0.5706 -1.5931  1.6270
11560TIP3    H256096   1.813   1.155  15.152 -0.1555 -1.0863  0.8441
11561TIP3   OH256097   1.380   5.787   6.870  0.0216  0.0985  1.4931
11561TIP3    H156098   1.402   5.880   6.863  0.8012 -0.1689 -0.0133
11561TIP3    H256099   1.465   5.742   6.864 -0.6034 -0.8695 -2.1700
11562TIP3   OH256100   1.135   4.987  12.533  0.3771 -0.1075 -0.2141
11562TIP3    H156101   1.190   4.910  12.548  0.3384 -0.9362 -3.5599
11562TIP3    H256102   1.063   4.955  12.479 -1.9295  1.5350  1.6731
11563TIP3   OH256103   2.502   1.813  17.100 -0.0818 -0.2252 -0.7588
11563TIP3    H156104   2.498   1.904  17.071  0.6568  0.1499  0.2256
11563TIP3    H256105   2.510   1.762  17.020  0.2560  0.6369 -1.2889
11564TIP3   OH256106   1.932   4.839   5.457  0.5089  0.1530 -0.3393
11564TIP3    H156107   1.839   4.821   5.467  0.9480 -3.7468 -1.7087
11564TIP3    H256108   1.973   4.753   5.452  4.0727  1.7038 -1.0822
11565TIP3   OH256109   3.514   2.401  13.164 -0.2851 -0.0839  0.0828
11565TIP3    H156110   3.505   2.493  13.140 -0.5460 -0.7774 -2.8405
11565TIP3    H256111   3.527   2.402  13.259 -1.1363  2.8836  0.2611
11566TIP3   OH256112   3.529   4.300   4.431 -0.0011  0.1984  0.4145
11566TIP3    H156113   3.527   4.227   4.493  1.2888  0.2655  0.5693
11566TIP3    H256114   3.614   4.291   4.387 -1.2048 -0.3755 -1.9900
11567TIP3   OH256115   0.267   2.915  15.265 -0.1829  0.2412  0.1899
11567TIP3    H156116   0.293   2.863  15.341 -0.6116 -1.4574 -0.7473
11567TIP3    H256117   0.268   2.852  15.193 -1.5436  1.3736 -0.8737
11568TIP3   OH256118   4.666   2.555   4.106  0.2143  0.4844 -0.1341
11568TIP3    H156119   4.610   2.535   4.181  1.4577  0.9619  0.9726
11568TIP3    H256120   4.750   2.579   4.145  0.9965  0.4333 -1.7115
11569TIP3   OH256121   6.014   5.786  16.481  0.0323  0.3011  0.0764
11569TIP3    H156122   6.057   5.792  16.396 -1.4996  0.1647 -0.7301
11569TIP3    H256123   6.064   5.845  16.538  0.9155  0.5816 -0.9700
11570TIP3   OH256124   5.658   6.506  13.473  1.1950 -0.2120  0.0416
11570TIP3    H156125   5.591   6.451  13.512 -0.4244  0.1485 -2.0232
11570TIP3    H256126   5.734   6.447  13.461  0.8801 -0.9218  1.3935
11571TIP3   OH256127   1.158   2.936  11.503 -0.4241  0.0393  0.1849
11571TIP3    H156128   1.117   2.878  11.566 -0.8045  1.5538  1.4127
11571TIP3    H256129   1.215   2.880  11.451 -4.8209 -2.4346 -2.4739
11572TIP3   OH256130   0.445   1.068  14.492  0.0088  0.7098 -0.1933
11572TIP3    H156131   0.489   1.004  14.548 -0.0189  0.4354 -0.4825
11572TIP3    H256132   0.363   1.026  14.468  0.5741  0.2828 -1.4823
11573TIP3   OH256133   4.756   0.635   0.086  0.6003  0.4364  0.0282
11573TIP3    H156134   4.795   0.547   0.080  0.3852  0.4365 -1.8873
11573TIP3    H256135   4.726   0.654  -0.002 -0.5220  1.9352  0.6954
11574TIP3   OH256136   6.131   4.747   4.348 -0.2552 -0.5746 -0.2972
11574TIP3    H156137   6.183   4.825   4.327  0.7637 -1.3767 -0.8158
11574TIP3    H256138   6.150   4.730   4.440  0.9564 -1.2576 -0.6605
11575TIP3   OH256139   2.683   4.942  16.631 -0.6544 -0.4698  0.4357
11575TIP3    H156140   2.747   4.871  16.635 -1.4883 -1.2136  0.9978
11575TIP3    H256141   2.727   5.016  16.673  0.2285 -0.6435 -0.1638
11576TIP3   OH256142   4.885   4.238  16.098  0.8050  0.4051 -0.3781
11576TIP3    H156143   4.979   4.230  16.112  0.9685  1.4635 -0.8017
11576TIP3    H256144   4.869   4.332  16.095 -0.0433  0.2451 -1.7017
11577TIP3   OH256145   1.202   5.401  15.526  0.3288 -0.2195 -0.8353
11577TIP3    H156146   1.275   5.374  15.469 -0.5713  0.3116 -2.2979
11577TIP3    H256147   1.239   5.399  15.614  1.5199 -2.0023 -1.3108
11578TIP3   OH256148   5.244   2.099  13.446 -0.0650 -0.0990  0.7120
11578TIP3    H156149   5.335   2.122  13.428 -0.2931 -0.7804 -1.6831
11578TIP3    H256150   5.221   2.038  13.376 -2.9361  1.5632  0.0627
11579TIP3   OH256151   1.817   3.492  17.318 -0.2562  0.1489 -0.4549
11579TIP3    H156152   1.745   3.532  17.269 -0.5877 -0.7349 -0.7269
11579TIP3    H256153   1.832   3.408  17.273 -2.0904 -1.7989  2.2483
11580TIP3   OH256154   4.486   4.452   2.922 -0.6849 -0.5723 -0.2062
11580TIP3    H156155   4.430   4.375   2.928 -1.5981  0.1137  0.4923
11580TIP3    H256156   4.559   4.425   2.866 -0.9867 -1.9239  0.0205
11581TIP3   OH256157   3.035   3.272   1.962 -0.1997 -0.4004 -0.3076
11581TIP3    H156158   3.063   3.242   1.875 -1.0671 -0.7424 -0.4798
11581TIP3    H256159   3.066   3.203   2.021 -0.5200 -0.7000 -0.4798
11582TIP3   OH256160   4.876   6.198   0.986 -0.2988  0.1936 -0.0584
11582TIP3    H156161   4.786   6.209   1.015 -0.4370  0.2870 -0.5149
11582TIP3    H256162   4.919   6.280   1.009 -0.6810  0.7055 -1.0932
11583TIP3   OH256163   4.778   3.954  17.309 -0.1812 -0.8843 -0.3687
11583TIP3    H156164   4.688   3.923  17.320 -0.9540  0.0821 -3.2406
11583TIP3    H256165   4.789   4.020  17.378 -2.4216  0.4144 -1.1609
11584TIP3   OH256166   6.093   2.799   2.562 -0.3263  0.2302 -0.0468
11584TIP3    H156167   6.143   2.802   2.481 -1.5275 -0.1175 -0.8394
11584TIP3    H256168   6.098   2.707   2.590  0.4980  0.4476  0.5638
11585TIP3   OH256169   4.316   3.375   3.993  0.3706 -0.1424 -0.6394
11585TIP3    H156170   4.236   3.327   4.012 -0.9413  1.9990 -0.4255
11585TIP3    H256171   4.384   3.328   4.041 -0.8044 -1.7853 -0.5011
11586TIP3   OH256172   5.593   2.145  15.502 -0.3957 -0.3664  0.3539
11586TIP3    H156173   5.511   2.141  15.453  0.3286  0.5037 -0.9738
11586TIP3    H256174   5.625   2.055  15.503  0.0554 -0.2706 -1.6476
11587TIP3   OH256175   5.746   6.219   3.053  0.3780  0.7501 -0.0138
11587TIP3    H156176   5.686   6.290   3.028 -0.1979  1.1707  2.3093
11587TIP3    H256177   5.730   6.207   3.147 -0.7024 -3.5472 -0.5601
11588TIP3   OH256178   5.674   6.289  11.589  0.3802 -0.0545 -0.0088
11588TIP3    H156179   5.749   6.295  11.648 -0.7197  2.9177  1.2651
11588TIP3    H256180   5.707   6.318  11.504  0.7715  0.8602  0.4503
11589TIP3   OH256181   5.004   4.944  16.150  0.1266 -0.5100 -0.0149
11589TIP3    H156182   5.072   4.996  16.192 -0.0337  1.2083 -1.7764
11589TIP3    H256183   5.034   4.933  16.060  0.0952 -3.4633  0.2314
11590TIP3   OH256184   0.771   1.906   3.096  0.1335  0.5317 -0.2561
11590TIP3    H156185   0.855   1.943   3.122 -0.0442  0.2266  0.7982
11590TIP3    H256186   0.719   1.905   3.176 -0.2717 -0.9032 -0.4994
11591TIP3   OH256187   6.668   6.286  15.328  0.0852 -0.2014  0.2469
11591TIP3    H156188   6.596   6.305  15.268  1.0539  1.1269 -0.5611
11591TIP3    H256189   6.747   6.297  15.276  0.9315  0.0343  1.5187
11592TIP3   OH256190   3.213   4.497  12.095  0.3343  0.0977  0.3451
11592TIP3    H156191   3.266   4.446  12.155  0.3988 -2.0044 -1.3665
11592TIP3    H256192   3.275   4.531  12.030 -0.0955 -0.4914 -0.3958
11593TIP3   OH256193   3.334   3.631   4.696 -0.2366 -0.1997  0.4045
11593TIP3    H156194   3.312   3.694   4.627  1.3075  1.4354  1.3219
11593TIP3    H256195   3.335   3.546   4.651  1.7445  0.9028 -1.8760
11594TIP3   OH256196   4.424   0.037   0.305  0.2569  0.6545 -0.2336
11594TIP3    H156197   4.496   0.097   0.324  0.5265  0.3648 -0.3437
11594TIP3    H256198   4.442   0.003   0.218 -0.2170  0.8676 -0.4217
11595TIP3   OH256199   2.575   3.382  13.514 -0.0538 -0.1114  0.1223
11595TIP3    H156200   2.548   3.291  13.527  0.5979 -0.4063 -0.5288
11595TIP3    H256201   2.580   3.392  13.419  2.5533 -0.2116  0.1779
11596TIP3   OH256202   6.055   6.756   1.667 -0.3258 -0.1441 -0.0068
11596TIP3    H156203   6.044   6.824   1.601  0.7567 -1.6811 -1.8873
11596TIP3    H256204   5.977   6.763   1.722 -0.7319  1.9106 -0.7479
11597TIP3   OH256205   3.003   5.331   2.131 -0.1558 -0.1408  0.3975
11597TIP3    H156206   3.048   5.283   2.201  0.9972  3.0559  2.0449
11597TIP3    H256207   3.073   5.361   2.074 -0.2998  2.7443  1.5756
11598TIP3   OH256208   3.516   6.276   1.717 -0.1610  0.2377  0.1652
11598TIP3    H156209   3.586   6.257   1.655 -0.0755  0.8882  0.0560
11598TIP3    H256210   3.443   6.307   1.663 -0.7124 -0.8847  0.2317
11599TIP3   OH256211   1.624   6.486  13.398 -0.0266 -0.0017  0.3476
11599TIP3    H156212   1.689   6.467  13.331 -0.0678  0.0642  0.2891
11599TIP3    H256213   1.664   6.455  13.479  0.2518  0.4082  0.3738
11600TIP3   OH256214   2.197   1.193   2.723  0.0487  0.4491 -0.0242
11600TIP3    H156215   2.268   1.138   2.691  1.2701  1.9239  0.0099
11600TIP3    H256216   2.134   1.195   2.652  1.7883  2.0513 -1.6649
11601TIP3   OH256217   0.661   3.378  16.425 -0.2035  0.4240 -0.0638
11601TIP3    H156218   0.702   3.297  16.455 -2.2119 -0.3134  0.9142
11601TIP3    H256219   0.694   3.391  16.336 -0.5797 -2.0579 -0.6438
11602TIP3   OH256220   3.430   1.521  13.046  0.1667  0.3772 -0.3406
11602TIP3    H156221   3.373   1.524  12.969  1.5415  0.1884 -1.4012
11602TIP3    H256222   3.519   1.525  13.010  0.8766 -0.9019  1.1671
11603TIP3   OH256223   0.973   6.251  16.597  0.1494  0.2624 -0.8283
11603TIP3    H156224   0.918   6.180  16.565 -1.8246  1.2331  0.2156
11603TIP3    H256225   0.954   6.324  16.537  1.4738  0.2050 -1.3521
11604TIP3   OH256226   4.793   4.361   3.600 -0.9063  0.1285 -0.2964
11604TIP3    H156227   4.812   4.447   3.563 -0.8535  0.7124  1.0334
11604TIP3    H256228   4.857   4.350   3.670  0.0807 -1.6775 -1.3999
11605TIP3   OH256229   0.751   1.460  15.934  0.1113  0.8032  0.8357
11605TIP3    H156230   0.799   1.417  16.005 -0.4523 -0.4445  0.4793
11605TIP3    H256231   0.668   1.414  15.929 -0.0478  1.1775 -0.3359
11606TIP3   OH256232   0.559   5.451   2.509 -0.2119 -0.0636  0.7676
11606TIP3    H156233   0.651   5.436   2.490 -0.1495  0.3153  0.7694
11606TIP3    H256234   0.525   5.365   2.534 -0.2187 -0.5332 -0.7597
11607TIP3   OH256235   0.421   5.264  12.183  0.0506 -0.5340  1.3375
11607TIP3    H156236   0.329   5.281  12.164  1.0132  1.7815 -1.9925
11607TIP3    H256237   0.434   5.172  12.158 -0.9597 -0.2962 -0.1748
11608TIP3   OH256238   0.787   3.621   5.866 -0.2961  0.3894  0.4916
11608TIP3    H156239   0.734   3.541   5.864 -0.1224  0.2168  1.9882
11608TIP3    H256240   0.726   3.691   5.845 -0.4004 -0.1350 -1.1067
11609TIP3   OH256241   3.674   4.721  16.596  0.0205 -0.4474 -0.0011
11609TIP3    H156242   3.604   4.728  16.661 -0.0908  1.9900 -0.3191
11609TIP3    H256243   3.754   4.742  16.645  0.0441  0.4955 -0.4271
11610TIP3   OH256244   5.996   4.185   2.970 -0.4102 -0.0625 -0.1600
11610TIP3    H156245   6.044   4.235   3.037 -0.4060 -0.7715  0.3834
11610TIP3    H256246   5.917   4.155   3.015  0.6959 -2.5394  0.2822
11611TIP3   OH256247   5.734   0.108  11.156  0.0550 -0.1055 -0.6170
11611TIP3    H156248   5.797   0.090  11.226 -0.8893 -0.1900  0.2378
11611TIP3    H256249   5.787   0.132  11.081  1.2578 -2.7084 -0.7053
11612TIP3   OH256250   3.624   0.145   4.075 -0.2831  0.3944  0.3964
11612TIP3    H156251   3.532   0.153   4.103 -0.5727 -2.3811  0.5712
11612TIP3    H256252   3.669   0.110   4.153  0.8177  1.1932  0.1343
11613TIP3   OH256253   0.824   5.770   1.956  0.1574 -0.0502  0.6233
11613TIP3    H156254   0.837   5.864   1.948  1.3582 -0.2986 -0.5174
11613TIP3    H256255   0.910   5.736   1.980  0.3781 -1.1276 -1.5335
11614TIP3   OH256256   6.392   6.262  14.160 -0.2292  0.1205 -0.1781
11614TIP3    H156257   6.447   6.212  14.100  0.7075  0.6798  0.1929
11614TIP3    H256258   6.387   6.207  14.238 -0.1145  0.1073 -0.1791
11615TIP3   OH256259   3.923   0.081  11.476  0.5769 -0.1430 -0.5281
11615TIP3    H156260   3.903   0.063  11.567 -1.2649 -0.7563 -1.0026
11615TIP3    H256261   3.960  -0.000  11.442  1.1771  0.0562 -0.3561
11616TIP3   OH256262   4.194   0.995  17.271  0.0063 -0.5390 -0.1345
11616TIP3    H156263   4.099   1.001  17.270 -0.0256 -0.6699  1.0266
11616TIP3    H256264   4.213   0.908  17.236 -0.2622 -0.2339 -1.0495
11617TIP3   OH256265   5.964   5.598  12.665  0.0458  0.0121 -0.3606
11617TIP3    H156266   5.895   5.604  12.731  0.3039 -2.2337  0.1817
11617TIP3    H256267   5.918   5.610  12.581 -0.8494 -0.5435  0.0420
11618TIP3   OH256268   1.888   3.729   4.794  0.2766  0.2168  0.4677
11618TIP3    H156269   1.843   3.645   4.793  0.5455  0.0781 -0.2195
11618TIP3    H256270   1.969   3.712   4.842  1.2868 -0.4283 -1.3910
11619TIP3   OH256271   6.475   1.089   5.379  0.4200 -0.1715  0.0363
11619TIP3    H156272   6.538   1.138   5.432  0.4389 -0.1235 -0.0317
11619TIP3    H256273   6.402   1.071   5.438  1.0831 -1.3941  0.5222
11620TIP3   OH256274   1.606   1.494  10.726  0.0753 -0.3242 -0.4735
11620TIP3    H156275   1.608   1.474  10.820 -1.1055 -2.6346 -0.8607
11620TIP3    H256276   1.525   1.453  10.695 -0.0275  1.2158 -2.3521
11621TIP3   OH256277   1.898   3.947   0.173  0.1936  0.0524 -0.1416
11621TIP3    H156278   1.922   3.886   0.244 -0.3771 -0.3636 -0.2985
11621TIP3    H256279   1.909   4.034   0.212 -0.1569 -0.1711  0.4746
11622TIP3   OH256280   1.944   0.412   2.816  0.0014 -0.2448 -0.3591
11622TIP3    H156281   1.953   0.472   2.890  0.2124 -0.0600 -0.5325
11622TIP3    H256282   1.949   0.325   2.856 -3.6593 -0.2749  0.3662
11623TIP3   OH256283   4.940   0.440   0.880 -0.3128  0.1519  0.0081
11623TIP3    H156284   4.952   0.534   0.893  0.4050  0.2933 -1.4880
11623TIP3    H256285   4.928   0.430   0.786 -1.0871 -1.1906  0.2254
11624TIP3   OH256286   3.462   1.749   1.729 -0.0802  0.1207  0.4959
11624TIP3    H156287   3.464   1.781   1.819  1.6455  3.1204 -0.4754
11624TIP3    H256288   3.539   1.692   1.722 -1.1228 -1.4656  1.2615
11625TIP3   OH256289   5.582   6.517   4.193 -0.0684 -0.1985 -0.3513
11625TIP3    H156290   5.557   6.477   4.276 -0.1964  1.3682  0.3994
11625TIP3    H256291   5.654   6.462   4.161  1.0517  0.0602  1.5697
11626TIP3   OH256292   5.415   1.082   1.577  0.0266  0.1124 -0.1290
11626TIP3    H156293   5.410   1.172   1.610  1.8828  0.4024 -0.5157
11626TIP3    H256294   5.436   1.092   1.484  2.0033 -0.6842  0.1931
11627TIP3   OH256295   3.361   4.443  11.473  0.0180 -0.2607  0.0273
11627TIP3    H156296   3.328   4.430  11.562 -0.6994  1.4790  0.0362
11627TIP3    H256297   3.290   4.413  11.416 -0.8074  1.5513  0.0551
11628TIP3   OH256298   5.504   5.285   6.592  0.0576 -0.0378 -0.2169
11628TIP3    H156299   5.462   5.221   6.649  0.9135  0.5289  1.0947
11628TIP3    H256300   5.486   5.253   6.503  0.4862 -2.1146  0.3846
11629TIP3   OH256301   4.541   6.055  13.341  0.3625 -0.3117 -0.4041
11629TIP3    H156302   4.628   6.094  13.335  0.0065  0.9203  1.4257
11629TIP3    H256303   4.488   6.107  13.280  0.7344 -0.5537 -0.9377
11630TIP3   OH256304   6.619   2.399  13.935 -0.3733 -0.2160 -0.3339
11630TIP3    H156305   6.643   2.331  13.998 -0.5634  0.9638  1.0641
11630TIP3    H256306   6.557   2.356  13.876 -1.7699 -0.8394  1.5110
11631TIP3   OH256307   4.390   1.391   4.477  0.4585 -0.4492 -0.0312
11631TIP3    H156308   4.353   1.324   4.535  1.0229 -0.1467  0.6876
11631TIP3    H256309   4.475   1.412   4.515 -0.2760  1.6743  0.5713
11632TIP3   OH256310   1.871   0.287   6.395 -0.3493  0.0793  0.2738
11632TIP3    H156311   1.828   0.205   6.371 -0.3623  0.2539 -0.3068
11632TIP3    H256312   1.921   0.266   6.474  1.2761 -1.0213 -0.9852
11633TIP3   OH256313   5.362   5.324   3.561  0.1798 -0.5551  0.1198
11633TIP3    H156314   5.296   5.277   3.612 -1.7967  0.3955 -1.4193
11633TIP3    H256315   5.338   5.416   3.570  0.0717 -0.3223 -2.0264
11634TIP3   OH256316   0.043   5.314   2.960  0.0474 -0.0406  0.1445
11634TIP3    H156317   0.008   5.374   3.026  0.4170 -0.5967  0.8561
11634TIP3    H256318   0.018   5.354   2.876 -0.0324  0.9083  0.6083
11635TIP3   OH256319   3.935   6.168   2.343 -0.4497 -0.2161  0.1006
11635TIP3    H156320   3.883   6.218   2.406 -0.9892 -0.6441  0.0077
11635TIP3    H256321   3.912   6.076   2.360  2.6420 -0.7544  2.2199
11636TIP3   OH256322   3.372   0.692  13.991 -0.5134  1.1250 -0.3069
11636TIP3    H156323   3.296   0.673  14.046  1.2106 -1.9682  1.2725
11636TIP3    H256324   3.395   0.609  13.951  2.1736  1.8501 -0.5022
11637TIP3   OH256325   3.348   2.477  13.732  0.1266  0.4782 -0.0820
11637TIP3    H156326   3.426   2.511  13.689 -0.1757  1.7436  0.3172
11637TIP3    H256327   3.283   2.471  13.662  0.2680  0.4334 -0.2109
11638TIP3   OH256328   0.949   0.022  15.773  0.1951  0.5191 -0.0744
11638TIP3    H156329   1.023  -0.007  15.720 -0.2105 -0.7008 -0.0272
11638TIP3    H256330   0.887  -0.052  15.769 -1.7111  2.0973 -1.4044
11639TIP3   OH256331   5.813   6.244   3.561 -0.6042  0.5447  0.2609
11639TIP3    H156332   5.867   6.166   3.573 -1.5821  0.0052  1.3089
11639TIP3    H256333   5.873   6.309   3.524  0.5194 -0.3226  0.4992
11640TIP3   OH256334   2.441   0.351   0.018 -0.6974  0.0500  1.0308
11640TIP3    H156335   2.406   0.321  -0.066  0.0989  0.7167  0.4593
11640TIP3    H256336   2.388   0.427   0.040 -1.4404 -0.5981  1.5402
11641TIP3   OH256337   1.375   5.907  11.753  0.1685 -0.0260 -0.1448
11641TIP3    H156338   1.357   6.001  11.753  0.3424  0.0340  1.4252
11641TIP3    H256339   1.453   5.898  11.699 -1.5489  0.3079 -2.9064
11642TIP3   OH256340   0.324   0.271  13.007  0.2532  0.1950 -0.0625
11642TIP3    H156341   0.309   0.188  13.052 -1.0732  1.8826  2.8629
11642TIP3    H256342   0.242   0.289  12.961  0.5490 -0.0891 -0.7162
11643TIP3   OH256343   2.991   0.494   4.079  0.1215 -0.6103 -0.2292
11643TIP3    H156344   3.046   0.417   4.064  1.0036  0.1840 -1.2728
11643TIP3    H256345   3.054   0.563   4.101 -0.7008 -0.3001  1.2514
11644TIP3   OH256346   0.340   1.263   1.631  0.0447  0.3155  0.5284
11644TIP3    H156347   0.427   1.302   1.641  0.1309  1.1098 -2.4577
11644TIP3    H256348   0.281   1.337   1.619 -0.6484 -0.3091 -0.0042
11645TIP3   OH256349   2.371   0.699   4.022  0.2894 -0.6813 -0.2273
11645TIP3    H156350   2.464   0.686   4.001  0.4795  0.7235 -0.3579
11645TIP3    H256351   2.325   0.637   3.965  1.0280  0.2329 -1.9014
11646TIP3   OH256352   3.269   1.543  11.839 -0.3684  0.0570 -0.3226
11646TIP3    H156353   3.322   1.506  11.910 -0.9401 -1.5486 -0.6954
11646TIP3    H256354   3.331   1.564  11.770  0.0012  0.0876  0.0163
11647TIP3   OH256355   6.151   0.026  11.588  0.1364 -0.1107 -0.4129
11647TIP3    H156356   6.209   0.070  11.650 -0.0906 -0.6310  0.1760
11647TIP3    H256357   6.155  -0.067  11.611 -1.2545 -0.1181 -0.0620
11648TIP3   OH256358   0.406   3.286  14.250  0.0346  0.3097 -0.5011
11648TIP3    H156359   0.374   3.344  14.319 -1.0831 -0.8967  0.0450
11648TIP3    H256360   0.369   3.201  14.272  2.9573 -1.0526 -0.2829
11649TIP3   OH256361   5.478   2.242   0.067  0.9733 -0.5166  0.6960
11649TIP3    H156362   5.452   2.324   0.024  1.8653 -0.1770  0.7802
11649TIP3    H256363   5.454   2.255   0.159 -0.3284 -0.9818  0.4357
11650TIP3   OH256364   5.508   5.442  15.893  0.2393  0.3276  0.4913
11650TIP3    H156365   5.489   5.356  15.855 -1.4760  1.0835 -0.5065
11650TIP3    H256366   5.496   5.430  15.987 -2.4523 -0.0067  0.1732
11651TIP3   OH256367   2.169   0.280  14.613 -0.0382  0.0807 -0.0268
11651TIP3    H156368   2.201   0.190  14.599  0.6969  0.4253 -0.6256
11651TIP3    H256369   2.146   0.311  14.525 -1.6336  0.0122  0.3322
11652TIP3   OH256370   2.538   6.433   1.979  0.1061 -0.1864 -0.2247
11652TIP3    H156371   2.531   6.437   1.883  0.1588 -0.6103 -0.2452
11652TIP3    H256372   2.581   6.349   1.997  0.6871  0.1780  0.1385
11653TIP3   OH256373   3.426   2.959  13.270 -0.1500 -0.3622 -0.1910
11653TIP3    H156374   3.442   2.988  13.360 -1.6968  0.7359 -0.2404
11653TIP3    H256375   3.510   2.921  13.243 -0.3196 -3.1019  2.5527
11654TIP3   OH256376   3.084   0.328   3.721  0.2966  0.0288  0.2419
11654TIP3    H156377   3.177   0.310   3.733 -0.1120 -1.8281  0.8887
11654TIP3    H256378   3.043   0.293   3.800 -0.7912  2.5743  0.8995
11655TIP3   OH256379   2.670   5.690   3.775 -0.5779  0.2994 -0.2947
11655TIP3    H156380   2.761   5.709   3.798 -0.3430 -0.5473 -0.4671
11655TIP3    H256381   2.627   5.672   3.859 -1.2862  3.3589  0.0887
11656TIP3   OH256382   4.159   4.851  16.282 -0.0560 -0.0386  0.4902
11656TIP3    H156383   4.160   4.944  16.305 -1.1249  0.0555  0.2349
11656TIP3    H256384   4.122   4.849  16.193  2.5857 -0.5040 -0.6896
11657TIP3   OH256385   0.823   0.741  15.992  0.6138  0.6466 -0.4130
11657TIP3    H156386   0.829   0.836  15.983  0.5271  0.8902  1.6688
11657TIP3    H256387   0.871   0.721  16.072 -0.3809 -0.9152 -0.1516
11658TIP3   OH256388   3.391   3.930   1.517 -0.2723  0.1052  1.0464
11658TIP3    H156389   3.406   3.936   1.422 -1.6130 -1.5550  0.6877
11658TIP3    H256390   3.478   3.940   1.555  0.1629  1.8654 -0.2777
11659TIP3   OH256391   6.411   3.538   5.542  0.1076 -0.0699  0.3514
11659TIP3    H156392   6.390   3.511   5.453  0.3662  1.9336 -0.3633
11659TIP3    H256393   6.506   3.547   5.544  0.0458  0.6553  0.5767
11660TIP3   OH256394   3.882   4.107  12.556 -0.0847 -0.5799  0.4316
11660TIP3    H156395   3.946   4.116  12.485  0.3107  0.6020  0.8987
11660TIP3    H256396   3.852   4.197  12.572 -1.5224 -1.0651  0.5422
11661TIP3   OH256397   1.573   2.573  15.290 -0.1076  0.4379 -0.7930
11661TIP3    H156398   1.656   2.564  15.244 -0.4553  0.2069 -1.3807
11661TIP3    H256399   1.597   2.575  15.383  0.5415  0.2759 -0.9538
11662TIP3   OH256400   5.097   0.385  14.931 -0.9193 -0.1201  0.0626
11662TIP3    H156401   5.147   0.445  14.987 -0.1049 -0.7507  0.0343
11662TIP3    H256402   5.151   0.306  14.927 -1.2344 -0.2841 -1.1703
11663TIP3   OH256403   4.627   5.062  17.011 -0.1873 -0.3690  0.8971
11663TIP3    H156404   4.622   5.067  16.915 -1.0026  0.3824  0.9626
11663TIP3    H256405   4.551   5.010  17.036  0.7179 -1.6317  1.0741
11664TIP3   OH256406   2.884   2.196  14.519 -0.1816 -0.0595 -0.1723
11664TIP3    H156407   2.794   2.184  14.487 -0.2350  0.8699 -0.4024
11664TIP3    H256408   2.898   2.291  14.516  1.0017 -0.2339 -0.6421
11665TIP3   OH256409   5.121   2.955  13.250  0.2070 -0.1497 -0.3328
11665TIP3    H156410   5.026   2.972  13.253 -0.0013 -1.1921 -0.5176
11665TIP3    H256411   5.135   2.887  13.316  0.7711 -0.2295 -0.5350
11666TIP3   OH256412   2.803   4.816  14.130  0.7084 -0.1004 -0.3411
11666TIP3    H156413   2.855   4.770  14.196 -0.5512 -1.9275 -0.5494
11666TIP3    H256414   2.764   4.889  14.178  2.0995  0.3191  0.2073
11667TIP3   OH256415   1.788   3.077  16.220 -0.4812  0.2772  0.6829
11667TIP3    H156416   1.700   3.111  16.201 -1.3916 -2.0417  0.3960
11667TIP3    H256417   1.824   3.054  16.134 -0.5154 -0.8302  0.9476
11668TIP3   OH256418   0.796   1.978  16.979 -0.4733  0.1105  0.0182
11668TIP3    H156419   0.717   2.028  16.959 -0.8966 -1.0499 -1.3275
11668TIP3    H256420   0.764   1.896  17.016  0.2109  0.6972  2.0712
11669TIP3   OH256421   6.292   5.789   1.136 -0.6493 -0.6164 -0.3632
11669TIP3    H156422   6.329   5.828   1.057 -0.3022 -1.4841 -0.6328
11669TIP3    H256423   6.218   5.737   1.106 -0.8377 -0.5279 -0.0584
11670TIP3   OH256424   3.479   1.930   4.164  0.0711  0.0957 -0.1609
11670TIP3    H156425   3.432   1.984   4.227 -0.8807 -0.8879 -0.0092
11670TIP3    H256426   3.421   1.926   4.088  0.8624  0.6197 -0.8203
11671TIP3   OH256427   4.532   5.657   3.750  0.3721  0.1158  0.1576
11671TIP3    H156428   4.466   5.709   3.797  0.0695 -0.6879  0.6415
11671TIP3    H256429   4.607   5.655   3.809  0.7949  0.9101 -0.3330
11672TIP3   OH256430   6.188   4.913  12.814  0.1415  0.1270  0.5344
11672TIP3    H156431   6.155   4.826  12.790  0.0808  0.4706 -0.7231
11672TIP3    H256432   6.277   4.898  12.845  1.0479 -0.1965 -1.9355
11673TIP3   OH256433   3.957   5.620  15.553 -0.4298 -0.5145 -0.2701
11673TIP3    H156434   3.878   5.591  15.507 -1.1441  0.4777  0.2947
11673TIP3    H256435   3.928   5.638  15.643 -0.1301  2.1176 -0.6036
11674TIP3   OH256436   5.081   6.030   2.537 -0.8255  0.1598  0.8711
11674TIP3    H156437   5.008   6.047   2.478  0.3432  0.6883 -0.4900
11674TIP3    H256438   5.043   6.031   2.625 -2.0764  2.7593  0.3729
11675TIP3   OH256439   6.457   5.330   6.125 -0.1529  0.1940  0.4458
11675TIP3    H156440   6.486   5.397   6.062 -0.4436 -0.2747 -0.1959
11675TIP3    H256441   6.491   5.360   6.209 -0.8037  1.4811  0.2748
11676TIP3   OH256442   1.600   5.725   2.339 -0.8726 -0.8231  0.0362
11676TIP3    H156443   1.682   5.742   2.294 -1.5595  0.4906 -0.7884
11676TIP3    H256444   1.591   5.798   2.401 -1.7447 -0.5531 -0.3915
11677TIP3   OH256445   3.533   0.398  11.627 -0.1707 -0.2231 -0.0308
11677TIP3    H156446   3.544   0.481  11.674  0.5609 -0.0783 -0.4385
11677TIP3    H256447   3.489   0.422  11.546 -1.6373 -0.5038  0.6385
11678TIP3   OH256448   1.475   5.488   3.499 -0.2551 -0.4911  0.3151
11678TIP3    H156449   1.386   5.523   3.507  0.0220 -0.1478  2.9316
11678TIP3    H256450   1.486   5.433   3.577  2.3162  0.7438  0.9232
11679TIP3   OH256451   2.144   0.093  13.457  0.3889  0.1201  0.5995
11679TIP3    H156452   2.061   0.139  13.471 -0.5403 -1.1270 -0.5090
11679TIP3    H256453   2.173   0.121  13.370  0.8593  0.1453  0.7613
11680TIP3   OH256454   3.554   6.222   2.231 -0.2132  0.2233  0.2654
11680TIP3    H156455   3.642   6.248   2.256  0.5590 -3.4638  2.1026
11680TIP3    H256456   3.498   6.296   2.257  1.8897  1.0250  2.8985
11681TIP3   OH256457   2.200   0.987  11.358 -0.1824  0.1197 -0.0215
11681TIP3    H156458   2.144   1.064  11.347  1.1695  1.0503 -0.5446
11681TIP3    H256459   2.237   0.972  11.271 -0.0905 -0.8590  0.1786
11682TIP3   OH256460   6.117   3.629  11.928  0.0899 -0.5330  0.0275
11682TIP3    H156461   6.205   3.664  11.941 -0.3573  0.3272  0.8832
11682TIP3    H256462   6.072   3.697  11.878 -0.6300 -0.0849  1.2371
11683TIP3   OH256463   3.989   3.282   3.601  0.4008 -0.1238  0.2577
11683TIP3    H156464   3.925   3.247   3.539 -1.0520 -1.7362  2.4814
11683TIP3    H256465   3.938   3.343   3.655  0.8092 -1.0294  1.7202
11684TIP3   OH256466   3.508   3.887   5.118  0.1438 -0.4474 -0.3444
11684TIP3    H156467   3.470   3.884   5.031  0.5138 -0.0040 -0.5248
11684TIP3    H256468   3.513   3.980   5.139  0.8758 -0.5101 -0.2133
11685TIP3   OH256469   5.136   1.131   3.667  0.4969  0.3068  0.2162
11685TIP3    H156470   5.231   1.135   3.654  0.3437  1.4998 -0.7646
11685TIP3    H256471   5.117   1.037   3.674  1.5796 -0.0627 -1.1543
11686TIP3   OH256472   5.232   0.870  13.904  0.2763  0.6250  0.4138
11686TIP3    H156473   5.324   0.894  13.907  0.3912  0.1410  0.8331
11686TIP3    H256474   5.232   0.775  13.892 -0.1647  0.5669  0.8500
11687TIP3   OH256475   6.209   2.419   4.539  0.2024  0.3381 -0.3894
11687TIP3    H156476   6.207   2.508   4.574  0.6088 -0.3937  1.6329
11687TIP3    H256477   6.268   2.372   4.598 -0.6893 -1.4856 -0.8898
11688TIP3   OH256478   6.492   3.472   3.776 -0.0372  0.3450 -0.6252
11688TIP3    H156479   6.553   3.408   3.812 -0.9280 -0.8616 -1.1511
11688TIP3    H256480   6.411   3.457   3.825  0.0222  1.8132 -0.0350
11689TIP3   OH256481   0.474   2.208   4.793 -0.7125 -0.7324  0.0378
11689TIP3    H156482   0.515   2.262   4.860 -1.5901 -0.2369  0.1827
11689TIP3    H256483   0.380   2.212   4.812 -0.8007 -2.5576  0.2435
11690TIP3   OH256484   0.736   2.515   4.628 -0.1347 -0.2651 -0.0018
11690TIP3    H156485   0.736   2.576   4.555 -0.8984 -0.6542 -0.3384
11690TIP3    H256486   0.725   2.570   4.706  2.4734  0.3510  0.0428
11691TIP3   OH256487   1.122   4.858  13.601 -0.0185  0.3861 -0.4530
11691TIP3    H156488   1.037   4.820  13.623 -0.1555  0.6779 -0.4735
11691TIP3    H256489   1.117   4.948  13.635  0.5249  0.1966  0.1377
11692TIP3   OH256490   2.527   4.464   4.209 -0.6205  0.4054  0.5674
11692TIP3    H156491   2.543   4.503   4.295  0.6309  1.5887 -0.1694
11692TIP3    H256492   2.535   4.369   4.224  2.6046  0.6631  1.2503
11693TIP3   OH256493   5.133   6.534  15.078 -0.0652 -0.4906 -0.4249
11693TIP3    H156494   5.219   6.576  15.071 -0.4233  0.4406  0.5776
11693TIP3    H256495   5.071   6.600  15.048 -0.7318  0.1424  2.1315
11694TIP3   OH256496   2.421   2.615  11.676 -0.1425 -0.7794  0.1691
11694TIP3    H156497   2.351   2.551  11.688 -0.6174 -0.0970  1.2559
11694TIP3    H256498   2.455   2.598  11.588 -1.6927 -1.1318 -0.3955
11695TIP3   OH256499   6.676   4.963  12.755 -0.4443  0.1491  0.1630
11695TIP3    H156500   6.636   5.009  12.681 -1.5800 -1.3771 -0.2037
11695TIP3    H256501   6.753   4.920  12.718 -0.7006 -0.1586 -0.0180
11696TIP3   OH256502   3.778   0.803  13.002  0.1387 -0.3699  0.3002
11696TIP3    H156503   3.782   0.739  13.074  1.7103 -0.2913  0.3173
11696TIP3    H256504   3.807   0.885  13.041 -2.0498  0.4679  0.3240
11697TIP3   OH256505   1.681   5.861   0.257 -0.2349 -0.4088  0.2735
11697TIP3    H156506   1.762   5.811   0.250  0.2379  0.5551 -2.2217
11697TIP3    H256507   1.613   5.801   0.229  0.0302 -0.3633 -0.4932
11698TIP3   OH256508   3.052   4.216   2.823  0.3600 -0.4154 -0.5415
11698TIP3    H156509   3.001   4.253   2.896  1.0242 -1.0808  0.2837
11698TIP3    H256510   2.999   4.233   2.746 -1.1580 -1.1383  0.2990
11699TIP3   OH256511   5.792   5.623   2.605 -0.3389  0.3505  1.2160
11699TIP3    H156512   5.715   5.578   2.642  0.2337 -0.4664  1.4469
11699TIP3    H256513   5.866   5.588   2.655  0.1559  1.4292  1.2752
11700TIP3   OH256514   1.657   3.074   3.104 -0.0804  0.0237 -0.3342
11700TIP3    H156515   1.625   3.013   3.037 -0.0676  0.3177 -0.6118
11700TIP3    H256516   1.724   3.024   3.152 -1.7791 -1.0250  1.0662
11701TIP3   OH256517   0.823   3.603  15.496  0.1427  0.0079 -0.0366
11701TIP3    H156518   0.760   3.630  15.429 -1.4065 -0.0363  1.3237
11701TIP3    H256519   0.876   3.535  15.454 -0.0590  0.7269 -1.5260
11702TIP3   OH256520   4.469   0.430  10.707  0.4064  0.3296 -0.2955
11702TIP3    H156521   4.458   0.516  10.667 -2.4663 -0.0122 -0.5020
11702TIP3    H256522   4.397   0.424  10.770  2.2006 -0.8694  1.7934
11703TIP3   OH256523   0.518   3.275  13.982 -0.1113 -0.3089  0.3320
11703TIP3    H156524   0.476   3.299  14.064  1.8582  1.2249  0.9694
11703TIP3    H256525   0.599   3.231  14.008 -0.2575 -1.3275 -0.8194
11704TIP3   OH256526   5.777   2.370  13.764 -0.4252 -0.2598 -0.1708
11704TIP3    H156527   5.811   2.459  13.770  1.0677 -0.8704  1.5687
11704TIP3    H256528   5.686   2.377  13.792 -0.5025  0.7943 -0.6504
11705TIP3   OH256529   2.553   5.056  12.608  0.0589 -0.2500 -0.1764
11705TIP3    H156530   2.557   5.099  12.694  1.0093 -0.6792  0.0094
11705TIP3    H256531   2.501   4.977  12.623  1.5681 -1.1727  0.4108
11706TIP3   OH256532   3.390   3.236  12.504  0.2003  0.2547  0.3129
11706TIP3    H156533   3.449   3.161  12.508  1.2229  1.0092 -0.1242
11706TIP3    H256534   3.305   3.199  12.481  1.0341 -0.6154 -1.5549
11707TIP3   OH256535   0.230   1.456   2.822 -0.0575  0.2585  0.0595
11707TIP3    H156536   0.146   1.474   2.865  0.6951  1.1923  1.1891
11707TIP3    H256537   0.269   1.542   2.810  1.3753 -0.2606  0.8542
11708TIP3   OH256538   6.053   1.052  12.562 -0.4667 -0.2113 -0.1958
11708TIP3    H156539   6.060   0.979  12.501 -0.2690 -0.4762  0.1458
11708TIP3    H256540   6.108   1.121  12.523 -0.3780 -0.3622 -0.3396
11709TIP3   OH256541   4.278   4.892  13.764  0.1130 -0.6352 -0.0945
11709TIP3    H156542   4.356   4.876  13.710  1.9614 -2.5789  2.8378
11709TIP3    H256543   4.243   4.805  13.782 -2.3302  0.1602 -0.6277
11710TIP3   OH256544   4.576   4.832   3.289 -0.4812  0.1203  0.2697
11710TIP3    H156545   4.541   4.796   3.208  2.2403 -0.9308 -0.5459
11710TIP3    H256546   4.561   4.764   3.355  0.5979 -0.6514 -0.2458
11711TIP3   OH256547   4.646   3.223   0.060  0.2148  0.3013 -0.1878
11711TIP3    H156548   4.628   3.143   0.011  2.2282 -0.8985  0.9112
11711TIP3    H256549   4.603   3.210   0.145  1.9812 -0.4402  0.6390
11712TIP3   OH256550   0.523   3.970  14.058  0.5385  0.8318  0.3540
11712TIP3    H156551   0.588   4.012  14.114  1.7175  0.1237 -0.4593
11712TIP3    H256552   0.468   3.920  14.119  2.8957 -1.4139  0.7943
11713TIP3   OH256553   5.355   4.103   1.156 -0.3892 -0.6376 -0.2148
11713TIP3    H156554   5.382   4.195   1.151  2.1512 -0.8248  4.3613
11713TIP3    H256555   5.287   4.101   1.223  1.3948 -2.1643  1.7208
11714TIP3   OH256556   4.124   0.117   1.000  0.1408 -0.6656 -0.7715
11714TIP3    H156557   4.030   0.103   1.002  0.1015 -0.3821  0.7993
11714TIP3    H256558   4.146   0.143   1.089  1.6457 -0.3105 -1.2204
11715TIP3   OH256559   1.682   6.467   5.258 -0.0559 -0.0809 -0.2537
11715TIP3    H156560   1.723   6.382   5.240 -1.5997 -0.4982 -2.0662
11715TIP3    H256561   1.666   6.504   5.172  0.7605  2.1907  0.5077
11716TIP3   OH256562   0.495   5.306  11.030 -0.1202  0.8734 -0.1381
11716TIP3    H156563   0.522   5.352  10.951 -0.5913 -0.2804 -0.9883
11716TIP3    H256564   0.537   5.220  11.024 -0.7827  0.4922  0.4776
11717TIP3   OH256565   0.175   6.184   4.440 -0.4637  0.7417  0.0884
11717TIP3    H156566   0.084   6.206   4.458 -0.2926  3.1750 -1.4738
11717TIP3    H256567   0.225   6.251   4.487  0.3698  0.9917 -1.1162
11718TIP3   OH256568   6.289   0.517   0.274 -0.0921 -0.1064 -0.0990
11718TIP3    H156569   6.242   0.599   0.290  2.8235  1.9523 -1.0531
11718TIP3    H256570   6.337   0.500   0.355  0.7418  0.2248 -0.5061
11719TIP3   OH256571   0.474   6.303   4.941 -0.3456 -0.3893  0.3435
11719TIP3    H156572   0.410   6.324   5.010 -0.4472  1.7396 -0.3242
11719TIP3    H256573   0.434   6.337   4.861  0.5193 -1.3202 -0.5096
11720TIP3   OH256574   1.545   1.503   2.537 -0.2200  0.4931 -0.1101
11720TIP3    H156575   1.568   1.499   2.444  1.0830 -3.0411  0.1922
11720TIP3    H256576   1.466   1.556   2.540 -0.0701  1.0814 -3.1541
11721TIP3   OH256577   6.284   5.805   4.264 -0.4449  0.1702 -0.2213
11721TIP3    H156578   6.245   5.724   4.232  1.1710 -0.8092  0.1816
11721TIP3    H256579   6.231   5.830   4.339 -0.7968 -0.6535 -0.1936
11722TIP3   OH256580   4.006   1.715  12.982  0.9260 -0.3528  0.3198
11722TIP3    H156581   4.007   1.698  12.888  3.5764 -0.4631  0.3041
11722TIP3    H256582   4.029   1.808  12.990  0.7308 -0.3472  0.8751
11723TIP3   OH256583   0.903   5.281   4.648  0.4318  0.1225  0.0103
11723TIP3    H156584   0.941   5.209   4.698 -1.5954 -1.5759 -0.7553
11723TIP3    H256585   0.906   5.356   4.708  1.6721 -0.8382  1.2046
11724TIP3   OH256586   1.423   5.256  14.829  0.1419 -0.4910 -0.2675
11724TIP3    H156587   1.477   5.329  14.858  1.4224 -2.3253  2.3083
11724TIP3    H256588   1.485   5.191  14.795 -0.8114 -1.0607 -0.9773
11725TIP3   OH256589   0.568   5.039  14.181  0.0599 -0.4304  0.1612
11725TIP3    H156590   0.613   5.107  14.131  0.4001 -0.2758  0.6760
11725TIP3    H256591   0.519   4.989  14.115 -0.2494  0.3523 -0.2043
11726TIP3   OH256592   1.650   5.704   2.911 -0.2022  0.3270 -0.1708
11726TIP3    H156593   1.735   5.740   2.936 -0.0401 -0.0785 -0.1309
11726TIP3    H256594   1.660   5.609   2.922 -0.4086  0.2083 -0.9139
11727TIP3   OH256595   3.290   1.370  14.931 -0.1600  0.0652 -0.4233
11727TIP3    H156596   3.260   1.421  15.007  0.1373  1.6888 -1.3472
11727TIP3    H256597   3.322   1.436  14.870  2.5753 -1.3932 -0.7130
11728TIP3   OH256598   4.138   5.129   0.448 -0.1175 -0.0953 -0.3992
11728TIP3    H156599   4.159   5.087   0.365 -1.0387  0.6851 -1.0376
11728TIP3    H256600   4.044   5.143   0.446 -0.3471 -1.1449  1.3039
11729TIP3   OH256601   1.369   4.414  12.595  0.1937  0.0537 -0.4989
11729TIP3    H156602   1.321   4.331  12.589  1.2334 -0.6760  0.6535
11729TIP3    H256603   1.318   4.476  12.544 -1.4761 -0.9118 -0.0606
11730TIP3   OH256604   4.390   5.565  16.748 -0.1323 -0.3698 -0.1141
11730TIP3    H156605   4.304   5.570  16.706 -0.0111  0.7393 -0.2477
11730TIP3    H256606   4.371   5.538  16.838 -0.4731 -1.7720 -0.5832
11731TIP3   OH256607   2.060   0.985  11.660 -0.5240  0.3941  0.3340
11731TIP3    H156608   2.068   0.901  11.617 -1.2958 -0.3032  1.4896
11731TIP3    H256609   2.054   1.049  11.589  0.2844 -0.4954 -0.5483
11732TIP3   OH256610   3.025   1.388  12.075  0.3642  0.1914 -0.5780
11732TIP3    H156611   2.963   1.376  12.003  0.0383  1.6029 -0.5629
11732TIP3    H256612   3.021   1.482  12.094  1.3787  0.0417  0.4459
11733TIP3   OH256613   1.714   4.817  12.569 -0.4811 -0.2448  0.3834
11733TIP3    H156614   1.650   4.817  12.498 -0.2966  0.1378  0.2125
11733TIP3    H256615   1.765   4.897  12.556 -0.3821 -0.2182  0.8913
11734TIP3   OH256616   4.651   4.151  15.950  0.2203  0.2202  0.0867
11734TIP3    H156617   4.677   4.127  15.861 -0.3760  1.5874 -0.4855
11734TIP3    H256618   4.726   4.198  15.986  0.3699 -0.1241  0.2344
11735TIP3   OH256619   0.833   4.773  17.247  0.6101  0.4891 -0.2007
11735TIP3    H156620   0.907   4.833  17.242  1.4256 -0.5711 -1.4952
11735TIP3    H256621   0.829   4.732  17.160 -0.6242 -0.4902  0.2815
11736TIP3   OH256622   6.420   3.522   5.829  0.2072  0.2850 -0.2083
11736TIP3    H156623   6.438   3.557   5.742 -0.0619 -0.5499 -0.6039
11736TIP3    H256624   6.496   3.466   5.849 -0.4754 -0.8027 -0.5925
11737TIP3   OH256625   6.583   6.640  12.948 -0.1065  0.4633  0.1049
11737TIP3    H156626   6.620   6.567  12.898  1.5460  1.3771 -0.0983
11737TIP3    H256627   6.492   6.615  12.964 -0.4182 -0.3396 -2.4590
11738TIP3   OH256628   4.541   4.295   4.176  0.5017  0.7519 -0.5714
11738TIP3    H156629   4.515   4.273   4.265  1.1950  0.3032 -0.4700
11738TIP3    H256630   4.629   4.332   4.185  0.6602  0.5161 -1.0866
11739TIP3   OH256631   1.186   5.476  14.960 -0.2668  0.4384 -0.0295
11739TIP3    H156632   1.228   5.464  14.875 -0.8154  1.0888 -0.4050
11739TIP3    H256633   1.102   5.518  14.940 -0.5375  0.3285  0.8089
11740TIP3   OH256634   4.834   5.166   6.000  1.0923  0.5627 -0.0167
11740TIP3    H156635   4.775   5.158   6.074 -0.2782 -0.2251 -1.1423
11740TIP3    H256636   4.910   5.112   6.022  0.4068 -0.1878  0.5173
11741TIP3   OH256637   6.371   4.919   3.906 -0.2939  0.5398  0.1412
11741TIP3    H156638   6.433   4.960   3.846 -2.0718 -0.1507 -2.3505
11741TIP3    H256639   6.296   4.979   3.906 -0.9314 -0.2410  0.4431
11742TIP3   OH256640   2.071   2.674  11.064  0.1715 -0.3178  0.0090
11742TIP3    H156641   2.000   2.664  11.000  0.1946  0.0023 -0.0660
11742TIP3    H256642   2.053   2.757  11.108  0.0654 -0.6124  0.5348
11743TIP3   OH256643   5.023   4.317  12.347  0.3905 -0.2117  0.2388
11743TIP3    H156644   5.052   4.283  12.262  1.7907 -0.4694  0.7806
11743TIP3    H256645   5.098   4.367  12.379  0.0430 -0.4676  1.5107
11744TIP3   OH256646   3.356   1.339  11.537 -0.3174  0.5384 -0.4570
11744TIP3    H156647   3.412   1.271  11.501  1.0597  2.3061 -1.8232
11744TIP3    H256648   3.416   1.399  11.582 -1.4674  0.9034  0.6396
11745TIP3   OH256649   5.982   4.813   5.080  0.2788  0.1416  0.1095
11745TIP3    H156650   5.965   4.877   5.149  0.0914  0.2345 -0.0211
11745TIP3    H256651   5.954   4.729   5.118 -0.1372  0.2405  0.0284
11746TIP3   OH256652   5.269   6.632  13.233 -0.8467 -0.3660  0.0698
11746TIP3    H156653   5.185   6.656  13.194 -0.6200 -0.9362 -0.8103
11746TIP3    H256654   5.335   6.663  13.170 -0.4074 -0.1320  0.6365
11747TIP3   OH256655   5.674   4.235  15.884  0.3791  0.2949 -0.0720
11747TIP3    H156656   5.740   4.284  15.835 -0.7017  1.4102 -0.4728
11747TIP3    H256657   5.606   4.215  15.819  0.4724 -1.1570  0.2484
11748TIP3   OH256658   4.672   1.715  15.653 -0.1158 -0.4090  0.2032
11748TIP3    H156659   4.624   1.636  15.678 -0.8164  0.2736  1.0575
11748TIP3    H256660   4.660   1.775  15.726 -0.0574  0.7068 -0.6802
11749TIP3   OH256661   0.862   4.373  14.831 -0.3523 -0.4925  0.3197
11749TIP3    H156662   0.890   4.456  14.869 -0.3626  0.0806 -0.8507
11749TIP3    H256663   0.768   4.383  14.817 -0.0243  0.2138 -1.8465
11750TIP3   OH256664   5.809   0.210   5.032 -0.3927 -0.1353  0.1438
11750TIP3    H156665   5.812   0.238   4.941 -1.1310 -2.0348 -0.5038
11750TIP3    H256666   5.732   0.155   5.038 -0.4791  0.1028  1.9912
11751TIP3   OH256667   6.410   1.847  16.509 -0.0887 -0.3414  0.5284
11751TIP3    H156668   6.435   1.755  16.499  0.6770  0.1222 -2.9667
11751TIP3    H256669   6.473   1.882  16.572  0.1341 -2.0058  1.2778
11752TIP3   OH256670   5.896   5.781   0.824  0.8362  0.3429  0.1666
11752TIP3    H156671   5.828   5.752   0.885  1.6144  0.0281  0.9160
11752TIP3    H256672   5.965   5.817   0.880  1.0913  1.0886 -0.5997
11753TIP3   OH256673   5.712   3.514  12.862  0.4080 -0.5162 -0.3514
11753TIP3    H156674   5.758   3.528  12.779 -0.4972 -0.0517 -0.7807
11753TIP3    H256675   5.723   3.596  12.910  1.0186 -0.8191  0.0530
11754TIP3   OH256676   5.381   1.915   3.380  0.1081 -0.0167  0.0031
11754TIP3    H156677   5.383   2.010   3.387  1.7319  0.3573 -3.3045
11754TIP3    H256678   5.473   1.889   3.385 -0.2646 -1.3575  0.2133
11755TIP3   OH256679   1.397   4.027  10.650 -0.1725  0.2730  0.1407
11755TIP3    H156680   1.400   3.948  10.704 -2.4801  1.0250  1.5223
11755TIP3    H256681   1.466   4.083  10.686  1.2995 -0.9338 -0.6749
11756TIP3   OH256682   4.155   6.305   2.251  0.7817 -0.1874  0.1148
11756TIP3    H156683   4.086   6.247   2.283  0.1108  0.5160 -0.0039
11756TIP3    H256684   4.233   6.250   2.244  0.0775 -1.1502 -0.3298
11757TIP3   OH256685   5.228   1.210  14.415 -0.1620  0.2150 -0.1822
11757TIP3    H156686   5.151   1.199  14.359 -0.4231  0.2308  0.1768
11757TIP3    H256687   5.209   1.157  14.493 -0.1845  0.9180  0.2922
11758TIP3   OH256688   4.428   0.746   4.420 -0.1208 -0.7098 -0.1865
11758TIP3    H156689   4.343   0.743   4.375  0.1638  0.6712 -0.8561
11758TIP3    H256690   4.490   0.774   4.352  0.6311 -0.3717  0.6304
11759TIP3   OH256691   6.124   5.581   5.077  0.0101  0.1767 -0.0235
11759TIP3    H156692   6.176   5.505   5.051 -1.1665 -1.0528  1.0576
11759TIP3    H256693   6.045   5.574   5.024  1.6246  3.2027 -3.2467
11760TIP3   OH256694   4.758   4.890  16.057  0.4367  0.0025 -1.0413
11760TIP3    H156695   4.841   4.930  16.085  0.4294 -1.8765  2.0465
11760TIP3    H256696   4.691   4.937  16.106  0.2624 -2.2871  1.0850
11761TIP3   OH256697   3.011   5.744  12.117 -0.1076  0.2650 -0.0070
11761TIP3    H156698   2.977   5.667  12.071  0.1515 -0.6374  1.2409
11761TIP3    H256699   2.949   5.814  12.097 -0.3097 -0.2355 -1.2258
11762TIP3   OH256700   0.384   3.438  14.492 -0.2734 -0.1303 -0.1508
11762TIP3    H156701   0.424   3.515  14.452  3.2412 -0.9066  1.4904
11762TIP3    H256702   0.364   3.465  14.581  2.9501 -1.5158  1.1248
11763TIP3   OH256703   3.807   2.909  11.713 -0.8446  0.6172  0.3942
11763TIP3    H156704   3.731   2.852  11.726 -0.2831 -0.1155  0.5355
11763TIP3    H256705   3.833   2.892  11.622  0.2582 -0.5375  0.9025
11764TIP3   OH256706   3.381   4.203   0.979 -0.2177  0.0444  0.6348
11764TIP3    H156707   3.327   4.225   0.904  0.4769  1.8045  0.6196
11764TIP3    H256708   3.419   4.118   0.957  0.4252  0.7744 -1.2743
11765TIP3   OH256709   5.376   4.443   4.099 -0.3975 -0.4226  0.1822
11765TIP3    H156710   5.284   4.458   4.077 -0.5175  0.5279  1.2561
11765TIP3    H256711   5.404   4.525   4.141  1.4456 -0.0038 -1.7171
11766TIP3   OH256712   2.849   2.372  12.577 -0.6970 -0.0922  0.5465
11766TIP3    H156713   2.756   2.382  12.597 -1.5332 -0.4679 -2.6101
11766TIP3    H256714   2.870   2.446  12.520  0.7972 -0.3233  0.7406
11767TIP3   OH256715   3.606   4.122   5.034  0.1544  0.3766 -0.5342
11767TIP3    H156716   3.654   4.168   5.103 -1.9088  1.8012  0.0558
11767TIP3    H256717   3.650   4.147   4.953  1.5829  0.0521  0.1255
11768TIP3   OH256718   5.926   3.389  12.235 -0.2292 -0.4267 -0.4397
11768TIP3    H156719   5.946   3.370  12.144  0.4942  0.8949 -0.5873
11768TIP3    H256720   5.995   3.449  12.263 -0.8601 -0.2149  0.7551
11769TIP3   OH256721   2.030   3.661   0.182  0.4978  0.5149 -0.9411
11769TIP3    H156722   1.960   3.641   0.244  0.7412 -1.3463 -1.2173
11769TIP3    H256723   1.985   3.679   0.100  0.3019  0.3590 -0.8676
11770TIP3   OH256724   6.644   6.623  12.292 -0.1801  0.0273  0.2234
11770TIP3    H156725   6.698   6.558  12.338  2.2285  0.9692 -1.0695
11770TIP3    H256726   6.603   6.674  12.362  1.3182 -0.2042  1.3176
11771TIP3   OH256727   5.869   5.077   3.287 -0.3365 -0.1069  0.0077
11771TIP3    H156728   5.918   5.048   3.364  0.4336 -0.6924 -0.6802
11771TIP3    H256729   5.788   5.114   3.322 -0.1022 -0.5796  1.0813
11772TIP3   OH256730   4.586   3.721  11.841  0.2505 -0.4074  0.0599
11772TIP3    H156731   4.635   3.787  11.792  0.3519 -0.7837 -0.3500
11772TIP3    H256732   4.622   3.724  11.929  0.8903 -0.5635 -0.1943
11773TIP3   OH256733   5.828   5.588   1.163  0.1151  0.0822  0.1579
11773TIP3    H156734   5.820   5.642   1.084 -0.3559  0.8377  0.7173
11773TIP3    H256735   5.892   5.634   1.217  1.2339 -0.9793 -0.2126
11774TIP3   OH256736   1.935   5.752   0.449 -0.1559 -0.1481  0.0307
11774TIP3    H156737   1.943   5.831   0.502 -0.8793 -0.0758  0.0436
11774TIP3    H256738   1.995   5.765   0.376  0.8275 -0.2305  0.7997
11775TIP3   OH256739   4.721   5.556  11.948 -0.5112 -0.6428 -0.1419
11775TIP3    H156740   4.705   5.502  12.025 -0.7680  0.5693  0.6881
11775TIP3    H256741   4.637   5.561  11.904 -0.8505  0.2327  0.5694
11776TIP3   OH256742   5.007   1.905   0.416 -0.1342 -0.3271 -0.1023
11776TIP3    H156743   4.942   1.917   0.485 -1.2136 -0.9064 -1.0040
11776TIP3    H256744   5.065   1.837   0.450  1.4903  1.7917  1.7268
11777TIP3   OH256745   0.649   1.748  15.271  0.0176 -0.0638 -0.4791
11777TIP3    H156746   0.730   1.707  15.301  0.3429  1.4386  0.8591
11777TIP3    H256747   0.666   1.842  15.276 -1.8716  0.3046  0.0457
11778TIP3   OH256748   4.830   5.641  16.653  0.4037 -0.1193  0.1401
11778TIP3    H156749   4.807   5.621  16.562 -1.6515 -0.7881  0.7457
11778TIP3    H256750   4.823   5.557  16.698  0.3481  0.4020  1.1152
11779TIP3   OH256751   3.963   1.177  13.387 -0.3280 -0.0961 -0.3593
11779TIP3    H156752   4.001   1.243  13.446 -0.1030 -0.1772 -0.4111
11779TIP3    H256753   3.952   1.222  13.303 -0.9055  0.0984 -0.1834
11780TIP3   OH256754   2.627   1.052   1.816 -0.7860  0.3486 -0.3294
11780TIP3    H156755   2.693   1.095   1.760 -0.9578  1.0359 -0.0184
11780TIP3    H256756   2.598   0.977   1.765  0.5385 -0.2164 -0.3008
11781TIP3   OH256757   6.721   3.479  12.685  0.1559 -0.1961  0.3982
11781TIP3    H156758   6.648   3.477  12.746 -0.2706  0.3910 -0.0730
11781TIP3    H256759   6.734   3.388  12.660 -0.2984 -0.3296  0.6367
11782TIP3   OH256760   3.674   2.881   1.469  0.4232 -0.7296 -0.1967
11782TIP3    H156761   3.644   2.790   1.477 -0.6207 -0.2490  2.4626
11782TIP3    H256762   3.756   2.883   1.518 -0.9015  0.2464  2.1208
11783TIP3   OH256763   1.754   4.962  11.669 -0.1239  0.0982  0.9634
11783TIP3    H156764   1.806   4.949  11.589 -2.1741 -1.4083 -0.2020
11783TIP3    H256765   1.703   5.041  11.652  0.2089  0.3791  1.2450
11784TIP3   OH256766   5.522   5.784  16.696 -0.1944 -0.3064  0.0273
11784TIP3    H156767   5.460   5.749  16.632  0.4531  1.1694 -1.4476
11784TIP3    H256768   5.602   5.733  16.682  0.2357  0.6139 -1.0109
11785TIP3   OH256769   6.528   2.434  16.172  0.6125  0.2325  0.4203
11785TIP3    H156770   6.464   2.426  16.102  1.6983 -0.4039 -0.5370
11785TIP3    H256771   6.482   2.479  16.243 -1.6691 -2.3796  0.7376
11786TIP3   OH256772   5.798   2.345   1.267 -0.5940 -0.7727  0.3081
11786TIP3    H156773   5.755   2.407   1.208 -0.2297 -0.3387  0.4932
11786TIP3    H256774   5.824   2.399   1.342  0.9595 -0.8772 -0.1352
11787TIP3   OH256775   3.957   3.815  12.729 -0.5594 -0.3207 -0.1400
11787TIP3    H156776   3.998   3.844  12.647 -0.3363 -0.6357 -0.1432
11787TIP3    H256777   3.899   3.887  12.754  1.0106  0.7513  0.5978
11788TIP3   OH256778   6.374   0.178  15.269  0.3546 -0.8036 -0.2776
11788TIP3    H156779   6.330   0.242  15.325  0.5401 -1.5242  0.7033
11788TIP3    H256780   6.340   0.197  15.181 -1.7714 -1.1841  0.4004
11789TIP3   OH256781   5.663   4.600   0.152  0.0419  0.1931  0.0156
11789TIP3    H156782   5.724   4.613   0.224 -1.1679 -1.2311  1.3927
11789TIP3    H256783   5.663   4.683   0.104  1.7024  0.8016  1.0030
11790TIP3   OH256784   5.765   4.681   1.302  0.0321  0.3471  0.3552
11790TIP3    H156785   5.783   4.587   1.306 -1.6856  0.0152  1.6227
11790TIP3    H256786   5.851   4.721   1.299  0.8052 -1.2727 -0.4091
11791TIP3   OH256787   5.080   5.191   5.198  0.1460  0.2508 -0.3422
11791TIP3    H156788   5.133   5.112   5.202  1.1486  0.9330  0.7135
11791TIP3    H256789   5.056   5.208   5.290 -3.7143 -1.1671 -0.8958
11792TIP3   OH256790   6.665   4.579  13.947 -0.7487 -0.2400  0.3652
11792TIP3    H156791   6.598   4.523  13.909  0.9024 -1.1746 -1.3286
11792TIP3    H256792   6.641   4.667  13.918 -1.9755 -0.3436  0.9674
11793TIP3   OH256793   6.163   0.130   5.620  0.1839 -0.1099 -0.1910
11793TIP3    H156794   6.233   0.099   5.677  0.0476 -0.6558 -0.3121
11793TIP3    H256795   6.124   0.050   5.584 -0.8239  0.1662  0.2658
11794TIP3   OH256796   4.283   5.673   1.498 -0.1559 -0.0170  0.4407
11794TIP3    H156797   4.378   5.671   1.484 -0.2771  2.1178 -1.1631
11794TIP3    H256798   4.251   5.592   1.460  1.1044 -1.3365  2.0595
11795TIP3   OH256799   6.068   4.669   1.312 -0.4978 -0.0725  0.2661
11795TIP3    H156800   6.064   4.577   1.338  0.4888 -0.7663 -1.7883
11795TIP3    H256801   6.162   4.688   1.307 -0.6840  1.1868  0.9971
11796TIP3   OH256802   1.689   3.286  11.247  0.2671 -0.0739  0.1188
11796TIP3    H156803   1.631   3.280  11.171 -0.4295 -0.7452  0.7027
11796TIP3    H256804   1.632   3.278  11.323  1.1123 -0.7316  0.7080
11797TIP3   OH256805   3.708   3.777  12.221 -0.0286  0.7260  0.0929
11797TIP3    H156806   3.745   3.728  12.293 -0.2213  0.5036  0.0398
11797TIP3    H256807   3.745   3.865  12.230  1.4050  0.2214 -0.6159
11798TIP3   OH256808   6.270   3.833   2.757  0.2462 -0.1112 -0.0334
11798TIP3    H156809   6.230   3.747   2.767  0.5026 -0.3741 -1.1181
11798TIP3    H256810   6.315   3.829   2.672  1.1539  0.7302  0.3794
11799TIP3   OH256811   4.483   5.581  15.519 -0.5764 -0.2305 -0.6096
11799TIP3    H156812   4.465   5.675  15.514 -1.2723 -0.2805  0.6542
11799TIP3    H256813   4.425   5.548  15.587  0.9583 -1.2550  0.2903
11800TIP3   OH256814   0.838   4.456  11.414 -0.0568 -0.4935 -0.9738
11800TIP3    H156815   0.925   4.431  11.445 -1.2857 -3.7898  0.2856
11800TIP3    H256816   0.845   4.453  11.318  1.4080  0.2997 -0.9300
11801TIP3   OH256817   5.910   2.253  13.576 -0.3852 -0.2511  0.2844
11801TIP3    H156818   5.933   2.177  13.629  1.1172  0.4085  0.6205
11801TIP3    H256819   5.840   2.297  13.625 -1.4290 -1.5045 -0.0265
11802TIP3   OH256820   0.064   0.664   3.682  0.3627  0.7660  0.0716
11802TIP3    H156821   0.053   0.753   3.717 -2.9428  0.0418  1.1284
11802TIP3    H256822   0.052   0.675   3.587 -0.8000  1.3797  0.2684
11803TIP3   OH256823   1.546   1.008  14.038 -0.0003 -0.4690  0.6046
11803TIP3    H156824   1.552   1.029  14.132  0.0823 -0.6445  0.6368
11803TIP3    H256825   1.610   0.939  14.024  1.0594  0.5688  0.1178
11804TIP3   OH256826   3.734   3.908   1.331  0.0557  0.0402 -0.0430
11804TIP3    H156827   3.656   3.933   1.280  0.4497  1.4877  0.0212
11804TIP3    H256828   3.703   3.905   1.422 -0.2161 -0.7108 -0.1497
11805TIP3   OH256829   1.025   3.737   5.804 -0.2774 -0.3693  0.2142
11805TIP3    H156830   0.948   3.682   5.813 -0.6131 -0.0272 -0.5117
11805TIP3    H256831   0.991   3.826   5.800 -0.0573 -0.3204 -2.2517
11806TIP3   OH256832   0.718   5.409  12.164 -0.4269  0.1794 -0.4994
11806TIP3    H156833   0.801   5.440  12.127  0.7375 -0.0258  1.7452
11806TIP3    H256834   0.712   5.455  12.248 -2.0600 -0.6570 -0.1334
11807TIP3   OH256835   0.769   5.964   5.575 -0.0586  0.1999 -0.3911
11807TIP3    H156836   0.713   6.021   5.627 -0.3135  0.6055 -1.0873
11807TIP3    H256837   0.716   5.885   5.561 -0.2114  0.3228 -0.5108
11808TIP3   OH256838   4.093   0.430  16.652  0.1885 -0.3655 -1.0241
11808TIP3    H156839   4.024   0.494  16.634 -1.7658 -1.9914  0.2155
11808TIP3    H256840   4.079   0.361  16.588  2.6423  0.5683 -2.7398
11809TIP3   OH256841   2.701   1.289   2.401  0.0150  0.3578 -0.3662
11809TIP3    H156842   2.685   1.207   2.355  0.0734  1.2541 -2.0790
11809TIP3    H256843   2.794   1.286   2.425 -0.0422 -0.1657 -0.2011
11810TIP3   OH256844   6.547   1.107   4.845  0.2009 -0.3431 -0.7436
11810TIP3    H156845   6.617   1.171   4.836  0.5839 -0.8043 -1.0946
11810TIP3    H256846   6.520   1.113   4.937  1.6046 -1.0717 -0.2538
11811TIP3   OH256847   5.176   0.656   5.048  0.2527 -0.3564  0.7006
11811TIP3    H156848   5.248   0.719   5.061  0.9619 -1.2683  1.3478
11811TIP3    H256849   5.178   0.637   4.954  0.2091  0.3616  0.5435
11812TIP3   OH256850   2.414   2.364   4.966  0.1975 -0.4588 -0.1338
11812TIP3    H156851   2.490   2.319   4.930 -0.2879  0.1347 -2.0231
11812TIP3    H256852   2.421   2.453   4.933 -0.9406 -0.1962  0.2790
11813TIP3   OH256853   0.496   3.493  12.931 -0.2699  0.1179 -0.0520
11813TIP3    H156854   0.427   3.426  12.932 -2.6020  2.3618  1.2003
11813TIP3    H256855   0.529   3.495  13.021 -2.9337  3.0656  1.0399
11814TIP3   OH256856   4.270   2.623  14.831 -0.2602  0.1494 -0.7152
11814TIP3    H156857   4.359   2.589  14.842  0.4021  1.4195 -1.7141
11814TIP3    H256858   4.281   2.718  14.832 -1.7472  0.3460  0.0154
11815TIP3   OH256859   1.563   0.644   0.471  0.1353 -0.0277  0.1920
11815TIP3    H156860   1.648   0.676   0.444  0.2804 -0.1678  0.4860
11815TIP3    H256861   1.559   0.659   0.565  0.3356 -1.1408  0.3944
11816TIP3   OH256862   1.417   5.591  14.634  0.0384  0.2227 -0.3063
11816TIP3    H156863   1.337   5.616  14.589  1.4451  2.5560 -1.6980
11816TIP3    H256864   1.487   5.611  14.572  1.6860 -3.1285  0.2727
11817TIP3   OH256865   5.286   0.366  12.766  0.2891 -0.2996  0.6701
11817TIP3    H156866   5.224   0.304  12.727 -2.6982  2.7351  0.0470
11817TIP3    H256867   5.307   0.329  12.851 -1.5696 -2.0212  0.4627
11818TIP3   OH256868   3.288   5.176  12.412  0.2657 -0.4297 -0.7298
11818TIP3    H156869   3.341   5.159  12.489  0.1291  0.5111 -0.4133
11818TIP3    H256870   3.223   5.240  12.441 -1.5835 -2.1531 -0.8923
11819TIP3   OH256871   4.194   3.019   2.792  0.1313  0.2342 -0.0210
11819TIP3    H156872   4.144   2.944   2.825 -1.8667  1.5438  0.1482
11819TIP3    H256873   4.204   3.077   2.868  2.2977 -0.1298  0.0326
11820TIP3   OH256874   0.409   5.555   5.564 -0.0892  0.3279  0.1285
11820TIP3    H156875   0.324   5.597   5.549  0.8869  1.3061 -3.5461
11820TIP3    H256876   0.471   5.627   5.571  0.5828 -0.3855  2.5255
11821TIP3   OH256877   0.567   4.875  15.158  0.5773 -0.0203 -0.5242
11821TIP3    H156878   0.568   4.815  15.083  0.5079 -0.3049 -0.3019
11821TIP3    H256879   0.597   4.821  15.231  0.4408  0.1988 -0.3073
11822TIP3   OH256880   2.165   0.065   0.345  0.3499 -0.1172  0.2167
11822TIP3    H156881   2.131   0.137   0.293  0.3003 -0.5035 -0.2991
11822TIP3    H256882   2.253   0.050   0.309  0.1425 -0.6819 -0.0650
11823TIP3   OH256883   1.588   4.924   4.763  0.4953 -0.1863 -0.3288
11823TIP3    H156884   1.560   4.932   4.672 -0.1915  2.5865  0.0294
11823TIP3    H256885   1.630   4.838   4.768  0.6787 -0.3688 -3.2646
11824TIP3   OH256886   1.090   0.616   2.295  0.0850  0.5306 -0.0464
11824TIP3    H156887   1.025   0.680   2.266 -1.4124 -0.3012  1.2961
11824TIP3    H256888   1.100   0.633   2.389  2.4500  1.1425 -0.3357
11825TIP3   OH256889   6.216   1.836   5.198 -0.2277  0.2126 -0.1672
11825TIP3    H156890   6.230   1.839   5.292  1.5387 -0.0763 -0.3931
11825TIP3    H256891   6.145   1.899   5.183 -1.8371 -1.0713  1.5251
11826TIP3   OH256892   6.392   2.137  15.410 -0.2319 -0.3733  0.1126
11826TIP3    H156893   6.408   2.135  15.504  1.2752  1.0913 -0.0649
11826TIP3    H256894   6.445   2.066  15.375  1.6158  0.9535  0.1052
11827TIP3   OH256895   5.775   4.550   4.027 -0.0895  0.1600 -0.3072
11827TIP3    H156896   5.855   4.513   3.988  0.3848  0.6149  0.2227
11827TIP3    H256897   5.754   4.490   4.099  0.7959  1.0097  0.6818
11828TIP3   OH256898   3.933   1.874  13.277 -0.1868 -0.0399  0.0821
11828TIP3    H156899   3.841   1.849  13.262  0.1709 -0.3213 -1.8238
11828TIP3    H256900   3.966   1.806  13.336 -1.7315  1.2604  2.6293
11829TIP3   OH256901   4.604   1.842  10.860 -0.0339  0.2477 -0.4153
11829TIP3    H156902   4.548   1.902  10.811  0.2848 -0.1182 -1.2521
11829TIP3    H256903   4.642   1.785  10.793 -0.6026 -1.1245  0.3842
11830TIP3   OH256904   6.768   2.414   1.273 -0.0129 -0.5962 -0.4129
11830TIP3    H156905   6.819   2.402   1.354  0.1613  1.4695 -0.1750
11830TIP3    H256906   6.778   2.331   1.226  3.1685 -0.4929 -0.1290
11831TIP3   OH256907   5.423   4.704  16.183 -0.0550  0.2765 -0.0547
11831TIP3    H156908   5.330   4.683  16.181  0.2397 -1.1810  0.6069
11831TIP3    H256909   5.437   4.756  16.104 -1.3443  0.2068 -0.3604
11832TIP3   OH256910   1.966   3.942   2.710 -0.5777  0.0955  0.0772
11832TIP3    H156911   2.007   3.857   2.722  0.5402  0.2664 -2.0539
11832TIP3    H256912   1.894   3.926   2.650  0.4921  0.8084 -1.4659
11833TIP3   OH256913   3.693   1.764  11.230 -0.4058  0.6735 -0.1999
11833TIP3    H156914   3.641   1.824  11.177  0.9104  1.3970 -0.7319
11833TIP3    H256915   3.759   1.820  11.272  1.0389 -0.3970 -0.9353
11834TIP3   OH256916   6.327   3.911  11.416  0.5287 -0.4940 -0.1960
11834TIP3    H156917   6.398   3.968  11.387 -0.5374  1.5869  1.0885
11834TIP3    H256918   6.369   3.849  11.476  1.4456 -0.0683 -0.3840
11835TIP3   OH256919   1.965   0.297  13.203 -0.3512  0.0327 -0.4097
11835TIP3    H156920   1.954   0.235  13.131  1.1904  0.3187 -0.9378
11835TIP3    H256921   2.056   0.287  13.229 -0.7426  0.3273  1.1595
11836TIP3   OH256922   6.025   5.264  12.791  0.3254 -0.3240 -0.0532
11836TIP3    H156923   6.008   5.349  12.831 -2.4773 -0.6218 -0.3797
11836TIP3    H256924   6.116   5.244  12.813  0.1028  1.3021  2.7772
11837TIP3   OH256925   3.876   2.591   5.128  0.2480 -0.2367 -0.1408
11837TIP3    H156926   3.933   2.557   5.059 -0.2352 -1.4579  0.0354
11837TIP3    H256927   3.893   2.534   5.203 -1.3943 -0.8244 -0.1735
11838TIP3   OH256928   1.186   2.787   4.329 -0.4186 -0.5912 -0.2493
11838TIP3    H156929   1.095   2.757   4.322 -0.7919  0.6276 -1.0428
11838TIP3    H256930   1.217   2.790   4.239  0.1507 -0.2475 -0.0450
11839TIP3   OH256931   2.620   4.583  11.118 -0.2262 -0.0997 -0.3530
11839TIP3    H156932   2.572   4.622  11.044  1.7159  1.3321 -0.9514
11839TIP3    H256933   2.703   4.555  11.079  0.2259 -0.6933  1.0105
11840TIP3   OH256934   6.362   4.444   3.055  0.3058  0.3069  0.3210
11840TIP3    H156935   6.439   4.442   2.998 -0.1994 -0.6696 -0.3567
11840TIP3    H256936   6.367   4.529   3.099  1.8941  0.1748  0.4739
11841TIP3   OH256937   2.545   2.179  13.963  0.0918 -0.8227 -0.6431
11841TIP3    H156938   2.596   2.118  13.910  0.2575 -0.1847 -1.2403
11841TIP3    H256939   2.610   2.223  14.017  0.3436  0.6262 -2.0336
11842TIP3   OH256940   6.435   4.379   5.157 -1.0805 -0.6188  0.4286
11842TIP3    H156941   6.468   4.420   5.076 -1.8995  0.2250  0.5069
11842TIP3    H256942   6.411   4.290   5.130 -0.7886 -0.5421 -0.1200
11843TIP3   OH256943   4.498   6.519   5.473  0.1497 -0.1726  0.4081
11843TIP3    H156944   4.468   6.471   5.396  0.1721  0.7734 -0.1997
11843TIP3    H256945   4.457   6.605   5.466 -0.9537 -0.5023  2.1769
11844TIP3   OH256946   4.486   0.682   3.088  0.8656 -0.4749  0.1095
11844TIP3    H156947   4.432   0.616   3.131  1.5962 -1.0175  0.2105
11844TIP3    H256948   4.456   0.765   3.125 -0.4527 -0.6862 -0.4363
11845TIP3   OH256949   2.500   4.385  15.693 -0.1335 -0.3642  0.2529
11845TIP3    H156950   2.569   4.444  15.724 -1.3740  2.1160 -1.3241
11845TIP3    H256951   2.424   4.406  15.747 -1.0061  0.6531 -1.2958
11846TIP3   OH256952   1.786   5.530   5.966  0.1381  0.2698 -0.3964
11846TIP3    H156953   1.722   5.462   5.985  0.6577  0.0385  0.5601
11846TIP3    H256954   1.763   5.560   5.878 -1.5212  0.4502  0.0655
11847TIP3   OH256955   0.926   4.675  10.325  0.8138  0.1611  0.3252
11847TIP3    H156956   0.879   4.749  10.364 -0.2787 -0.9205  1.1428
11847TIP3    H256957   0.934   4.611  10.396 -1.2075 -1.8764 -1.1209
11848TIP3   OH256958   5.088   1.401   4.308 -0.5572  0.2097  0.1474
11848TIP3    H156959   5.098   1.465   4.238 -1.0766 -1.0248 -1.1122
11848TIP3    H256960   5.077   1.453   4.387  1.6442  1.6487 -0.4020
11849TIP3   OH256961   5.041   4.848  11.703  0.1064  0.1146  0.6830
11849TIP3    H156962   4.967   4.899  11.737 -0.6500 -0.5987  0.1635
11849TIP3    H256963   5.065   4.789  11.774 -0.3249 -0.1717  0.5933
11850TIP3   OH256964   3.776   3.720  16.446 -0.1121 -0.0605  0.3914
11850TIP3    H156965   3.869   3.716  16.472  0.8442  2.7327 -2.0174
11850TIP3    H256966   3.771   3.664  16.369 -1.1916 -2.3780  2.0220
11851TIP3   OH256967   2.878   4.452  16.981  0.2972  0.2404 -0.1744
11851TIP3    H156968   2.905   4.485  16.895 -1.0140  0.1428 -0.6536
11851TIP3    H256969   2.842   4.529  17.025  0.3337  0.1496  0.0124
11852TIP3   OH256970   3.244   6.638   6.144  0.3482 -0.6124  0.1519
11852TIP3    H156971   3.255   6.728   6.174 -3.4467  0.0966 -0.0676
11852TIP3    H256972   3.250   6.643   6.049 -0.9022 -0.3480  0.0724
11853TIP3   OH256973   1.318   6.596  12.645  0.3067  0.3385 -0.9310
11853TIP3    H156974   1.300   6.505  12.622 -1.3142  0.7920 -1.5843
11853TIP3    H256975   1.376   6.590  12.721 -1.0043 -1.2823  0.0194
11854TIP3   OH256976   2.108   0.332   3.498 -0.0353  0.3767  0.0721
11854TIP3    H156977   2.106   0.407   3.439 -1.2091 -0.4777 -1.0276
11854TIP3    H256978   2.159   0.266   3.452 -0.1070  0.0430  0.4619
11855TIP3   OH256979   3.088   2.211   1.830  0.8443  0.0545 -0.3848
11855TIP3    H156980   3.093   2.125   1.787 -0.8053 -0.4590  0.3685
11855TIP3    H256981   3.165   2.213   1.888  1.8334 -0.1760 -1.6487
11856TIP3   OH256982   2.306   1.040  13.748 -1.0780  0.4616  1.1133
11856TIP3    H156983   2.277   1.124  13.785 -1.4461  0.5217  0.6942
11856TIP3    H256984   2.299   1.051  13.654  1.8954  1.0379  0.8715
11857TIP3   OH256985   3.227   3.748  14.050 -0.1521  0.0021 -0.2797
11857TIP3    H156986   3.244   3.759  14.143  0.1649 -1.0036 -0.2059
11857TIP3    H256987   3.137   3.716  14.045 -0.3684  0.6197 -0.3577
11858TIP3   OH256988   6.642   2.730   1.750  0.2154  0.2961 -0.1364
11858TIP3    H156989   6.682   2.676   1.819  0.9938  2.4265  1.1864
11858TIP3    H256990   6.672   2.691   1.668  1.3550 -0.8277  0.7783
11859TIP3   OH256991   3.677   1.182  14.676  0.3460  0.1745 -0.1689
11859TIP3    H156992   3.598   1.131  14.658  0.1948  0.1936  0.4345
11859TIP3    H256993   3.650   1.247  14.740  0.7490  0.4657 -0.2865
11860TIP3   OH256994   1.407   5.880  12.178 -0.0225 -0.1410 -0.5948
11860TIP3    H156995   1.432   5.802  12.227  2.2721  0.5249 -0.5651
11860TIP3    H256996   1.478   5.942  12.195 -0.6465  1.1508 -2.4086
11861TIP3   OH256997   4.833   5.456   4.400  0.3001  0.4839 -0.3615
11861TIP3    H156998   4.928   5.465   4.391  0.2108  1.6521 -0.3013
11861TIP3    H256999   4.797   5.518   4.336 -0.4338 -0.5349 -0.9565
11862TIP3   OH257000   6.563   1.905   1.171 -0.3071  0.4024 -0.4409
11862TIP3    H157001   6.562   2.001   1.172  0.0390  0.4042 -0.1716
11862TIP3    H257002   6.646   1.881   1.212 -1.1314 -0.0372  1.0441
11863TIP3   OH257003   2.027   0.039  12.556  0.4736 -0.3189 -0.3585
11863TIP3    H157004   2.045   0.131  12.575 -0.5424 -0.0382 -0.6558
11863TIP3    H257005   2.048  -0.007  12.637  1.4313  0.1101 -0.3582
11864TIP3   OH257006   6.064   5.821  11.404  0.4411  0.0553 -0.4369
11864TIP3    H157007   6.100   5.737  11.377  1.2544 -0.3461  1.6647
11864TIP3    H257008   6.087   5.882  11.333 -0.3894 -1.5028 -2.1126
11865TIP3   OH257009   2.061   1.323   3.565 -0.3616 -0.2037 -0.6410
11865TIP3    H157010   2.131   1.358   3.510  0.3699  0.9826  0.9633
11865TIP3    H257011   2.105   1.299   3.647 -1.2000 -3.0312 -0.9143
11866TIP3   OH257012   2.442   6.510  14.040 -0.1394  0.6623 -0.0620
11866TIP3    H157013   2.456   6.479  13.950 -0.3227 -0.9886  0.4442
11866TIP3    H257014   2.410   6.600  14.029  1.3744  1.0853 -1.5696
11867TIP3   OH257015   3.043   1.255  15.034 -0.0663  0.0438 -0.0964
11867TIP3    H157016   3.107   1.282  14.968 -1.4471 -0.9520 -1.9363
11867TIP3    H257017   2.973   1.320  15.028  0.3647  0.7034  1.3848
11868TIP3   OH257018   4.015   5.773  16.176  0.5467 -0.1845 -0.2141
11868TIP3    H157019   3.994   5.704  16.113  2.6290 -1.1749  0.0984
11868TIP3    H257020   4.041   5.726  16.255  1.0724  0.9948  0.3398
11869TIP3   OH257021   1.523   0.827  11.819 -0.4298  0.4158 -0.2565
11869TIP3    H157022   1.566   0.795  11.739 -0.5929  2.7475 -1.3625
11869TIP3    H257023   1.569   0.908  11.839 -1.2186  0.4942  1.3275
11870TIP3   OH257024   6.348   5.744   5.063 -0.1714 -0.4750  0.3366
11870TIP3    H157025   6.268   5.692   5.064 -0.5001  0.0360  1.0114
11870TIP3    H257026   6.406   5.702   5.126  0.4909 -1.4230 -0.8438
11871TIP3   OH257027   4.448   3.591  11.413  0.1706 -0.0994  0.1864
11871TIP3    H157028   4.474   3.682  11.423  1.1576 -0.4688  1.1136
11871TIP3    H257029   4.355   3.590  11.434 -0.8158  1.2791 -3.3898
11872TIP3   OH257030   3.305   4.386   5.990  0.3984 -0.1786 -0.0847
11872TIP3    H157031   3.382   4.383   6.046 -0.9110 -0.6022  1.7596
11872TIP3    H257032   3.238   4.429   6.042 -0.2594  1.4749 -2.1560
11873TIP3   OH257033   3.391   0.583  16.349  0.3678 -0.5539  0.1625
11873TIP3    H157034   3.404   0.517  16.417 -1.1102  0.3247  1.3651
11873TIP3    H257035   3.413   0.539  16.267  0.1024 -2.3035  1.0023
11874TIP3   OH257036   5.643   2.528   3.091  0.1448 -0.0564  0.1617
11874TIP3    H157037   5.695   2.520   3.011 -1.0051  1.5332 -0.8205
11874TIP3    H257038   5.702   2.502   3.161  1.6960  0.0148 -1.0559
11875TIP3   OH257039   5.442   3.788   5.805 -0.8227 -0.2264  0.6539
11875TIP3    H157040   5.361   3.742   5.780 -0.1459 -0.9038 -0.3973
11875TIP3    H257041   5.465   3.752   5.890 -0.3372 -1.8504 -0.1263
11876TIP3   OH257042   2.863   0.679  14.627 -0.1355  0.3606 -0.3161
11876TIP3    H157043   2.955   0.656  14.634 -0.3839 -0.5414  0.2424
11876TIP3    H257044   2.843   0.674  14.533  0.1958 -0.2404 -0.3601
11877TIP3   OH257045   5.860   2.891  11.844 -0.2573  0.4188  0.0133
11877TIP3    H157046   5.865   2.853  11.756  1.0787 -2.0445  1.0709
11877TIP3    H257047   5.942   2.939  11.854 -0.0359  0.0022  0.2066
11878TIP3   OH257048   0.765   4.557  16.400 -0.5465  0.0140 -0.0508
11878TIP3    H157049   0.813   4.576  16.481 -0.9778 -0.8707  0.4255
11878TIP3    H257050   0.741   4.643  16.366 -2.7565  0.3951  2.1931
11879TIP3   OH257051   2.354   0.694  16.983 -0.2946  0.3123 -1.0365
11879TIP3    H157052   2.337   0.641  16.906  0.0795 -0.3032 -0.7032
11879TIP3    H257053   2.279   0.753  16.988 -1.7842 -1.5018 -0.3177
11880TIP3   OH257054   6.082   4.484   1.021  0.5218 -0.5330 -0.5764
11880TIP3    H157055   6.099   4.467   1.113 -0.7978 -1.2712 -0.4439
11880TIP3    H257056   6.057   4.576   1.018 -0.9618 -0.8851  0.0647
11881TIP3   OH257057   2.838   1.853  14.029 -0.0893  0.4230 -0.8596
11881TIP3    H157058   2.887   1.787  14.078  1.1154  1.5835 -0.4454
11881TIP3    H257059   2.782   1.894  14.094 -0.2632  0.3337 -0.9534
11882TIP3   OH257060   2.451   2.353   0.023  0.0617  0.3472  0.1528
11882TIP3    H157061   2.390   2.425   0.040  0.6028  1.1121 -1.0208
11882TIP3    H257062   2.485   2.330   0.110  0.1775  1.7807  0.5168
11883TIP3   OH257063   2.576   4.843  15.085  0.0569  0.4423  0.0886
11883TIP3    H157064   2.618   4.880  15.007 -1.8131  0.5783 -0.9044
11883TIP3    H257065   2.506   4.905  15.107 -1.3193 -1.0391  0.0919
11884TIP3   OH257066   5.087   6.348  11.763 -0.4112  0.1493 -0.3693
11884TIP3    H157067   5.130   6.319  11.683  2.1206 -0.1134  0.9840
11884TIP3    H257068   5.035   6.424  11.736 -2.1939 -1.7710 -2.7884
11885TIP3   OH257069   3.591   4.718   1.466 -0.3244  0.3755  0.2841
11885TIP3    H157070   3.534   4.795   1.469 -1.9759 -0.8240  0.6917
11885TIP3    H257071   3.570   4.677   1.382  0.6931  0.4462 -0.0178
11886TIP3   OH257072   6.431   4.816  16.979 -0.1798 -0.2172  0.0302
11886TIP3    H157073   6.397   4.734  17.014  0.8064 -0.8573 -0.4743
11886TIP3    H257074   6.381   4.830  16.898 -0.5100 -0.1917  0.2357
11887TIP3   OH257075   2.994   1.178  12.248  0.3938 -0.2067 -0.1332
11887TIP3    H157076   3.059   1.188  12.317 -1.4231  1.0004  1.4940
11887TIP3    H257077   2.977   1.267  12.218 -0.0009 -0.5822 -1.0827
11888TIP3   OH257078   2.691   0.620   2.887 -0.1279  0.4786  0.3742
11888TIP3    H157079   2.609   0.619   2.935  0.3237 -1.1489  1.2047
11888TIP3    H257080   2.759   0.618   2.955  0.5592  0.0227 -0.3080
11889TIP3   OH257081   0.770   0.624  12.838  0.5863 -0.7960 -0.5065
11889TIP3    H157082   0.687   0.637  12.883  1.1482 -0.6548  0.5181
11889TIP3    H257083   0.763   0.537  12.799  0.1118 -0.9535 -0.0731
11890TIP3   OH257084   3.943   6.371   4.304 -0.3943 -0.1179  0.2007
11890TIP3    H157085   3.921   6.437   4.238 -1.1675 -1.0164 -0.4557
11890TIP3    H257086   4.038   6.365   4.302 -0.3336  0.7834  0.0847
11891TIP3   OH257087   0.720   0.542  16.908  0.0927 -0.0482  0.1834
11891TIP3    H157088   0.789   0.590  16.863 -1.0694  0.3002 -1.3181
11891TIP3    H257089   0.660   0.516  16.838 -1.1587 -0.5515  1.4111
11892TIP3   OH257090   4.138   6.007  13.675  0.0723 -0.5179 -0.0247
11892TIP3    H157091   4.171   6.096  13.672 -0.1895 -0.4431 -1.5654
11892TIP3    H257092   4.207   5.954  13.636 -0.7161 -0.6451 -1.3113
11893TIP3   OH257093   2.538   6.764   0.391  0.6922  0.7192 -0.0865
11893TIP3    H157094   2.577   6.850   0.407  1.0404  0.4126  0.7526
11893TIP3    H257095   2.496   6.773   0.305 -0.6966  2.2348  0.6729
11894TIP3   OH257096   5.997   3.938   1.025  0.0739 -0.6975  0.6673
11894TIP3    H157097   5.986   3.844   1.007 -0.1410 -0.6187  0.3784
11894TIP3    H257098   6.057   3.968   0.958 -1.2940 -0.2514 -0.4063
11895TIP3   OH257099   5.985   5.741  13.008  0.2227  0.4029  0.2948
11895TIP3    H157100   5.894   5.714  12.999  0.3820 -0.1985  0.3890
11895TIP3    H257101   6.030   5.662  13.038  1.3465 -0.2181 -2.6912
11896TIP3   OH257102   3.538   1.496   4.617  0.0578  0.2152 -0.0071
11896TIP3    H157103   3.514   1.425   4.557 -0.8923 -0.9544  1.7046
11896TIP3    H257104   3.455   1.529   4.651  0.5680  1.0818  0.4378
11897TIP3   OH257105   2.805   6.127  16.572  0.3014 -0.4413  0.0852
11897TIP3    H157106   2.818   6.221  16.569  1.9910 -0.6645 -2.1999
11897TIP3    H257107   2.711   6.115  16.588 -0.2114  1.6223 -1.1710
11898TIP3   OH257108   5.156   1.260   2.720 -0.5346  0.0236  0.3270
11898TIP3    H157109   5.121   1.281   2.634  1.1809 -0.0884 -0.4282
11898TIP3    H257110   5.213   1.334   2.742 -0.1208 -0.4543  0.8950
11899TIP3   OH257111   5.140   3.232  13.188  0.5523 -0.3292  0.6590
11899TIP3    H157112   5.101   3.145  13.196 -1.1854  0.4433  1.1414
11899TIP3    H257113   5.132   3.270  13.275 -0.1592  0.8734  0.0875
11900TIP3   OH257114   2.099   4.240   1.224  0.0941  0.2010  0.5975
11900TIP3    H157115   2.084   4.262   1.132  2.9238 -0.4432 -0.1323
11900TIP3    H257116   2.193   4.222   1.229 -0.2431 -1.3661  3.2954
11901TIP3   OH257117   0.589   2.111   5.276  0.0272  0.1372  0.8657
11901TIP3    H157118   0.527   2.142   5.210  1.6134 -0.3955 -0.9776
11901TIP3    H257119   0.578   2.015   5.275  1.5317 -0.0668 -0.2659
11902TIP3   OH257120   3.563   1.507   1.477  0.2113 -1.0481  0.4297
11902TIP3    H157121   3.563   1.442   1.406  2.2449 -0.5534 -0.0946
11902TIP3    H257122   3.556   1.591   1.432  2.1155 -0.6941  0.7275
11903TIP3   OH257123   0.469   3.991  12.913  0.0390  0.0210 -0.5203
11903TIP3    H157124   0.425   4.076  12.916 -1.9519 -0.9472  0.0505
11903TIP3    H257125   0.410   3.933  12.962  2.6356 -1.1272  1.4662
11904TIP3   OH257126   4.742   5.425   3.838 -0.1869  0.3948  0.5038
11904TIP3    H157127   4.731   5.376   3.920  1.4727 -0.1213  0.4504
11904TIP3    H257128   4.693   5.374   3.773  1.0666 -0.9489  0.5656
11905TIP3   OH257129   4.826   3.664  11.679 -0.2201  0.2501 -0.2390
11905TIP3    H157130   4.842   3.713  11.760 -0.5976 -0.9397  0.5772
11905TIP3    H257131   4.752   3.608  11.699 -2.3365  2.0819 -2.3784
11906TIP3   OH257132   0.540   4.131  16.651 -0.2633  0.2978 -0.3970
11906TIP3    H157133   0.568   4.134  16.560 -0.1791  0.9311 -0.3546
11906TIP3    H257134   0.445   4.143  16.647 -0.2866  0.1164 -0.4116
11907TIP3   OH257135   6.634   6.073  15.485  0.0597 -0.2250  0.0365
11907TIP3    H157136   6.662   6.147  15.432  0.4824 -0.1826  0.3195
11907TIP3    H257137   6.550   6.101  15.522  1.3136  1.0944  2.0647
11908TIP3   OH257138   3.182   4.320  13.923 -0.1519  0.0924 -0.3901
11908TIP3    H157139   3.119   4.367  13.977 -0.1823  1.5120 -1.6041
11908TIP3    H257140   3.226   4.388  13.872 -0.8891 -1.2418 -2.9697
11909TIP3   OH257141   2.935   2.353  11.084 -0.3073  0.8086  0.0062
11909TIP3    H157142   2.884   2.281  11.048 -0.5562  0.7476  0.4709
11909TIP3    H257143   3.007   2.365  11.022 -0.3616  0.2773 -0.1637
11910TIP3   OH257144   6.202   1.287  17.052  0.2574  0.1789  0.2411
11910TIP3    H157145   6.232   1.287  16.961 -0.9798  2.9937 -0.2713
11910TIP3    H257146   6.269   1.338  17.099  0.6295 -0.8364  0.8611
11911TIP3   OH257147   0.583   6.737  17.245  0.2066  0.1943  0.0124
11911TIP3    H157148   0.498   6.695  17.232 -0.7086  1.0253  2.6668
11911TIP3    H257149   0.607   6.771  17.158 -2.5949  0.7246 -0.6421
11912TIP3   OH257150   0.479   4.566  12.511  0.3389  0.2344 -0.0038
11912TIP3    H157151   0.504   4.474  12.506  0.7024  0.3063  0.4033
11912TIP3    H257152   0.458   4.590  12.421  1.9190  0.2080 -0.4113
11913TIP3   OH257153   0.180   1.660   3.904  0.2210  0.4903 -0.1195
11913TIP3    H157154   0.141   1.747   3.894 -0.8884  0.1171  0.7973
11913TIP3    H257155   0.152   1.611   3.827 -2.2259 -0.1491  1.0790
11914TIP3   OH257156   2.993   3.917  15.557  0.5347 -0.0126  0.3608
11914TIP3    H157157   3.060   3.873  15.610  1.5997  1.0165 -0.0947
11914TIP3    H257158   3.033   4.000  15.531 -2.0900  2.3061  2.9213
11915TIP3   OH257159   6.555   5.547  12.437 -0.2120  0.4430  0.0149
11915TIP3    H157160   6.543   5.571  12.346  1.2733  0.4596 -0.1951
11915TIP3    H257161   6.528   5.455  12.441 -0.7320  0.5766 -0.3248
11916TIP3   OH257162   0.003   0.566   1.075 -0.2545  0.2941  0.2901
11916TIP3    H157163   0.040   0.534   1.157  0.5589  0.3293 -0.0501
11916TIP3    H257164  -0.086   0.533   1.074 -0.3552  0.4925  1.3018
11917TIP3   OH257165   6.509   6.096  13.621  0.5410 -0.0507 -0.0284
11917TIP3    H157166   6.571   6.040  13.574  0.7395 -0.4755  0.7175
11917TIP3    H257167   6.482   6.161  13.557 -0.5947 -1.6784 -1.2885
11918TIP3   OH257168   1.300   4.273  16.647 -0.0716  0.6784  0.0842
11918TIP3    H157169   1.208   4.298  16.642 -0.1008  0.4356 -0.6599
11918TIP3    H257170   1.348   4.355  16.645 -0.2558  0.7867  0.0861
11919TIP3   OH257171   5.220   4.940   6.190  0.1339  0.6464 -0.1851
11919TIP3    H157172   5.299   4.984   6.223  0.0924 -0.0189  0.8499
11919TIP3    H257173   5.194   4.881   6.261  0.1267 -0.9915 -1.4837
11920TIP3   OH257174   4.961   6.250  15.316 -0.3471 -0.3054  0.1600
11920TIP3    H157175   4.885   6.307  15.326  0.0904  0.3335 -0.0479
11920TIP3    H257176   4.935   6.167  15.356 -1.3192 -0.2578 -0.3593
11921TIP3   OH257177   5.605   4.523   3.811 -0.4206  0.1123 -0.2651
11921TIP3    H157178   5.648   4.533   3.896 -0.7937  3.3853 -0.3498
11921TIP3    H257179   5.553   4.443   3.819  2.8551 -2.0840  1.0269
11922TIP3   OH257180   0.713   3.153  12.995 -0.2355  0.1373  0.2022
11922TIP3    H157181   0.651   3.181  13.063 -1.0789 -1.4513  0.1156
11922TIP3    H257182   0.696   3.212  12.922 -0.9838  0.3234  0.5218
11923TIP3   OH257183   2.733   6.572  14.063  0.6314  0.5869 -0.2085
11923TIP3    H157184   2.704   6.592  13.974  0.1371 -0.3958 -0.2864
11923TIP3    H257185   2.657   6.590  14.118  0.0351 -1.3050 -0.3260
11924TIP3   OH257186   6.462   5.980  15.233 -0.2520 -0.1168 -0.0970
11924TIP3    H157187   6.502   6.007  15.315 -0.1524 -1.1005  0.1906
11924TIP3    H257188   6.368   5.993  15.246 -0.4160 -1.9101  0.8418
11925TIP3   OH257189   2.593   3.855  14.892  0.0942  0.1939 -0.7345
11925TIP3    H157190   2.549   3.771  14.899  0.3590  0.1695  1.2014
11925TIP3    H257191   2.546   3.912  14.953  1.6263  0.6472  0.0810
11926TIP3   OH257192   4.756   3.393  16.305 -0.2043 -0.9769  0.7872
11926TIP3    H157193   4.731   3.456  16.238  0.1235 -1.0233  0.6244
11926TIP3    H257194   4.779   3.447  16.381 -1.9584 -0.9467  1.3607
11927TIP3   OH257195   3.315   2.482  16.000  0.1672  0.1683  0.6850
11927TIP3    H157196   3.221   2.501  16.010 -0.1252 -0.4489 -0.6383
11927TIP3    H257197   3.357   2.567  16.000 -0.1946  0.4130  2.8170
11928TIP3   OH257198   4.304   0.585  14.920 -0.1019 -0.0484 -0.3443
11928TIP3    H157199   4.239   0.640  14.965  0.1643 -0.6471  0.8221
11928TIP3    H257200   4.252   0.534  14.858 -0.3657  1.4224 -1.3758
11929TIP3   OH257201   0.411   5.250  17.202  0.3034 -0.3328  0.2284
11929TIP3    H157202   0.405   5.221  17.293  2.2269 -0.7442  0.2621
11929TIP3    H257203   0.455   5.335  17.207 -0.5670  0.1533 -0.2485
11930TIP3   OH257204   4.520   1.195  15.797 -0.7417 -0.5848 -0.2491
11930TIP3    H157205   4.534   1.111  15.842 -1.5903 -0.3381  0.4999
11930TIP3    H257206   4.461   1.173  15.725 -1.6510 -0.5027  0.4511
11931TIP3   OH257207   6.233   0.211   2.584  0.1014 -0.0197 -0.0695
11931TIP3    H157208   6.255   0.180   2.671  0.9148  1.2056  0.1842
11931TIP3    H257209   6.137   0.209   2.581  0.0577  0.1930  0.9471
11932TIP3   OH257210   0.158   4.263   1.508  0.3684  0.4098 -0.2208
11932TIP3    H157211   0.119   4.236   1.592  1.6784 -0.6849  0.0684
11932TIP3    H257212   0.085   4.260   1.446 -0.5740  1.0241  0.8213
11933TIP3   OH257213   1.019   0.564  13.764 -0.0045 -0.2823  0.1585
11933TIP3    H157214   1.100   0.547  13.812  0.9296  0.2700 -1.1778
11933TIP3    H257215   0.984   0.644  13.804  1.1380  0.5839 -0.4900
11934TIP3   OH257216   6.520   4.686  16.666 -0.1083 -0.6443 -0.6067
11934TIP3    H157217   6.443   4.733  16.699 -0.7285 -1.6570 -0.5543
11934TIP3    H257218   6.531   4.717  16.576  1.0281  1.4413  0.2057
11935TIP3   OH257219   6.030   0.018  12.346  0.2151 -0.6101  0.2819
11935TIP3    H157220   5.940   0.031  12.315 -0.3599  0.2876  2.1453
11935TIP3    H257221   6.085   0.060  12.280 -0.7188 -1.1236 -0.8571
11936TIP3   OH257222   3.536   1.633   4.005 -0.3398  0.1172 -0.0167
11936TIP3    H157223   3.499   1.687   3.936  1.2646  1.5526  0.1877
11936TIP3    H257224   3.607   1.685   4.041  2.3095 -2.6858 -0.7842
11937TIP3   OH257225   0.470   4.198   2.874 -0.1098 -0.4150 -0.2717
11937TIP3    H157226   0.456   4.104   2.864 -3.9398 -0.2312  1.5063
11937TIP3    H257227   0.477   4.231   2.784 -1.8520 -2.0917 -1.0902
11938TIP3   OH257228   4.905   5.792   6.781 -0.3465 -0.4981 -0.0122
11938TIP3    H157229   4.831   5.734   6.765 -1.9433  1.2657  0.5125
11938TIP3    H257230   4.865   5.871   6.819  1.8829  0.2893  0.8658
11939TIP3   OH257231   1.093   4.242   1.963  0.0299 -0.3510 -0.2659
11939TIP3    H157232   1.023   4.307   1.978  0.3066  0.0707 -0.7859
11939TIP3    H257233   1.046   4.162   1.941 -0.2865  0.2180 -1.7558
11940TIP3   OH257234   5.204   1.664   4.195  0.1775  0.2392  0.4932
11940TIP3    H157235   5.289   1.647   4.235  0.6835  0.5816 -0.3941
11940TIP3    H257236   5.224   1.680   4.103 -1.0151 -1.3332 -0.0902
11941TIP3   OH257237   6.255   1.472  14.156  0.0158  0.2463  0.0931
11941TIP3    H157238   6.285   1.543  14.214 -2.9538  2.0489 -0.3572
11941TIP3    H257239   6.294   1.492  14.072 -0.6700  1.3171  0.0098
11942TIP3   OH257240   1.089   6.295   2.007  0.1484  0.6734  0.1365
11942TIP3    H157241   1.032   6.369   1.987  0.8203  1.1350 -0.1103
11942TIP3    H257242   1.175   6.334   2.019  1.1845 -0.3132 -2.9396
11943TIP3   OH257243   6.138   1.084  17.227 -0.6547  0.2176  0.0574
11943TIP3    H157244   6.166   1.148  17.162 -1.5280 -1.4426 -2.0890
11943TIP3    H257245   6.062   1.123  17.268 -1.4562  0.4278 -1.5517
11944TIP3   OH257246   0.679   0.938   1.106 -0.1565 -0.2094 -0.7007
11944TIP3    H157247   0.601   0.888   1.130 -1.5459  2.1466  0.0038
11944TIP3    H257248   0.727   0.949   1.188  1.7866 -2.7852 -1.3230
11945TIP3   OH257249   1.900   5.515   1.489  0.3849  0.1423 -0.4473
11945TIP3    H157250   1.980   5.562   1.512  0.3001  0.5265 -0.9217
11945TIP3    H257251   1.897   5.442   1.550  1.2056  0.0050 -0.5573
11946TIP3   OH257252   0.651   6.322   5.249  0.2037 -0.1692  0.0469
11946TIP3    H157253   0.560   6.335   5.274 -0.0914  0.0034 -1.0589
11946TIP3    H257254   0.692   6.408   5.261 -0.3292  0.3445 -1.5716
11947TIP3   OH257255   2.722   4.719   6.265  0.0726 -0.1296  0.0861
11947TIP3    H157256   2.654   4.716   6.333 -3.1887  3.8693 -2.4422
11947TIP3    H257257   2.761   4.806   6.275 -1.3549  1.1127 -3.5517
11948TIP3   OH257258   2.619   0.287  12.588 -0.0386 -0.1776 -0.1477
11948TIP3    H157259   2.639   0.245  12.504  2.9627 -0.0871  0.3981
11948TIP3    H257260   2.608   0.379  12.567 -0.7467 -0.3587 -0.6026
11949TIP3   OH257261   0.960   5.329  12.068 -0.1320 -0.0806 -1.1781
11949TIP3    H157262   1.053   5.341  12.052 -0.1134  0.0784 -0.9551
11949TIP3    H257263   0.920   5.331  11.981 -0.1128  1.4455 -1.1755
11950TIP3   OH257264   1.395   3.124   5.309  0.0980 -0.6040 -0.7368
11950TIP3    H157265   1.441   3.149   5.229 -1.8102  1.8963 -1.1747
11950TIP3    H257266   1.454   3.152   5.379  0.5109 -0.1181 -1.2640
11951TIP3   OH257267   5.269   1.657  13.448 -0.4671 -0.4192  0.3723
11951TIP3    H157268   5.299   1.567  13.438 -1.4315 -0.7844  0.6876
11951TIP3    H257269   5.293   1.681  13.538 -0.8511 -0.6041  0.5227
11952TIP3   OH257270   1.053   2.468  15.458  0.1765 -0.2059 -0.7080
11952TIP3    H157271   0.962   2.492  15.476  0.5470  1.0241 -0.3399
11952TIP3    H257272   1.102   2.550  15.470  1.8173 -1.4605  2.5882
11953TIP3   OH257273   6.768   6.186   5.607 -0.6095 -0.1451 -0.6368
11953TIP3    H157274   6.773   6.232   5.690 -0.4997 -0.5696 -0.4064
11953TIP3    H257275   6.680   6.147   5.606 -0.4181 -0.5935 -0.4722
11954TIP3   OH257276   0.912   1.161  11.462 -0.4700  0.2159  0.4257
11954TIP3    H157277   0.835   1.148  11.406  1.2430 -3.7934 -1.3782
11954TIP3    H257278   0.980   1.191  11.401  0.6093 -1.0820  0.9522
11955TIP3   OH257279   6.112   6.304  15.926  0.1115 -0.1136  0.4602
11955TIP3    H157280   6.073   6.299  16.014  0.1441 -0.8037  0.4409
11955TIP3    H257281   6.205   6.287  15.940  0.4967  1.8546  0.5447
11956TIP3   OH257282   5.154   4.287   5.604  0.4606 -0.1027  0.6231
11956TIP3    H157283   5.068   4.258   5.634  0.3617 -1.3012 -0.7201
11956TIP3    H257284   5.140   4.315   5.514  1.1660  1.3809  0.9400
11957TIP3   OH257285   3.313   0.669  10.866  0.7651  0.5090 -0.3661
11957TIP3    H157286   3.326   0.757  10.901  1.5408  0.8826 -1.5429
11957TIP3    H257287   3.395   0.648  10.822  0.9087 -1.1647  0.6045
11958TIP3   OH257288   1.753   4.941  16.885 -0.0599  0.3129 -0.2850
11958TIP3    H157289   1.723   4.855  16.913 -1.3433  0.2820 -1.6344
11958TIP3    H257290   1.750   4.994  16.965 -0.8747 -0.4737  0.2354
11959TIP3   OH257291   5.643   6.179  14.216 -0.4144 -0.1120 -0.2275
11959TIP3    H157292   5.553   6.148  14.199 -0.8167  1.4865 -1.2317
11959TIP3    H257293   5.650   6.182  14.311 -0.7892 -1.9676 -0.1028
11960TIP3   OH257294   0.801   1.701  13.209  0.3277  0.1347 -0.4392
11960TIP3    H157295   0.833   1.791  13.201  0.5854  0.0398 -0.4862
11960TIP3    H257296   0.713   1.710  13.245  1.1930  0.3179  1.7760
11961TIP3   OH257297   3.149   0.564  14.452  0.1836  0.6147 -0.2973
11961TIP3    H157298   3.176   0.513  14.376 -0.8887  1.7033 -1.4470
11961TIP3    H257299   3.209   0.536  14.522 -0.9067 -2.8859 -0.5720
11962TIP3   OH257300   6.365   6.208  11.777 -0.1318 -0.2909  0.0621
11962TIP3    H157301   6.364   6.274  11.707  2.7336 -1.3931 -1.1729
11962TIP3    H257302   6.391   6.257  11.855 -0.4369  0.4633 -0.2994
11963TIP3   OH257303   0.432   0.426   5.799 -0.2685  0.2521 -0.1243
11963TIP3    H157304   0.486   0.436   5.877  1.0472 -0.3261 -0.9272
11963TIP3    H257305   0.426   0.331   5.785  0.1094  0.3585 -1.1114
11964TIP3   OH257306   2.852   3.529   5.275 -0.2247 -0.0589  0.2904
11964TIP3    H157307   2.781   3.568   5.224 -0.2904 -0.3061  0.1892
11964TIP3    H257308   2.929   3.536   5.219 -0.0747  0.6039  0.5766
11965TIP3   OH257309   4.680   2.237  15.900 -0.2850  0.0162 -0.7233
11965TIP3    H157310   4.689   2.293  15.823  1.5695 -0.4070 -0.8645
11965TIP3    H257311   4.592   2.200  15.892 -0.5641  0.8642 -2.0207
11966TIP3   OH257312   5.593   0.239   2.586 -0.2846 -0.2085  0.3862
11966TIP3    H157313   5.683   0.212   2.568 -0.4971 -0.4610 -0.3312
11966TIP3    H257314   5.548   0.158   2.610 -0.5382 -0.2402 -0.1771
11967TIP3   OH257315   2.161   4.989   5.665 -0.0262 -0.4364  0.3998
11967TIP3    H157316   2.252   5.003   5.641  0.0221 -1.1481  0.1261
11967TIP3    H257317   2.162   4.908   5.717 -0.8218 -2.1703 -2.0717
11968TIP3   OH257318   3.000   1.226   3.609 -0.0145 -0.3565 -0.0601
11968TIP3    H157319   2.996   1.147   3.663 -2.2596  0.0759  0.4794
11968TIP3    H257320   2.961   1.294   3.664 -0.6623  0.5023 -1.5491
11969TIP3   OH257321   1.842   4.537   3.919  0.2670 -0.1208 -0.4181
11969TIP3    H157322   1.759   4.501   3.887  0.3680 -0.5693 -0.1891
11969TIP3    H257323   1.833   4.632   3.909 -1.7283  0.1888  2.8689
11970TIP3   OH257324   4.741   4.586  13.227 -0.3677 -0.1109  0.5423
11970TIP3    H157325   4.738   4.507  13.281 -0.3490 -0.5832 -0.1353
11970TIP3    H257326   4.653   4.623  13.234 -0.6310 -0.6520  0.1942
11971TIP3   OH257327   5.463   0.115  13.379  0.9541 -0.1684  0.6774
11971TIP3    H157328   5.540   0.146  13.426  1.1389  0.7104 -0.1676
11971TIP3    H257329   5.484   0.025  13.355  1.0239 -0.4815  1.8929
11972TIP3   OH257330   5.028   2.743   2.723 -0.1848  0.5265 -0.1058
11972TIP3    H157331   5.100   2.803   2.702  0.6408  0.1538  1.5398
11972TIP3    H257332   5.050   2.662   2.676 -0.0613  0.7364 -0.4152
11973TIP3   OH257333   2.243   0.952   4.760 -0.4736  0.4687  0.7252
11973TIP3    H157334   2.288   1.035   4.742 -2.2973  1.3961  0.1630
11973TIP3    H257335   2.175   0.947   4.692  2.1092 -3.5747 -2.0220
11974TIP3   OH257336   2.532   3.353  11.968  0.5311  0.1084 -0.1838
11974TIP3    H157337   2.564   3.278  12.018  2.0867  1.7627  1.4643
11974TIP3    H257338   2.442   3.366  11.998  0.6821 -0.3284  0.4706
11975TIP3   OH257339   5.911   0.883   3.072 -0.1652 -0.3884  0.0283
11975TIP3    H157340   5.891   0.866   2.980  0.3658 -1.0111  0.0187
11975TIP3    H257341   5.850   0.952   3.098 -0.4284 -0.3231 -0.7442
11976TIP3   OH257342   6.770   0.704   2.036 -0.0072  0.2093  0.5936
11976TIP3    H157343   6.740   0.750   1.957  0.2706 -1.2860 -0.4187
11976TIP3    H257344   6.814   0.772   2.087  0.1185  1.1463 -0.6922
11977TIP3   OH257345   6.060   3.228  14.234  0.6695  0.0028  0.1168
11977TIP3    H157346   6.038   3.320  14.251  1.9183  0.2950  0.2020
11977TIP3    H257347   6.139   3.212  14.286 -0.2979 -1.5217  1.2013
11978TIP3   OH257348   5.928   4.560   1.907  0.0170 -0.4318  0.2109
11978TIP3    H157349   5.890   4.546   1.993  1.1639 -0.0951  0.7934
11978TIP3    H257350   5.992   4.631   1.920 -1.4998  1.3760 -1.4088
11979TIP3   OH257351   3.500   2.104  14.403  0.3669  0.0867 -0.3219
11979TIP3    H157352   3.559   2.129  14.474  0.9541 -1.8975 -0.0387
11979TIP3    H257353   3.420   2.076  14.447  0.1536  0.3363 -0.5492
11980TIP3   OH257354   0.851   6.523  13.354 -0.2169  0.4271  0.1893
11980TIP3    H157355   0.836   6.435  13.317 -0.5845  0.5085  0.1408
11980TIP3    H257356   0.945   6.538  13.342  0.4013 -0.9843  2.4249
11981TIP3   OH257357   3.835   2.551   2.419 -0.2157 -0.0372  0.2521
11981TIP3    H157358   3.895   2.526   2.490  1.1256 -0.8799 -1.1273
11981TIP3    H257359   3.891   2.558   2.342 -1.9014 -0.8934 -1.1134
11982TIP3   OH257360   6.606   5.957   2.375 -0.3417  0.4211  0.4932
11982TIP3    H157361   6.552   6.016   2.321 -1.7305 -1.3742 -0.2029
11982TIP3    H257362   6.686   5.945   2.324 -0.5641  0.7452  0.0573
11983TIP3   OH257363   3.404   2.392  12.797 -0.2527  0.2704 -1.0038
11983TIP3    H157364   3.403   2.342  12.878  2.1552 -0.1322 -1.1473
11983TIP3    H257365   3.431   2.480  12.823 -0.3227  0.3678 -1.2532
11984TIP3   OH257366   3.128   3.941   6.148 -0.7409 -0.6185  0.1956
11984TIP3    H157367   3.082   3.992   6.215 -0.2038  0.5961 -0.3329
11984TIP3    H257368   3.221   3.955   6.167 -0.5337 -2.3202  0.7009
11985TIP3   OH257369   5.218   3.870  13.286  0.0886 -0.3687  0.1396
11985TIP3    H157370   5.240   3.960  13.263  0.4470 -0.6483 -0.6508
11985TIP3    H257371   5.135   3.877  13.332 -0.6229  0.2361 -1.1843
11986TIP3   OH257372   1.049   3.746  14.328 -0.1927  0.6634  0.3615
11986TIP3    H157373   1.096   3.666  14.304  0.4309  0.8158  1.0323
11986TIP3    H257374   1.061   3.804  14.252 -1.4486 -0.1966 -0.5261
11987TIP3   OH257375   5.264   6.466   4.986  0.2908 -0.6039  0.2818
11987TIP3    H157376   5.233   6.542   5.036 -0.3114  0.2617 -1.3230
11987TIP3    H257377   5.184   6.417   4.965  0.0511  0.7178 -2.4039
11988TIP3   OH257378   0.398   2.764   4.290 -0.0548  0.2695 -0.6315
11988TIP3    H157379   0.438   2.743   4.205 -1.1348 -1.1115 -0.8445
11988TIP3    H257380   0.378   2.678   4.328 -0.6822  0.8971  0.4958
11989TIP3   OH257381   4.812   4.982   3.398 -0.2102 -0.1482  0.3903
11989TIP3    H157382   4.786   4.890   3.400  0.0134 -0.2245 -0.1221
11989TIP3    H257383   4.752   5.023   3.336 -0.6609  0.1627  1.0303
11990TIP3   OH257384   1.571   0.282   0.270 -0.3978  0.0321 -0.1839
11990TIP3    H157385   1.592   0.281   0.363  1.0672  2.2319 -0.4137
11990TIP3    H257386   1.650   0.316   0.228 -0.6117 -1.9187 -2.3874
11991TIP3   OH257387   3.609   0.563  17.087  0.0725  0.2317  0.1120
11991TIP3    H157388   3.530   0.579  17.139 -1.2310 -1.7646 -1.1228
11991TIP3    H257389   3.579   0.568  16.996  1.6448  0.6046 -0.4148
11992TIP3   OH257390   2.741   3.753   1.655  0.3126  0.0549  0.3267
11992TIP3    H157391   2.794   3.768   1.734  1.6693 -0.8673 -0.3678
11992TIP3    H257392   2.650   3.765   1.684  0.8054  0.1348  1.9216
11993TIP3   OH257393   4.550   4.278   3.887  0.4560 -0.2398 -0.3551
11993TIP3    H157394   4.537   4.261   3.980  1.9202 -0.8717 -0.2422
11993TIP3    H257395   4.601   4.359   3.885 -3.1221  2.2689 -0.7916
11994TIP3   OH257396   4.569   6.116  12.971 -0.4648  0.4688  0.3607
11994TIP3    H157397   4.497   6.130  13.032 -1.6292  0.6502 -1.0126
11994TIP3    H257398   4.589   6.023  12.979  0.0694  0.6764  1.7098
11995TIP3   OH257399   5.235   5.577  15.257 -0.1585 -0.1196 -0.0190
11995TIP3    H157400   5.232   5.529  15.340  2.3949  1.1309  0.8810
11995TIP3    H257401   5.266   5.513  15.193  2.2188 -0.0274  0.9612
11996TIP3   OH257402   0.050   2.259   6.157 -0.3594 -0.1944 -0.8815
11996TIP3    H157403   0.015   2.206   6.229  0.8689  0.5650  0.3448
11996TIP3    H257404  -0.025   2.308   6.125 -0.7318  0.3943  0.7651
11997TIP3   OH257405   3.120   5.708   0.246 -0.0678  0.0814 -0.0611
11997TIP3    H157406   3.025   5.701   0.243 -0.1336  1.1280 -1.4075
11997TIP3    H257407   3.151   5.628   0.203 -0.4117  0.5785 -1.2861
11998TIP3   OH257408   5.508   0.858  16.433 -0.3080  0.4328  0.5785
11998TIP3    H157409   5.555   0.935  16.402  0.1086 -0.1831 -0.3405
11998TIP3    H257410   5.492   0.805  16.355  1.4060 -1.5106  1.4221
11999TIP3   OH257411   4.158   4.105   0.664 -0.0625  0.0367 -0.0121
11999TIP3    H157412   4.209   4.137   0.738  0.7611 -2.1034  0.4204
11999TIP3    H257413   4.072   4.146   0.674 -0.0717 -0.4244  2.3227
12000TIP3   OH257414   0.487   4.361  17.107 -0.8725 -0.2925 -0.0691
12000TIP3    H157415   0.485   4.271  17.074 -0.1316 -0.9557  1.5514
12000TIP3    H257416   0.478   4.416  17.029  0.7682 -1.7428 -1.3770
12001TIP3   OH257417   1.867   4.456   5.920  0.5391  0.6885  0.0135
12001TIP3    H157418   1.853   4.365   5.944 -0.6183  0.2072 -2.1955
12001TIP3    H257419   1.937   4.453   5.855  1.9447  1.6508  1.4198
12002TIP3   OH257420   1.797   1.368   4.708  0.3251 -0.3058 -0.3449
12002TIP3    H157421   1.886   1.364   4.674  1.3192  0.9361  1.9142
12002TIP3    H257422   1.790   1.296   4.769 -0.1602 -0.2755 -0.3551
12003TIP3   OH257423   3.893   0.342   5.166 -0.4133  1.0367 -0.0851
12003TIP3    H157424   3.798   0.340   5.154 -0.7308  0.6804  2.1022
12003TIP3    H257425   3.921   0.251   5.158 -0.9704  0.3919  3.6280
12004TIP3   OH257426   6.164   5.629   2.091 -0.2200 -0.3603 -0.2605
12004TIP3    H157427   6.223   5.622   2.015 -0.4828 -0.8153 -0.4257
12004TIP3    H257428   6.149   5.723   2.100 -0.0501 -0.2885 -0.6686
12005TIP3   OH257429   3.743   2.719   6.199  0.2894 -0.1453 -0.0717
12005TIP3    H157430   3.831   2.721   6.160  0.2309  0.7521 -0.1746
12005TIP3    H257431   3.694   2.657   6.145  0.6183  0.0038 -0.5435
12006TIP3   OH257432   2.771   6.737   5.595  0.3170 -0.0122  0.0157
12006TIP3    H157433   2.713   6.711   5.666 -0.4847 -1.0622 -0.9863
12006TIP3    H257434   2.752   6.830   5.582  1.6182  0.6462  2.1599
12007TIP3   OH257435   3.884   3.049   3.076  0.0719  0.4744 -0.7469
12007TIP3    H157436   3.821   3.106   3.031 -1.5735 -2.3273 -2.2407
12007TIP3    H257437   3.945   3.022   3.007  0.7424  0.2768 -0.0874
12008TIP3   OH257438   5.665   3.076   1.329  0.1150  0.1985 -0.5629
12008TIP3    H157439   5.590   3.056   1.273 -0.9431  0.0296  0.8553
12008TIP3    H257440   5.629   3.133   1.397  0.8168 -1.4201  1.2538
12009TIP3   OH257441   4.098   6.160  11.690 -0.4048  0.2818 -0.2228
12009TIP3    H157442   4.128   6.070  11.687  0.3138  0.5290 -0.5851
12009TIP3    H257443   4.170   6.209  11.729 -0.7374  0.7242 -0.1500
12010TIP3   OH257444   3.561   4.812   1.981 -0.5610 -0.0019 -0.4186
12010TIP3    H157445   3.481   4.851   1.946  0.8598  1.2223 -2.5056
12010TIP3    H257446   3.608   4.780   1.904  2.0571  1.5065  0.4268
12011TIP3   OH257447   1.500   0.341  16.517  0.4127 -0.5329  0.2662
12011TIP3    H157448   1.461   0.253  16.516 -0.4187 -0.1933  0.9498
12011TIP3    H257449   1.514   0.359  16.610  1.3209 -0.2492  0.0790
12012TIP3   OH257450   4.933   0.362   2.943  0.3660 -0.1452 -0.5907
12012TIP3    H157451   4.848   0.322   2.962  1.2314 -0.7366  2.4952
12012TIP3    H257452   4.996   0.310   2.992  2.4161  0.9451 -1.9289
12013TIP3   OH257453   2.867   4.764   5.043 -0.5680  0.0422 -0.3809
12013TIP3    H157454   2.840   4.827   5.109 -2.5982  0.2811 -1.3475
12013TIP3    H257455   2.963   4.769   5.041 -0.6301  2.2232  0.3802
12014TIP3   OH257456   3.630   0.858   3.651 -0.7327 -0.0949  0.2453
12014TIP3    H157457   3.581   0.863   3.569 -0.7165  1.4967  0.3051
12014TIP3    H257458   3.722   0.865   3.624 -0.7977  3.0533  0.4995
12015TIP3   OH257459   2.040   1.764   0.975 -0.1880 -0.5444 -0.4654
12015TIP3    H157460   1.990   1.769   1.056  1.7483 -1.0643  0.8279
12015TIP3    H257461   2.029   1.850   0.934  1.3129  0.8995  1.9537
12016TIP3   OH257462   6.324   6.439  11.631 -0.5603  0.3672  0.0672
12016TIP3    H157463   6.385   6.489  11.686 -0.2236  1.0475 -0.8926
12016TIP3    H257464   6.238   6.452  11.673 -0.3525  1.0982  0.2923
12017TIP3   OH257465   1.086   1.111   0.157 -0.7257 -0.1875 -0.6695
12017TIP3    H157466   1.061   1.097   0.066  0.0513 -1.8115 -0.6801
12017TIP3    H257467   1.167   1.161   0.153 -0.4770 -0.5999 -0.9061
12018TIP3   OH257468   1.440   5.878   3.886  0.3319  0.1876  0.2128
12018TIP3    H157469   1.390   5.845   3.961  2.1453  0.3089  1.5424
12018TIP3    H257470   1.376   5.881   3.814 -1.5737  0.4614  1.8333
12019TIP3   OH257471   1.751   0.403   5.087 -0.0062  0.4515 -0.2677
12019TIP3    H157472   1.802   0.443   5.157  0.4240  1.5292 -1.1716
12019TIP3    H257473   1.667   0.380   5.128  1.0746 -1.1143  1.1715
12020TIP3   OH257474   3.413   0.447  16.122 -0.4188 -0.1450  0.1133
12020TIP3    H157475   3.346   0.379  16.110 -1.1158  0.6129 -0.3506
12020TIP3    H257476   3.421   0.488  16.037  0.1255  0.2523  0.3533
12021TIP3   OH257477   3.557   1.994  17.149 -0.0932 -0.0393  0.0159
12021TIP3    H157478   3.465   1.992  17.176 -0.8844  0.8612 -2.4217
12021TIP3    H257479   3.557   1.962  17.059  2.0454 -0.3150  0.0641
12022TIP3   OH257480   4.526   6.645   2.134 -0.3754  0.0162  0.3330
12022TIP3    H157481   4.568   6.619   2.053 -1.6085  1.0694 -0.6943
12022TIP3    H257482   4.598   6.668   2.193  0.5111  0.5029 -0.9019
12023TIP3   OH257483   1.255   2.457   2.911  0.0011 -0.1863 -0.7443
12023TIP3    H157484   1.227   2.498   2.829 -0.5261 -0.7019 -0.8295
12023TIP3    H257485   1.330   2.510   2.940  0.7118 -0.4832 -1.9716
12024TIP3   OH257486   4.341   3.275   2.120 -0.4579 -1.0119  0.1800
12024TIP3    H157487   4.345   3.292   2.026  0.2846 -2.3547 -0.0676
12024TIP3    H257488   4.367   3.183   2.129  0.5111 -0.6221  1.7942
12025TIP3   OH257489   6.502   0.549  11.402  0.2280 -0.2780 -0.7074
12025TIP3    H157490   6.586   0.532  11.445 -0.7537 -2.3330  0.5342
12025TIP3    H257491   6.525   0.602  11.325  2.2571  1.9534  1.2966
12026TIP3   OH257492   6.319   5.949  11.555 -0.1221 -0.1469  0.0268
12026TIP3    H157493   6.370   6.009  11.499 -1.3751 -0.9181 -2.0851
12026TIP3    H257494   6.355   5.863  11.537 -0.2620 -0.3594  0.7544
12027TIP3   OH257495   2.663   2.325  14.900  0.0891  0.1866 -0.5289
12027TIP3    H157496   2.575   2.360  14.891 -0.7838 -0.9769  2.3109
12027TIP3    H257497   2.652   2.230  14.901  1.0729  0.0247  1.5798
12028TIP3   OH257498   3.686   1.906   2.128  0.0999 -0.3027  0.6714
12028TIP3    H157499   3.780   1.897   2.143  0.4497  0.9218 -0.5269
12028TIP3    H257500   3.676   1.993   2.091 -1.7429  0.2604  2.3403
12029TIP3   OH257501   6.085   2.586  15.754  0.6423 -0.4019  0.0260
12029TIP3    H157502   6.017   2.594  15.686  0.1058 -0.1503  0.5842
12029TIP3    H257503   6.037   2.568  15.834  1.0068  1.9050  0.8567
12030TIP3   OH257504   1.368   2.268   3.956  0.3002  0.0823  0.1184
12030TIP3    H157505   1.446   2.237   4.001 -0.0164 -0.7383  0.1085
12030TIP3    H257506   1.314   2.190   3.944 -0.0314  0.4513 -0.8614
12031TIP3   OH257507   2.598   5.014   1.466  0.1241 -0.3829  0.2989
12031TIP3    H157508   2.540   5.059   1.405  2.1466  0.1941 -1.3009
12031TIP3    H257509   2.605   5.075   1.540  0.2438  0.4672 -0.3876
12032TIP3   OH257510   0.269   1.983   4.546 -0.2414  0.0090 -0.1043
12032TIP3    H157511   0.337   2.049   4.557 -1.8362  2.0617 -1.7784
12032TIP3    H257512   0.230   1.974   4.633  0.4493  0.7551  0.2902
12033TIP3   OH257513   6.070   5.813   3.638 -0.7156 -0.2849 -0.3701
12033TIP3    H157514   6.021   5.752   3.584 -1.1784  0.0706 -0.3558
12033TIP3    H257515   6.015   5.892   3.641  0.0225  0.2583 -0.6757
12034TIP3   OH257516   2.056   1.238   4.043  0.1582 -0.0774  0.4755
12034TIP3    H157517   2.085   1.166   3.987 -0.5901 -0.1809  0.2084
12034TIP3    H257518   1.999   1.291   3.986 -1.7050 -0.9195  1.4904
12035TIP3   OH257519   2.713   1.436   3.546 -0.1035 -0.3815  0.3772
12035TIP3    H157520   2.755   1.479   3.620 -0.0435  2.0023 -0.9587
12035TIP3    H257521   2.781   1.429   3.479 -1.2993  2.2785 -1.2996
12036TIP3   OH257522   4.730   4.133  16.291  0.1404  0.3332  1.0203
12036TIP3    H157523   4.764   4.203  16.234  1.1052 -0.7187  0.2456
12036TIP3    H257524   4.778   4.055  16.263 -0.9666 -0.6608  1.8102
12037TIP3   OH257525   5.791   1.464   1.539  0.2216  0.4178 -0.3619
12037TIP3    H157526   5.764   1.383   1.495  2.2411 -0.5815  0.0995
12037TIP3    H257527   5.805   1.526   1.467  0.6698 -0.2956 -0.9053
12038TIP3   OH257528   6.244   3.682  13.284  0.5088 -0.4799 -0.2826
12038TIP3    H157529   6.156   3.645  13.291  0.8417 -1.1194  0.7670
12038TIP3    H257530   6.235   3.771  13.316 -0.2690  0.3704 -2.6809
12039TIP3   OH257531   4.361   6.291   3.918 -0.2584 -0.4202 -0.4943
12039TIP3    H157532   4.272   6.253   3.921 -0.2850 -0.2798  0.7176
12039TIP3    H257533   4.395   6.262   3.833 -1.8582  0.4406 -1.4957
12040TIP3   OH257534   4.784   4.051  14.506  0.0011  0.4764 -0.5433
12040TIP3    H157535   4.746   3.965  14.489  1.7863 -0.4470 -0.1413
12040TIP3    H257536   4.817   4.079  14.421 -0.7588  0.8661 -0.7141
12041TIP3   OH257537   0.673   4.994   1.229  0.1741 -0.0797  0.0542
12041TIP3    H157538   0.761   5.009   1.262  0.0850  0.9277 -0.1050
12041TIP3    H257539   0.659   5.067   1.168 -1.4301  0.8688  1.4552
12042TIP3   OH257540   1.690   2.531   3.386 -0.7719  0.2104  0.1375
12042TIP3    H157541   1.685   2.446   3.340 -2.7055 -0.1447  0.9039
12042TIP3    H257542   1.741   2.512   3.465 -0.9498 -0.1828  0.1642
12043TIP3   OH257543   1.084   3.379  17.311 -0.5183 -0.0335 -0.2368
12043TIP3    H157544   1.064   3.427  17.231  1.5124 -0.4043 -1.0046
12043TIP3    H257545   1.131   3.442  17.365 -1.1308 -0.0509  0.3329
12044TIP3   OH257546   2.968   1.270   2.093  0.1432  0.3512  0.1937
12044TIP3    H157547   2.961   1.302   2.183  2.7694 -0.9907  0.9764
12044TIP3    H257548   3.018   1.337   2.048  2.5780 -0.8430  0.9340
12045TIP3   OH257549   0.441   1.066  10.588 -0.3445 -0.6817  0.0955
12045TIP3    H157550   0.379   1.139  10.583 -0.6032 -0.9633 -2.8758
12045TIP3    H257551   0.395   0.998  10.637 -1.3986  0.0237  0.1155
12046TIP3   OH257552   1.665   5.287  11.300  0.4542 -0.0984 -0.1568
12046TIP3    H157553   1.610   5.276  11.378 -0.6864 -0.1858 -0.9533
12046TIP3    H257554   1.742   5.335  11.332 -0.9183  1.6936  0.6674
12047TIP3   OH257555   3.770   1.537   0.144  0.3950 -0.5985  0.2823
12047TIP3    H157556   3.757   1.445   0.167 -0.4774 -0.3899  0.6308
12047TIP3    H257557   3.683   1.575   0.145  0.7192  0.1781 -0.1328
12048TIP3   OH257558   0.314   2.692  15.097 -0.8373  0.3609 -0.0925
12048TIP3    H157559   0.407   2.712  15.082 -0.0107 -2.1131  1.0697
12048TIP3    H257560   0.276   2.687  15.010  0.9674 -1.8033 -0.8696
12049TIP3   OH257561   3.339   2.259   1.922 -0.5892  0.3481 -0.2105
12049TIP3    H157562   3.361   2.173   1.887 -1.7975  0.8348 -2.3835
12049TIP3    H257563   3.363   2.255   2.014  2.2724 -1.2556 -0.9179
12050TIP3   OH257564   6.411   5.557   2.467 -0.3520 -0.1172 -0.1491
12050TIP3    H157565   6.498   5.586   2.441 -0.0104 -1.0793 -0.1214
12050TIP3    H257566   6.399   5.592   2.555 -0.7016  1.4637 -0.7997
12051TIP3   OH257567   0.948   5.651   5.585 -0.4142 -0.5084  0.1778
12051TIP3    H157568   1.003   5.682   5.513 -0.0078  0.1354  0.7583
12051TIP3    H257569   1.001   5.664   5.663 -1.2271 -0.2773  0.7009
12052TIP3   OH257570   1.395   2.579   1.502 -0.0566  0.4593  0.0489
12052TIP3    H157571   1.313   2.572   1.453 -1.1296 -1.9356  1.9435
12052TIP3    H257572   1.380   2.652   1.562 -0.7086  0.2283  0.1802
12053TIP3   OH257573   6.491   1.035  13.950  0.3973 -0.5315 -0.3625
12053TIP3    H157574   6.585   1.019  13.940  0.8668  2.2633 -1.4439
12053TIP3    H257575   6.466   1.080  13.870 -1.8712 -1.1046 -0.0341
12054TIP3   OH257576   4.423   1.883  14.611  0.6453 -0.3400 -0.7997
12054TIP3    H157577   4.481   1.929  14.673 -0.7447  2.2794 -1.3167
12054TIP3    H257578   4.380   1.817  14.664 -0.1476  1.5130  1.0220
12055TIP3   OH257579   0.938   4.748  11.252  0.3069  0.1777 -0.1651
12055TIP3    H157580   0.956   4.839  11.229  0.6615 -0.2141 -1.5327
12055TIP3    H257581   0.847   4.734  11.226  0.6991 -0.2579 -1.3697
12056TIP3   OH257582   5.558   4.778  14.380  0.5545 -0.1022 -0.0071
12056TIP3    H157583   5.536   4.746  14.293  2.5831  2.3005 -1.5597
12056TIP3    H257584   5.483   4.833  14.405  0.3688 -0.0415 -0.6823
12057TIP3   OH257585   3.723   0.811  10.730  0.2593  0.5892 -0.3150
12057TIP3    H157586   3.692   0.901  10.734 -0.6338  0.3549 -1.4646
12057TIP3    H257587   3.646   0.760  10.704  1.1897 -0.2312 -1.5777
12058TIP3   OH257588   5.814   3.844  15.190 -0.9514  0.6644 -0.4521
12058TIP3    H157589   5.861   3.828  15.108 -3.2662  0.7629 -1.8949
12058TIP3    H257590   5.792   3.757  15.223  1.2593  0.5631  0.9428
12059TIP3   OH257591   5.076   6.238  12.553 -0.2363 -0.2703 -0.0518
12059TIP3    H157592   5.022   6.210  12.479 -0.4404 -0.6752  0.2491
12059TIP3    H257593   5.053   6.179  12.624 -0.1311  0.1937  0.3768
12060TIP3   OH257594   0.211   3.855  16.721  0.2824  0.0613 -0.3218
12060TIP3    H157595   0.263   3.849  16.642  1.0214  1.2607  0.0510
12060TIP3    H257596   0.271   3.831  16.792  0.2472  1.0527  0.0698
12061TIP3   OH257597   5.709   1.681   1.744 -0.3842  0.0003  0.4049
12061TIP3    H157598   5.745   1.595   1.726  0.5890  0.6313 -0.8157
12061TIP3    H257599   5.725   1.731   1.664  0.1336  1.6581  1.5005
12062TIP3   OH257600   5.418   1.324  14.975 -0.6550 -0.1256  0.2627
12062TIP3    H157601   5.488   1.261  14.990 -0.5844  0.3129  2.1206
12062TIP3    H257602   5.449   1.404  15.019 -0.5444  1.3843 -2.3609
12063TIP3   OH257603   6.486   2.217   1.168 -0.2231  0.6054  0.0402
12063TIP3    H157604   6.470   2.292   1.225  0.3582  0.8941 -0.1718
12063TIP3    H257605   6.401   2.172   1.163  0.1177 -0.5007  2.6099
12064TIP3   OH257606   2.348   3.102  12.617  0.1959 -0.7500  0.0919
12064TIP3    H157607   2.410   3.126  12.549  1.5175  1.5086  1.9267
12064TIP3    H257608   2.277   3.167  12.609  0.7531  0.0482  1.2811
12065TIP3   OH257609   4.867   4.917  16.787 -0.1271  0.4640  0.2611
12065TIP3    H157610   4.895   4.845  16.730 -2.3092 -1.0797  0.9837
12065TIP3    H257611   4.805   4.967  16.734 -0.6955  0.1662  0.6354
12066TIP3   OH257612   5.758   2.459   6.471  0.6785  0.3121 -0.2771
12066TIP3    H157613   5.764   2.536   6.528 -3.1119  0.0796  0.6694
12066TIP3    H257614   5.740   2.386   6.530 -0.6929 -0.3987 -1.5055
12067TIP3   OH257615   4.221   2.847  13.314  0.0155 -0.1928 -0.0097
12067TIP3    H157616   4.159   2.812  13.377  1.0494 -0.4087  0.9173
12067TIP3    H257617   4.294   2.785  13.316  0.1712 -0.0866 -1.2644
12068TIP3   OH257618   1.482   6.574  12.263 -0.1216  0.2729  0.2153
12068TIP3    H157619   1.478   6.500  12.202 -3.2817  1.4946 -1.2986
12068TIP3    H257620   1.516   6.536  12.344  0.8944 -2.2104 -1.2318
12069TIP3   OH257621   5.730   4.764  17.227  1.4315 -0.1486  0.7305
12069TIP3    H157622   5.764   4.814  17.153  3.0573 -0.9405  0.9085
12069TIP3    H257623   5.722   4.675  17.195 -2.8644  0.2644 -0.0564
12070TIP3   OH257624   5.356   3.150  11.211 -0.3092  0.0842  0.0714
12070TIP3    H157625   5.293   3.201  11.261 -1.0665 -2.6004  2.0474
12070TIP3    H257626   5.372   3.071  11.263  2.2792 -0.8519 -1.8654
12071TIP3   OH257627   3.277   5.100   0.324 -0.0512  0.1115 -0.3357
12071TIP3    H157628   3.286   5.138   0.412  2.3133  0.2973 -0.6178
12071TIP3    H257629   3.345   5.141   0.272 -0.6713 -0.8514 -1.9954
12072TIP3   OH257630   3.761   1.987   5.167  0.3357 -0.0654  0.1330
12072TIP3    H157631   3.703   2.061   5.155  0.0502 -0.4921 -1.4079
12072TIP3    H257632   3.820   1.991   5.091  1.2791 -0.5520  0.8244
12073TIP3   OH257633   1.201   6.076  12.804 -0.0584 -0.4059 -0.6883
12073TIP3    H157634   1.209   6.142  12.735  1.5669 -0.6740 -0.7883
12073TIP3    H257635   1.167   5.998  12.760 -0.3655 -0.1609 -0.8921
12074TIP3   OH257636   0.171   3.595  11.460  0.4387  0.3415 -0.0329
12074TIP3    H157637   0.130   3.681  11.457  2.9698  1.6029 -0.9855
12074TIP3    H257638   0.150   3.555  11.376 -2.8198 -1.1442  1.3025
12075TIP3   OH257639   2.221   1.038  17.228  0.1202  0.3091 -0.0519
12075TIP3    H157640   2.214   1.121  17.275  1.3417  0.4226 -0.0421
12075TIP3    H257641   2.310   1.008  17.246 -0.1142 -0.7143 -0.5390
12076TIP3   OH257642   3.775   1.847  12.814  0.3274  0.0968 -0.2741
12076TIP3    H157643   3.719   1.817  12.886  1.1896 -0.8333  0.0340
12076TIP3    H257644   3.717   1.896  12.757 -0.4619  0.5252  0.8630
12077TIP3   OH257645   2.056   3.707   2.808  0.6231 -0.5219 -0.2945
12077TIP3    H157646   2.120   3.647   2.843  0.9419  0.2118  0.4085
12077TIP3    H257647   1.971   3.669   2.831  0.8136 -1.0272 -0.4313
12078TIP3   OH257648   5.622   6.567  11.512 -0.3878 -0.2102 -0.2455
12078TIP3    H157649   5.693   6.587  11.572 -0.0842 -0.4823 -0.5125
12078TIP3    H257650   5.573   6.496  11.553 -0.1826 -0.3934 -0.3175
12079TIP3   OH257651   2.501   6.255   3.632  0.7679 -0.0720  0.0335
12079TIP3    H157652   2.473   6.196   3.563  0.9635  0.4109 -0.4654
12079TIP3    H257653   2.557   6.319   3.588  1.8398 -0.4293  0.8233
12080TIP3   OH257654   5.333   5.069   4.311 -0.4713 -0.1211 -0.7750
12080TIP3    H157655   5.262   5.039   4.367 -0.6019  0.9988 -0.3032
12080TIP3    H257656   5.290   5.119   4.242 -0.1317  0.9811 -0.2123
12081TIP3   OH257657   4.571   1.611   1.109 -0.1351  0.2052  0.2493
12081TIP3    H157658   4.511   1.566   1.048  1.2224 -0.8604 -0.3671
12081TIP3    H257659   4.637   1.545   1.130 -0.2925  0.6968  2.5572
12082TIP3   OH257660   4.277   2.341   5.846  0.3812 -0.7871 -0.0367
12082TIP3    H157661   4.268   2.367   5.938 -2.4232 -2.0103  0.1319
12082TIP3    H257662   4.204   2.282   5.831  2.2211 -2.6685 -2.4045
12083TIP3   OH257663   3.382   0.348  12.194  0.2075  0.3542  0.0561
12083TIP3    H157664   3.407   0.419  12.136  0.5721 -0.5283 -0.9077
12083TIP3    H257665   3.464   0.299  12.208 -0.0458  0.0888  0.6406
12084TIP3   OH257666   5.056   0.205   3.580  0.3832  0.2369 -0.3422
12084TIP3    H157667   5.094   0.235   3.497 -0.3625 -0.6465 -1.0175
12084TIP3    H257668   5.131   0.200   3.640  1.0057  0.4486 -1.0858
12085TIP3   OH257669   1.773   6.648  15.656  0.3964 -0.2490  0.4154
12085TIP3    H157670   1.739   6.621  15.741 -1.5063 -1.3745 -0.6366
12085TIP3    H257671   1.855   6.601  15.646  0.5953 -0.1669  1.5867
12086TIP3   OH257672   0.862   4.490   0.589  0.2813 -0.2785 -0.1174
12086TIP3    H157673   0.793   4.474   0.653  0.3669  0.0156  0.0515
12086TIP3    H257674   0.850   4.581   0.562  1.2638  0.1337  0.7399
12087TIP3   OH257675   6.632   6.411  11.388  0.6380  0.6714  0.2016
12087TIP3    H157676   6.550   6.386  11.431  0.0119  1.9807 -0.1662
12087TIP3    H257677   6.623   6.378  11.299  1.0408 -0.2228  0.4794
12088TIP3   OH257678   3.322   3.754   6.567  0.0679 -0.3105  0.0405
12088TIP3    H157679   3.271   3.832   6.588  0.4284 -0.1746  0.3981
12088TIP3    H257680   3.278   3.718   6.490  1.0237  1.2710 -1.2951
12089TIP3   OH257681   3.832   4.729   5.981  0.2724 -0.3546 -0.3057
12089TIP3    H157682   3.843   4.637   5.956  1.8653 -0.2038 -0.2673
12089TIP3    H257683   3.829   4.777   5.899 -2.6230 -0.5611 -0.4377
12090TIP3   OH257684   4.740   0.683   1.982  0.4225 -0.0844 -0.2114
12090TIP3    H157685   4.810   0.668   1.919  1.7586 -0.9857  1.4123
12090TIP3    H257686   4.703   0.596   1.998 -0.2075  0.1992 -0.0687
12091TIP3   OH257687   3.512   2.680   1.755 -0.2732  0.4504  0.1940
12091TIP3    H157688   3.485   2.679   1.847 -0.3876 -3.8110  0.3049
12091TIP3    H257689   3.526   2.588   1.733 -0.1055  1.2971 -4.0693
12092TIP3   OH257690   1.948   4.255  15.867 -0.1122  0.0584 -0.1593
12092TIP3    H157691   1.999   4.270  15.788  0.1835  2.6698  0.4221
12092TIP3    H257692   2.000   4.194  15.919 -0.4824 -1.9980 -2.0458
12093TIP3   OH257693   5.382   3.151  12.265 -0.3468  0.1617  0.0991
12093TIP3    H157694   5.369   3.056  12.253  1.2805 -0.1954  1.0153
12093TIP3    H257695   5.467   3.159  12.306 -0.5502  2.0448  0.2270
12094TIP3   OH257696   5.007   3.045  14.441 -0.1195 -0.5576  0.2441
12094TIP3    H157697   5.061   3.111  14.399  0.0967  0.1223  1.5428
12094TIP3    H257698   5.066   3.001  14.502 -0.8374 -0.3338  1.1153
12095TIP3   OH257699   6.491   1.392   5.691 -0.2139  0.2532  0.0910
12095TIP3    H157700   6.517   1.472   5.645  0.9676 -0.0399  0.1999
12095TIP3    H257701   6.536   1.322   5.645 -0.1222 -0.1936  0.8407
12096TIP3   OH257702   3.654   6.206  11.049 -0.2831  0.2559 -0.1104
12096TIP3    H157703   3.717   6.150  11.004 -0.9502 -0.2136 -0.4841
12096TIP3    H257704   3.654   6.174  11.140 -1.1864 -0.8648 -0.4717
12097TIP3   OH257705   3.411   3.820  12.174 -0.0280 -0.8124 -0.3020
12097TIP3    H157706   3.506   3.806  12.179  0.0310 -0.2003  0.6410
12097TIP3    H257707   3.400   3.882  12.102  0.5150  0.7312  0.8903
12098TIP3   OH257708   1.992   6.679   5.131  0.0964 -0.3254 -0.2897
12098TIP3    H157709   2.073   6.682   5.181 -0.2047 -1.0434  0.2663
12098TIP3    H257710   1.930   6.633   5.188 -0.4571 -0.5433 -1.0447
12099TIP3   OH257711   0.289   6.761  16.867 -0.0825 -0.0826 -0.4619
12099TIP3    H157712   0.369   6.710  16.874  0.4223  0.6528 -0.7695
12099TIP3    H257713   0.235   6.712  16.805  0.1128 -0.5954 -0.2320
12100TIP3   OH257714   1.650   4.182  13.273 -0.3995  0.3857 -0.0024
12100TIP3    H157715   1.688   4.269  13.270 -0.6906  0.5736  1.2443
12100TIP3    H257716   1.645   4.155  13.181 -0.6245  1.8082 -0.4345
12101TIP3   OH257717   5.638   2.845   5.621 -0.1826  0.4750  0.3804
12101TIP3    H157718   5.606   2.873   5.706 -1.2346 -0.4346  0.3068
12101TIP3    H257719   5.596   2.905   5.559  0.3978  0.9867  0.4712
12102TIP3   OH257720   0.594   0.105   4.483 -1.0680 -0.0133  0.5327
12102TIP3    H157721   0.515   0.158   4.490 -2.4390 -2.1705  3.8054
12102TIP3    H257722   0.635   0.110   4.569  0.8215 -1.2347 -0.2166
12103TIP3   OH257723   4.808   0.056  12.291  1.2028  0.0623  0.8096
12103TIP3    H157724   4.844   0.141  12.267 -0.2271  0.8547  1.3422
12103TIP3    H257725   4.819   0.003  12.212  0.2702  1.3756 -0.2553
12104TIP3   OH257726   2.487   5.097  13.551 -0.0115 -0.3896  0.3434
12104TIP3    H157727   2.394   5.086  13.532  0.3549 -1.0524 -1.1936
12104TIP3    H257728   2.514   5.015  13.592  0.2672 -0.9108 -0.8479
12105TIP3   OH257729   1.135   1.169   4.670  0.2697  0.3713  0.8355
12105TIP3    H157730   1.230   1.165   4.661  0.2505  1.8254 -0.3288
12105TIP3    H257731   1.117   1.124   4.753  2.1368  1.7840  2.0925
12106TIP3   OH257732   0.589   3.801   5.911 -0.1677  0.0624 -0.0200
12106TIP3    H157733   0.544   3.831   5.990 -2.1961 -0.5999 -0.8606
12106TIP3    H257734   0.520   3.790   5.846  0.9931 -2.4387 -0.9841
12107TIP3   OH257735   6.714   2.966  15.278  0.2362 -0.1449 -0.0847
12107TIP3    H157736   6.652   2.899  15.249  1.9121 -1.3250 -1.1224
12107TIP3    H257737   6.740   3.011  15.197 -1.3673  2.3058  0.6534
12108TIP3   OH257738   1.341   4.947   5.846  0.0633  0.3510  0.6811
12108TIP3    H157739   1.247   4.934   5.838  0.0715  0.1347  0.9343
12108TIP3    H257740   1.351   5.009   5.918  0.0598  1.2792 -0.0908
12109TIP3   OH257741   5.176   4.025  14.287 -0.4047 -0.2505 -0.4541
12109TIP3    H157742   5.109   3.971  14.245 -0.7133  0.7719 -1.3376
12109TIP3    H257743   5.241   4.040  14.218 -1.2601  2.0282 -0.8733
12110TIP3   OH257744   0.605   2.517  13.223  0.2277 -0.1477 -0.1735
12110TIP3    H157745   0.580   2.606  13.196 -1.6663 -1.2395 -2.3497
12110TIP3    H257746   0.626   2.472  13.142  0.4925 -1.8912  0.8119
12111TIP3   OH257747   3.153   5.724   5.491  0.7777 -0.0539  0.1954
12111TIP3    H157748   3.083   5.731   5.557  0.3526 -3.1883  0.2336
12111TIP3    H257749   3.216   5.791   5.516 -0.7310  0.7685  2.0682
12112TIP3   OH257750   1.221   1.606   1.516  0.1703 -0.0057  0.4469
12112TIP3    H157751   1.249   1.523   1.475 -0.2378 -0.2068  0.5752
12112TIP3    H257752   1.303   1.656   1.526  0.1734  0.4625 -1.5282
12113TIP3   OH257753   1.746   2.105   2.297 -0.3744  0.1074  0.1133
12113TIP3    H157754   1.808   2.092   2.368 -0.8661 -0.4366  0.4511
12113TIP3    H257755   1.794   2.155   2.231 -0.0943  1.1223  1.0777
12114TIP3   OH257756   5.244   3.969  16.829  0.7983 -0.2718 -0.4548
12114TIP3    H157757   5.257   4.022  16.908  0.6554 -2.1857  0.9286
12114TIP3    H257758   5.279   4.023  16.758 -0.8338  2.3608  0.5733
12115TIP3   OH257759   6.637   5.957   4.703  0.2278 -0.0479  0.1328
12115TIP3    H157760   6.637   6.051   4.719  1.8088  0.2998 -1.6051
12115TIP3    H257761   6.729   5.933   4.696 -0.0868 -1.9219  1.3291
12116TIP3   OH257762   0.979   1.059  14.532 -0.7333 -0.2725 -0.6366
12116TIP3    H157763   0.889   1.052  14.564 -0.1765 -0.4427  0.9913
12116TIP3    H257764   1.028   0.997  14.586  0.7829  1.5417  0.1706
12117TIP3   OH257765   2.281   5.564   3.004 -0.3634  0.0376  0.4530
12117TIP3    H157766   2.219   5.541   2.935 -1.2622  0.5906  1.0708
12117TIP3    H257767   2.364   5.576   2.957 -0.8365 -0.1212 -0.4598
12118TIP3   OH257768   3.705   2.681  15.573  0.3523  0.2464  0.0513
12118TIP3    H157769   3.710   2.760  15.518 -0.9442  0.8816  0.7803
12118TIP3    H257770   3.703   2.609  15.511 -0.3150  0.9030 -0.7193
12119TIP3   OH257771   2.286   5.490   6.202  0.3163  0.1163 -0.4641
12119TIP3    H157772   2.276   5.473   6.108  0.2739  0.3494 -0.5022
12119TIP3    H257773   2.322   5.409   6.237 -1.8288 -0.8232 -0.2824
12120TIP3   OH257774   2.458   0.373   2.874 -0.2431  0.4578  0.4418
12120TIP3    H157775   2.465   0.419   2.958 -1.4105  0.0530  0.7887
12120TIP3    H257776   2.409   0.293   2.895  0.4300 -0.1911 -0.4297
12121TIP3   OH257777   4.095   2.134  11.059  0.3902  0.0399  0.4372
12121TIP3    H157778   4.039   2.091  11.124  0.6951  1.2539  1.5563
12121TIP3    H257779   4.068   2.096  10.975 -0.3820 -1.1942  1.1980
12122TIP3   OH257780   2.672   5.141   4.046  0.3352  0.2021  0.5700
12122TIP3    H157781   2.669   5.230   4.010 -0.3538 -0.1447 -0.2518
12122TIP3    H257782   2.593   5.134   4.099 -0.0144 -0.1803  0.0032
12123TIP3   OH257783   0.259   2.005  16.710  0.9550 -0.2763 -0.2784
12123TIP3    H157784   0.269   1.967  16.622  1.0878  1.8347 -1.2382
12123TIP3    H257785   0.271   2.099  16.697  1.5655  0.0418  2.1295
12124TIP3   OH257786   6.214   6.080  15.222  0.0892  0.2864  0.6724
12124TIP3    H157787   6.177   6.168  15.229 -0.1753  0.0541  2.5246
12124TIP3    H257788   6.139   6.024  15.204  0.4788  0.5918 -2.4739
12125TIP3   OH257789   5.333   4.565  12.326  0.1975 -0.3219 -0.0858
12125TIP3    H157790   5.254   4.566  12.380 -1.0856 -2.2707 -1.7879
12125TIP3    H257791   5.345   4.473  12.302  1.3691  0.2905 -2.1295
12126TIP3   OH257792   1.767   0.135   5.739 -0.5259  0.5007 -0.5934
12126TIP3    H157793   1.796   0.071   5.674 -1.8397  0.3002 -1.0183
12126TIP3    H257794   1.707   0.086   5.796  0.7250  0.6353  0.8978
12127TIP3   OH257795   0.848   1.481   2.892  0.3042  0.3805  0.2744
12127TIP3    H157796   0.753   1.476   2.875  0.7313  0.2156 -2.4561
12127TIP3    H257797   0.880   1.546   2.830  2.0655  0.1681  0.9119
12128TIP3   OH257798   6.280   4.852  10.739 -0.4650  0.2039  0.1158
12128TIP3    H157799   6.238   4.789  10.681  1.0403  0.1655 -0.9852
12128TIP3    H257800   6.365   4.813  10.760 -0.6559  0.5754  1.7510
12129TIP3   OH257801   0.898   0.984  13.686  0.1315 -0.6192  0.1076
12129TIP3    H157802   0.852   0.980  13.602  0.7971  0.8843 -0.3698
12129TIP3    H257803   0.977   0.932  13.673 -0.5931 -1.8393  0.3988
12130TIP3   OH257804   1.377   0.618   6.410 -0.6359  0.2580  0.0489
12130TIP3    H157805   1.384   0.531   6.449 -1.1584 -1.2072 -2.8536
12130TIP3    H257806   1.283   0.630   6.397 -0.4781  0.6097 -0.8454
12131TIP3   OH257807   6.613   0.368  16.511  0.2836 -0.1171  0.3525
12131TIP3    H157808   6.683   0.324  16.464 -0.3325 -0.9447  0.1743
12131TIP3    H257809   6.569   0.297  16.559 -0.3886  0.3895  0.4994
12132TIP3   OH257810   1.736   6.565   2.030 -0.1432  0.2520  0.4893
12132TIP3    H157811   1.661   6.622   2.048 -0.2218  1.3348 -2.6196
12132TIP3    H257812   1.812   6.616   2.058 -0.4272 -0.0615  1.8994
12133TIP3   OH257813   0.911   2.230  17.076 -0.4068  0.1101  0.6648
12133TIP3    H157814   0.885   2.155  17.022  2.4285 -0.5846  0.1203
12133TIP3    H257815   0.830   2.279  17.089 -1.7556 -1.3152 -1.6694
12134TIP3   OH257816   2.582   3.372  13.236 -0.8566  0.2459 -0.5352
12134TIP3    H157817   2.558   3.395  13.146  0.6763  0.2206 -0.9804
12134TIP3    H257818   2.673   3.345  13.230 -0.2416  1.7125  1.2723
12135TIP3   OH257819   5.765   0.010   2.541 -0.3141  0.2700  0.0683
12135TIP3    H157820   5.740  -0.028   2.457  0.0984  1.6374 -0.7058
12135TIP3    H257821   5.820  -0.057   2.582  0.8049  0.2170 -1.4611
12136TIP3   OH257822   2.975   0.291   1.299 -0.3485 -0.0341 -0.2918
12136TIP3    H157823   2.963   0.376   1.256  1.3348 -0.7223 -2.2472
12136TIP3    H257824   3.038   0.308   1.369  0.1869  0.2879 -0.8476
12137TIP3   OH257825   4.055   6.305   4.770 -0.3246  0.0880 -0.3478
12137TIP3    H157826   3.994   6.349   4.711 -0.1285  0.3437 -0.3608
12137TIP3    H257827   4.077   6.371   4.836 -1.2725 -0.4709  0.5686
12138TIP3   OH257828   1.845   0.785   4.903 -0.2031 -0.8302  0.1086
12138TIP3    H157829   1.870   0.853   4.840  0.2295  0.2811  1.4173
12138TIP3    H257830   1.896   0.805   4.981 -2.2871 -0.8413  1.5663
12139TIP3   OH257831   1.554   5.807   6.588 -0.1745 -0.2193  0.8317
12139TIP3    H157832   1.555   5.886   6.641 -0.9334  0.4139 -0.0597
12139TIP3    H257833   1.644   5.773   6.594  0.2973  0.9707  0.8480
12140TIP3   OH257834   5.083   2.085   2.338  0.1006 -0.1668 -0.2604
12140TIP3    H157835   5.152   2.087   2.272 -1.4205  0.8627 -1.9048
12140TIP3    H257836   5.106   2.155   2.399 -0.3648  1.4302 -1.8201
12141TIP3   OH257837   4.125   2.643   1.233 -0.2236 -0.2881  0.2532
12141TIP3    H157838   4.071   2.607   1.163  0.9091 -1.1538 -0.2249
12141TIP3    H257839   4.135   2.570   1.294 -1.6890  0.6248  1.6655
12142TIP3   OH257840   4.421   6.061   1.799 -0.4448  0.0000 -0.1304
12142TIP3    H157841   4.329   6.038   1.791  0.0094 -1.5713 -1.2821
12142TIP3    H257842   4.448   6.086   1.710  0.8321 -2.0850 -0.3878
12143TIP3   OH257843   4.141   6.662  12.211 -0.1356 -0.1158 -0.9429
12143TIP3    H157844   4.078   6.695  12.275  0.6670 -0.2704 -0.0400
12143TIP3    H257845   4.147   6.568  12.229  0.3780 -0.0956 -0.9987
12144TIP3   OH257846   6.038   1.830  15.899 -0.3609  0.1966  0.6789
12144TIP3    H157847   6.087   1.901  15.857  1.3097 -1.8658 -1.1128
12144TIP3    H257848   6.104   1.780  15.947 -0.6439 -2.3656 -1.3647
12145TIP3   OH257849   5.637   1.261  13.723 -0.1032  0.0113  0.3617
12145TIP3    H157850   5.625   1.247  13.629 -0.4923  1.0857  0.2396
12145TIP3    H257851   5.683   1.183  13.753 -0.7372 -0.7344 -0.5643
12146TIP3   OH257852   6.377   6.015   1.695 -0.3843 -0.5702  0.2328
12146TIP3    H157853   6.370   6.050   1.606 -2.1190 -0.0916  0.5170
12146TIP3    H257854   6.453   5.956   1.692 -0.0542 -0.1083 -1.3940
12147TIP3   OH257855   6.270   6.553  16.418  0.5843  0.1284 -0.3473
12147TIP3    H157856   6.274   6.577  16.510 -3.2311 -0.1131  0.0276
12147TIP3    H257857   6.332   6.481  16.409  2.2502  1.2108  1.5727
12148TIP3   OH257858   4.611   0.975   1.501  0.3664  0.1226  0.3045
12148TIP3    H157859   4.629   1.063   1.533 -2.4327  0.2232  1.9002
12148TIP3    H257860   4.525   0.981   1.459  0.6441 -1.6272 -0.6004
12149TIP3   OH257861   0.199   0.225  12.238 -0.8381 -0.4391  0.0474
12149TIP3    H157862   0.122   0.205  12.185  0.0288 -1.7715 -0.7265
12149TIP3    H257863   0.260   0.268  12.178 -0.0470 -1.5154  0.0536
12150TIP3   OH257864   0.477   0.674  12.865 -0.0953 -0.3354 -0.0841
12150TIP3    H157865   0.414   0.644  12.799 -1.9469  0.6342  1.1509
12150TIP3    H257866   0.462   0.616  12.940 -0.6711  0.8874  0.7800
12151TIP3   OH257867   1.786   1.766  15.242  0.3746 -0.4582  0.1647
12151TIP3    H157868   1.703   1.734  15.207  1.0125 -0.5074 -1.3938
12151TIP3    H257869   1.848   1.694  15.227  0.9148 -0.0484  0.3812
12152TIP3   OH257870   3.555   6.303   5.187 -0.0484  0.0767 -0.1576
12152TIP3    H157871   3.501   6.270   5.259  1.0409  2.1330  1.7682
12152TIP3    H257872   3.562   6.397   5.205  1.8549  0.3310 -1.9005
12153TIP3   OH257873   0.481   2.862  11.399 -0.2092  0.2550  0.5752
12153TIP3    H157874   0.574   2.841  11.391 -0.5670 -1.7148  1.1689
12153TIP3    H257875   0.467   2.933  11.336  1.7323  0.7580  0.6595
12154TIP3   OH257876   6.031   6.469   4.960 -0.2554  0.5011 -0.2946
12154TIP3    H157877   6.015   6.449   4.867  1.2465  0.1427 -0.5124
12154TIP3    H257878   6.112   6.520   4.959  1.2020 -1.6563  0.9757
12155TIP3   OH257879   3.403   1.627  16.738 -0.7013  0.5873  0.2228
12155TIP3    H157880   3.328   1.568  16.733 -0.3027  0.1445 -0.7133
12155TIP3    H257881   3.478   1.570  16.720 -0.3208  1.4026 -0.8286
12156TIP3   OH257882   0.624   3.302  15.176  0.2400 -0.1196  0.4052
12156TIP3    H157883   0.643   3.257  15.259 -0.1413 -2.7361 -0.8104
12156TIP3    H257884   0.545   3.260  15.144  0.6220  0.5061 -1.4953
12157TIP3   OH257885   4.221   4.028  11.142  0.4281  0.3929  0.5587
12157TIP3    H157886   4.277   4.050  11.068 -1.6426  0.7180 -0.9874
12157TIP3    H257887   4.161   3.962  11.108  1.2178 -1.6197  2.7961
12158TIP3   OH257888   0.395   4.045   0.705 -0.0913 -0.0086  0.7897
12158TIP3    H157889   0.391   4.082   0.617  0.1734  1.1541  1.2361
12158TIP3    H257890   0.474   3.992   0.706 -0.2382 -0.2399  0.2536
12159TIP3   OH257891   0.665   6.743   3.776  0.2382  0.0809 -0.7640
12159TIP3    H157892   0.687   6.766   3.686 -1.2057 -1.0332 -1.4464
12159TIP3    H257893   0.569   6.742   3.778  0.2291  1.1003  1.0748
12160TIP3   OH257894   5.555   1.402   1.311  0.0012  0.0851  0.1116
12160TIP3    H157895   5.557   1.485   1.264 -0.3555  0.3507  0.5615
12160TIP3    H257896   5.647   1.377   1.320  0.1235  0.5516  0.1800
12161TIP3   OH257897   6.564   5.261   0.109  1.0346 -0.8744 -0.6336
12161TIP3    H157898   6.548   5.215   0.192  1.0872 -1.5296 -0.9841
12161TIP3    H257899   6.495   5.229   0.050 -0.1133  0.9119 -0.3410
12162TIP3   OH257900   3.947   2.423  13.690 -0.5039  0.4103 -0.1786
12162TIP3    H157901   3.875   2.378  13.647  0.3829 -0.5896 -0.6817
12162TIP3    H257902   4.002   2.352  13.725  0.3785  1.1266 -0.0680
12163TIP3   OH257903   4.576   1.132   0.271  0.0394 -0.6346 -0.2112
12163TIP3    H157904   4.543   1.105   0.185 -2.1640  0.2892  0.2715
12163TIP3    H257905   4.541   1.067   0.332  1.4859 -1.2161  0.0290
12164TIP3   OH257906   5.647   2.938   2.399  0.3366 -0.0141  0.2084
12164TIP3    H157907   5.659   2.844   2.387 -1.6178 -0.3277  0.3230
12164TIP3    H257908   5.561   2.946   2.441 -1.0109  1.9255 -2.5727
12165TIP3   OH257909   5.632   6.551  14.304 -0.1598 -0.0479 -0.0715
12165TIP3    H157910   5.566   6.591  14.248  0.3062  0.8699  0.0121
12165TIP3    H257911   5.685   6.498  14.244 -0.9299 -0.7474 -0.1430
12166TIP3   OH257912   2.734   4.326  12.656 -0.1604 -0.9752 -0.6618
12166TIP3    H157913   2.798   4.396  12.645 -1.8430  0.7573 -0.1323
12166TIP3    H257914   2.708   4.332  12.748 -0.6374 -2.0244 -0.7169
12167TIP3   OH257915   5.559   2.924   6.254  0.3725 -0.2100  0.5861
12167TIP3    H157916   5.580   2.918   6.347  0.4064  0.2886  0.6113
12167TIP3    H257917   5.644   2.934   6.211  0.1916  2.8925  0.7690
12168TIP3   OH257918   5.808   0.952   3.819  0.4838 -0.4271 -0.0249
12168TIP3    H157919   5.830   0.859   3.816  0.9635 -0.2923 -0.9979
12168TIP3    H257920   5.833   0.985   3.733 -1.5827  0.1798 -0.4460
12169TIP3   OH257921   6.343   2.442   1.967 -0.2808  0.0306  0.9254
12169TIP3    H157922   6.294   2.499   2.026 -3.3167 -2.6623  1.3226
12169TIP3    H257923   6.367   2.366   2.020  1.0229 -0.4128 -0.2277
12170TIP3   OH257924   3.720   0.205   2.524 -0.5153  0.9531  0.5635
12170TIP3    H157925   3.668   0.133   2.559 -0.1715  0.2347 -0.3471
12170TIP3    H257926   3.720   0.190   2.429  1.4768  0.8208  0.5449
12171TIP3   OH257927   3.069   5.426  15.323  0.3298 -0.1978  0.0605
12171TIP3    H157928   3.046   5.381  15.404  1.0462 -0.7237 -0.0212
12171TIP3    H257929   3.000   5.401  15.261  1.6197 -2.6421 -0.5053
12172TIP3   OH257930   2.971   4.520   5.846  0.5096  0.3927  0.6616
12172TIP3    H157931   3.043   4.518   5.909  0.0787  0.0626  1.1617
12172TIP3    H257932   3.011   4.546   5.763  1.5655 -1.6089  0.4674
12173TIP3   OH257933   1.215   0.738  12.792  0.5834  0.0965  0.0642
12173TIP3    H157934   1.163   0.664  12.821  1.7702 -0.6556  0.3202
12173TIP3    H257935   1.304   0.704  12.786  1.0922  1.4138 -0.1330
12174TIP3   OH257936   4.595   5.295  16.382 -0.0565 -0.7280  0.1065
12174TIP3    H157937   4.508   5.265  16.357 -0.2420  0.6112 -0.9431
12174TIP3    H257938   4.651   5.272  16.308  0.0704  0.1918 -0.0966
12175TIP3   OH257939   1.432   3.385  15.930  0.2503  0.3315  0.9107
12175TIP3    H157940   1.454   3.394  15.837 -1.3761 -0.4444  0.4228
12175TIP3    H257941   1.438   3.474  15.965 -0.9250  0.9381 -0.3662
12176TIP3   OH257942   2.408   2.136   2.158 -0.2667 -0.2830 -0.0363
12176TIP3    H157943   2.411   2.210   2.218  1.4295 -1.9849  2.1236
12176TIP3    H257944   2.421   2.175   2.071 -1.9825  2.1547  0.6970
12177TIP3   OH257945   0.187   5.755  11.194 -0.8244 -0.0928 -0.0511
12177TIP3    H157946   0.150   5.724  11.276 -0.7751 -0.2706 -0.0958
12177TIP3    H257947   0.227   5.678  11.155 -1.7822 -0.2514 -0.7572
12178TIP3   OH257948   0.014   5.959  14.227  0.2269  0.3297 -0.0229
12178TIP3    H157949   0.068   6.018  14.279  0.6992  0.2856 -0.4501
12178TIP3    H257950   0.001   5.883  14.283 -0.7931  1.0294  0.7182
12179TIP3   OH257951   4.555   3.791   1.989  0.1859  0.3164 -0.3090
12179TIP3    H157952   4.501   3.768   1.914  1.0755 -1.1078 -0.5422
12179TIP3    H257953   4.564   3.710   2.039 -4.0685  1.9436  3.9229
12180TIP3   OH257954   3.921   0.995  17.286  0.0211 -0.0922 -0.9669
12180TIP3    H157955   3.912   0.907  17.322  1.6876 -0.0675 -0.3675
12180TIP3    H257956   3.896   1.054  17.357  0.7378 -0.0751 -0.7205
12181TIP3   OH257957   3.379   0.842  14.446 -0.3653 -0.0323  0.7129
12181TIP3    H157958   3.464   0.841  14.490 -0.4159 -0.4029  0.8087
12181TIP3    H257959   3.379   0.764  14.392  0.1528  1.0073 -0.8376
12182TIP3   OH257960   5.954   3.223  15.058  0.0788  0.5275  0.3671
12182TIP3    H157961   6.036   3.271  15.045 -0.7094  1.6296 -0.7774
12182TIP3    H257962   5.890   3.269  15.003 -0.9895 -1.1469  0.1380
12183TIP3   OH257963   6.364   3.364   1.179  0.2700 -0.0026  0.1607
12183TIP3    H157964   6.355   3.270   1.166  3.1616 -0.1748 -1.2953
12183TIP3    H257965   6.412   3.372   1.261 -0.0991  0.2130  0.3563
12184TIP3   OH257966   4.402   1.994  17.283  0.4673  0.2442 -0.0521
12184TIP3    H157967   4.322   1.952  17.315 -0.6838  0.2152 -2.7158
12184TIP3    H257968   4.391   1.999  17.188  4.6308 -1.9047 -0.9219
12185TIP3   OH257969   3.344   4.292  13.119 -0.3940  0.3200 -0.6843
12185TIP3    H157970   3.424   4.323  13.076 -1.5825  0.8218 -2.6732
12185TIP3    H257971   3.332   4.203  13.086  1.1263 -1.1801  2.3252
12186TIP3   OH257972   1.082   5.952  15.529  0.5759 -0.8651 -0.7154
12186TIP3    H157973   1.064   5.862  15.502  1.0365 -0.7447 -1.4674
12186TIP3    H257974   1.158   5.977  15.477  1.0572 -0.3722  0.2170
12187TIP3   OH257975   2.523   2.477   2.391 -0.0550  0.0247 -0.1863
12187TIP3    H157976   2.563   2.424   2.460  1.5332  3.0142  1.3684
12187TIP3    H257977   2.430   2.479   2.413 -0.2281 -2.1330 -0.4255
12188TIP3   OH257978   6.200   3.717   2.022 -0.1189  0.1740 -0.0052
12188TIP3    H157979   6.165   3.805   2.037 -0.3249 -0.0518  0.8810
12188TIP3    H257980   6.213   3.680   2.109 -0.3104 -0.7843 -0.3626
12189TIP3   OH257981   2.263   4.112   6.563  0.4114 -0.1848  0.2021
12189TIP3    H157982   2.321   4.160   6.621 -1.5802  3.4452 -0.4806
12189TIP3    H257983   2.320   4.053   6.514  2.7593 -0.0273  2.5618
12190TIP3   OH257984   0.941   0.118   1.261 -0.5684 -0.2272  0.1555
12190TIP3    H157985   0.878   0.156   1.199 -1.4009  0.7731  1.5652
12190TIP3    H257986   0.953   0.186   1.327 -0.0033 -1.4159  1.3072
12191TIP3   OH257987   6.022   4.380  15.936  0.0889 -0.6459 -0.4182
12191TIP3    H157988   6.026   4.338  15.851 -1.3905  1.4287 -1.6093
12191TIP3    H257989   6.092   4.446  15.933  0.4982 -1.0298  0.2893
12192TIP3   OH257990   3.686   2.910  14.828  0.2964 -0.3025 -0.2575
12192TIP3    H157991   3.741   2.889  14.752  0.0772  1.9403 -1.1002
12192TIP3    H257992   3.602   2.870  14.808  0.0599  0.7625 -1.5376
12193TIP3   OH257993   1.057   0.006  14.538  0.0304 -0.5049  0.3890
12193TIP3    H157994   1.146   0.036  14.519 -0.1350 -0.9861 -1.3779
12193TIP3    H257995   1.066  -0.047  14.617  1.4002 -0.8952  0.0081
12194TIP3   OH257996   2.345   4.560  16.603 -0.1224  0.1455 -0.6446
12194TIP3    H157997   2.290   4.626  16.645 -1.2830 -1.0396 -0.2158
12194TIP3    H257998   2.402   4.528  16.673 -1.5466 -1.3036 -0.0887
12195TIP3   OH257999   4.951   1.587  15.072  0.2356  0.6331 -0.2032
12195TIP3    H158000   4.972   1.498  15.098  0.6230  0.6497 -0.4559
12195TIP3    H258001   4.949   1.584  14.976 -0.0461  0.8279 -0.2049
12196TIP3   OH258002   2.265   1.883  13.350  0.3192 -0.4205  0.0912
12196TIP3    H158003   2.268   1.978  13.361  0.4448 -0.0886 -2.3100
12196TIP3    H258004   2.237   1.850  13.435  1.9335  1.6153  1.5057
12197TIP3   OH258005   5.164   6.456  17.318  0.4503  1.0675 -0.3294
12197TIP3    H158006   5.203   6.407  17.391  2.3431 -0.4007 -2.2081
12197TIP3    H258007   5.236   6.469  17.257 -1.1537  1.9341 -2.1354
12198TIP3   OH258008   3.166   2.596  16.479  0.3276 -0.0772  0.2368
12198TIP3    H158009   3.082   2.576  16.438  0.2581  0.3783  0.1498
12198TIP3    H258010   3.166   2.691  16.489  0.2847 -0.1864  1.4256
12199TIP3   OH258011   3.244   6.681  12.056  0.5336 -0.7123 -0.6768
12199TIP3    H158012   3.203   6.704  12.139  0.4236  0.2244 -0.9773
12199TIP3    H258013   3.233   6.587  12.048 -0.7876 -0.5945 -0.3364
12200TIP3   OH258014   5.261   3.358   3.496 -0.2256 -0.3423  0.2118
12200TIP3    H158015   5.220   3.411   3.564 -1.1257 -0.5838 -0.1212
12200TIP3    H258016   5.191   3.344   3.432 -0.3278 -2.7850  0.7699
12201TIP3   OH258017   6.103   0.680   4.562 -0.5341  0.2915  0.0745
12201TIP3    H158018   6.054   0.708   4.639  1.5891  3.2837  0.5126
12201TIP3    H258019   6.194   0.673   4.592 -0.1226 -1.8986 -1.4253
12202TIP3   OH258020   0.704   5.120   0.171  0.2233  0.0791 -0.6013
12202TIP3    H158021   0.667   5.037   0.141 -1.5502 -0.3041  2.2935
12202TIP3    H258022   0.791   5.097   0.203 -1.4745 -1.6381  3.4819
12203TIP3   OH258023   1.818   0.996  13.534 -0.1090 -0.3920 -0.0540
12203TIP3    H158024   1.891   1.047  13.570 -0.5651  0.6310 -0.5302
12203TIP3    H258025   1.798   1.039  13.451 -2.2922  0.3813  0.8054
12204TIP3   OH258026   3.198   3.434  13.082 -0.0019  0.5965  0.1915
12204TIP3    H158027   3.233   3.378  13.152  1.3707 -0.6433 -1.4121
12204TIP3    H258028   3.230   3.395  13.001 -1.2510  2.1908 -1.1568
12205TIP3   OH258029   4.236   2.358   6.383  0.1430 -0.2004 -0.2277
12205TIP3    H158030   4.162   2.330   6.438 -0.9628 -0.6425 -1.8629
12205TIP3    H258031   4.241   2.453   6.397 -0.0084 -0.3216  0.7459
12206TIP3   OH258032   5.452   4.699   5.502 -0.6730  0.4959  0.0929
12206TIP3    H158033   5.389   4.751   5.452 -2.5980  0.2912  2.1025
12206TIP3    H258034   5.398   4.633   5.547  1.0836 -0.1778  1.3429
12207TIP3   OH258035   4.198   5.711  15.419 -0.2896  0.2781 -0.0444
12207TIP3    H158036   4.132   5.678  15.480 -0.9614  1.1409 -0.2922
12207TIP3    H258037   4.164   5.796  15.390 -0.3403 -0.4162 -2.1704
12208TIP3   OH258038   5.389   6.715  16.063  0.0876 -0.8207  0.2722
12208TIP3    H158039   5.470   6.743  16.021  0.1534 -1.0136  0.2729
12208TIP3    H258040   5.345   6.661  15.998 -0.7852  0.5685 -0.3276
12209TIP3   OH258041   3.528   2.683  12.775 -0.4945 -0.5000 -0.3566
12209TIP3    H158042   3.502   2.775  12.781 -1.8692 -0.8587 -0.4624
12209TIP3    H258043   3.518   2.661  12.682 -0.1005 -0.7405 -0.3434
12210TIP3   OH258044   5.231   3.951   3.148  0.5739  0.0362 -0.7262
12210TIP3    H158045   5.188   3.883   3.200  1.2498  0.3177  0.2331
12210TIP3    H258046   5.321   3.952   3.181  0.2166  2.4108  0.3189
12211TIP3   OH258047   1.110   5.121   1.180 -0.1839 -0.1709  0.2301
12211TIP3    H158048   1.204   5.133   1.183 -0.0289 -1.3224  0.2681
12211TIP3    H258049   1.097   5.044   1.125 -1.2217  1.1628 -1.5176
12212TIP3   OH258050   3.545   1.160  15.141 -0.2079  0.0397 -0.0034
12212TIP3    H158051   3.609   1.094  15.164 -0.4471 -0.3208 -0.3511
12212TIP3    H258052   3.494   1.120  15.070  0.4222  1.0540 -1.0597
12213TIP3   OH258053   2.421   3.460  13.722 -0.3029 -0.3681  0.0662
12213TIP3    H158054   2.486   3.472  13.791 -0.4942  0.0414  0.1759
12213TIP3    H258055   2.471   3.428  13.647 -0.2860 -2.2577  0.8200
12214TIP3   OH258056   5.376   6.107  11.332  0.1338  0.0906  0.0356
12214TIP3    H158057   5.381   6.189  11.282 -1.4034  1.0921  1.4063
12214TIP3    H258058   5.344   6.042  11.269  1.5395  0.4633 -1.1196
12215TIP3   OH258059   0.400   5.925   0.722 -0.3700 -0.2079 -0.0465
12215TIP3    H158060   0.348   5.954   0.797  1.2128 -0.0792  1.0538
12215TIP3    H258061   0.341   5.934   0.647 -1.3562  1.6144  0.8785
12216TIP3   OH258062   4.730   5.896  13.502  0.1374  0.3517 -0.9144
12216TIP3    H158063   4.755   5.983  13.536  0.7910  0.1233 -0.7951
12216TIP3    H258064   4.653   5.913  13.448 -1.2021  0.6792  1.0062
12217TIP3   OH258065   6.276   5.338  12.024  0.0475  0.1642  0.1864
12217TIP3    H158066   6.276   5.253  12.067  1.0627 -0.2409 -0.5753
12217TIP3    H258067   6.366   5.350  11.993 -0.1258  1.4177  0.0904
12218TIP3   OH258068   2.185   1.446  11.062  0.0343 -0.1380  0.4914
12218TIP3    H158069   2.109   1.480  11.014  1.4727  0.5245 -1.4939
12218TIP3    H258070   2.199   1.359  11.024 -1.1615 -1.3659  2.6483
12219TIP3   OH258071   3.030   4.926  14.025 -0.8048  0.0386  0.1292
12219TIP3    H158072   2.999   5.013  14.051 -1.4146  0.1070 -0.8096
12219TIP3    H258073   2.961   4.867  14.053 -0.5580 -0.1162  0.4273
12220TIP3   OH258074   2.658   6.234   1.549  0.0506 -0.0892 -0.0902
12220TIP3    H158075   2.692   6.148   1.576 -1.6151 -0.5986  0.5280
12220TIP3    H258076   2.698   6.296   1.610  0.4041 -0.5677  0.1754
12221TIP3   OH258077   4.350   3.333  14.897 -0.1642  0.0217 -0.1963
12221TIP3    H158078   4.408   3.328  14.973  2.2079  1.8675 -1.7227
12221TIP3    H258079   4.381   3.264  14.839 -2.0258 -1.4388  0.4462
12222TIP3   OH258080   5.874   4.434   4.858  0.1048 -0.4558  0.1112
12222TIP3    H158081   5.905   4.399   4.775 -0.3446 -0.4343 -0.0663
12222TIP3    H258082   5.813   4.504   4.834  2.6154  2.0375  0.4086
12223TIP3   OH258083   5.757   2.458   0.226  0.5711  0.0375 -0.7353
12223TIP3    H158084   5.668   2.437   0.198  1.0418 -1.0541 -1.4588
12223TIP3    H258085   5.747   2.540   0.275 -1.0730 -0.9509  0.6981
12224TIP3   OH258086   2.069   1.353  15.327 -0.0171 -1.1024 -0.5169
12224TIP3    H158087   2.133   1.300  15.375 -0.3775 -2.6833 -1.7049
12224TIP3    H258088   2.091   1.443  15.350  2.1251 -1.6325 -0.2479
12225TIP3   OH258089   6.694   2.416  14.302 -0.0018 -0.4320  0.4171
12225TIP3    H158090   6.706   2.453  14.390 -1.8756  0.9351  0.1541
12225TIP3    H258091   6.622   2.354  14.311  0.8279 -1.4607  0.1345
12226TIP3   OH258092   4.263   5.875  12.967  0.3507 -0.4409  0.4937
12226TIP3    H158093   4.347   5.847  13.003  1.4053  2.2948  0.4271
12226TIP3    H258094   4.255   5.829  12.884  0.9788 -1.9811  1.2581
12227TIP3   OH258095   1.683   1.961  13.523 -0.1706  0.2011  0.4150
12227TIP3    H158096   1.775   1.943  13.505 -0.5138 -2.3409  0.8698
12227TIP3    H258097   1.655   1.890  13.580 -2.5854  0.5145 -0.2686
12228TIP3   OH258098   2.874   6.413  13.751 -0.6927 -0.1264 -0.5736
12228TIP3    H158099   2.844   6.445  13.667 -1.1214 -1.9068 -1.1484
12228TIP3    H258100   2.831   6.328  13.761  1.3920 -1.1793  0.1863
12229TIP3   OH258101   2.980   3.384  12.675  0.3631  0.5688  0.3429
12229TIP3    H158102   2.982   3.296  12.710  0.3769  1.1487  1.8648
12229TIP3    H258103   2.998   3.441  12.750 -0.6281  1.9235 -0.3855
12230TIP3   OH258104   3.956   2.807  13.052 -0.2394  0.2408  0.0005
12230TIP3    H158105   3.925   2.843  12.969  1.1416  0.6315 -0.3606
12230TIP3    H258106   4.032   2.859  13.075 -0.4950  0.0358  1.4501
12231TIP3   OH258107   3.024   3.535  11.998  0.0357  0.3363 -0.0316
12231TIP3    H158108   3.094   3.582  11.953  0.9095  1.1117  2.0123
12231TIP3    H258109   3.068   3.465  12.045 -0.6145  0.4665  0.8048
12232TIP3   OH258110   2.426   2.910  16.409 -0.0948 -0.0609  0.2166
12232TIP3    H158111   2.513   2.945  16.388  0.0469  0.1830  1.1914
12232TIP3    H258112   2.403   2.951  16.492 -0.4508 -1.3446  0.7720
12233TIP3   OH258113   0.499   0.124  11.814 -0.4255  0.4612  0.7190
12233TIP3    H158114   0.543   0.208  11.800 -0.0463  0.4159  1.5612
12233TIP3    H258115   0.525   0.098  11.903  0.1577 -0.9610  0.1572
12234TIP3   OH258116   0.382   4.293  15.326  0.1343  0.2030 -0.0588
12234TIP3    H158117   0.431   4.220  15.287  0.8242  0.4743  0.2726
12234TIP3    H258118   0.424   4.371  15.290  0.9114  0.4658  1.3475
12235TIP3   OH258119   0.370   5.914   2.134 -0.2286  0.2255  0.4290
12235TIP3    H158120   0.333   5.896   2.221 -1.3898  2.2104  0.4128
12235TIP3    H258121   0.337   5.844   2.079 -2.9973  1.1439  0.7386
12236TIP3   OH258122   3.057   6.127   4.125 -0.1990  0.3580  0.2402
12236TIP3    H158123   3.038   6.076   4.203 -0.7139 -1.3136 -0.9266
12236TIP3    H258124   2.974   6.129   4.076  0.5060 -0.0546 -1.0317
12237TIP3   OH258125   1.614   3.741   1.477 -0.1530 -0.0236  0.2735
12237TIP3    H158126   1.634   3.684   1.403 -0.7679 -0.5294  0.4781
12237TIP3    H258127   1.552   3.805   1.442  0.4049  0.4222  0.0861
12238TIP3   OH258128   2.799   2.633   2.954 -0.0823  0.2589 -0.2566
12238TIP3    H158129   2.776   2.726   2.946  1.8642  0.7520 -0.4566
12238TIP3    H258130   2.894   2.631   2.957  0.0070 -1.8726 -1.8399
12239TIP3   OH258131   2.177   4.680   2.527  0.2856 -0.0560 -0.3713
12239TIP3    H158132   2.110   4.651   2.466  2.1160 -0.5240 -2.3026
12239TIP3    H258133   2.191   4.605   2.584 -1.1045  0.2120  0.3663
12240TIP3   OH258134   2.067   6.442   5.341 -0.3757  0.0626 -0.4074
12240TIP3    H158135   2.139   6.451   5.278 -0.5892  1.2732 -0.5074
12240TIP3    H258136   2.109   6.448   5.426 -0.2710  0.0091 -0.4551
12241TIP3   OH258137   6.217   3.169   4.548  0.1982  0.3176 -0.0931
12241TIP3    H158138   6.168   3.092   4.576 -0.8027  1.3845  1.1940
12241TIP3    H258139   6.279   3.185   4.619  0.6086  0.5352 -0.4955
12242TIP3   OH258140   6.334   6.191  16.821 -0.0886 -0.5044 -0.3292
12242TIP3    H158141   6.260   6.214  16.877 -0.4088 -3.8025  0.7886
12242TIP3    H258142   6.398   6.261  16.836 -3.3949  3.4798 -2.6334
12243TIP3   OH258143   4.965   5.117  11.521 -0.1404  0.2714  0.1651
12243TIP3    H158144   4.918   5.060  11.459  1.0530 -0.2194 -0.3138
12243TIP3    H258145   4.901   5.135  11.590 -1.0605 -0.3046 -0.5159
12244TIP3   OH258146   1.541   0.174  15.025 -0.3742 -0.0537 -0.6560
12244TIP3    H158147   1.636   0.164  15.028 -0.4631 -0.9946 -0.6178
12244TIP3    H258148   1.516   0.203  15.112 -0.5498 -4.2064  0.8849
12245TIP3   OH258149   6.643   5.300   0.542 -0.1776 -0.0772 -0.0848
12245TIP3    H158150   6.566   5.337   0.586  0.4562  2.0092 -0.5919
12245TIP3    H258151   6.713   5.307   0.607 -0.0645 -0.4972 -0.1606
12246TIP3   OH258152   0.295   5.746   1.077 -0.6789  0.1174  0.2369
12246TIP3    H158153   0.212   5.702   1.095  0.3212 -1.8044  0.3477
12246TIP3    H258154   0.325   5.709   0.994  0.9665 -0.6758  1.1344
12247TIP3   OH258155   0.045   3.932   5.034 -0.1519  0.5062 -0.6200
12247TIP3    H158156   0.039   3.929   4.938 -0.7857 -0.6352 -0.5644
12247TIP3    H258157  -0.040   3.898   5.064 -0.3898  1.9028  0.3652
12248TIP3   OH258158   5.772   0.839  12.703  0.0127  0.0314 -0.5042
12248TIP3    H158159   5.824   0.759  12.695  0.0358  0.1412 -1.6321
12248TIP3    H258160   5.775   0.861  12.796  1.0247 -0.5974 -0.3779
12249TIP3   OH258161   1.333   2.521  14.085 -0.2783 -0.2881  0.4245
12249TIP3    H158162   1.330   2.425  14.084 -0.2114 -0.2944  0.6505
12249TIP3    H258163   1.308   2.545  14.175 -1.3385 -0.0530  0.0777
12250TIP3   OH258164   5.936   0.373   0.941  0.4100 -0.3247 -0.1912
12250TIP3    H158165   5.892   0.415   1.014  1.3274 -0.4318  0.4453
12250TIP3    H258166   5.888   0.402   0.864 -1.2749 -1.1063  0.5243
12251TIP3   OH258167   4.205   6.024   2.776  0.4074 -0.3898  0.1035
12251TIP3    H158168   4.282   5.968   2.790  1.2053  1.1496  2.6065
12251TIP3    H258169   4.206   6.044   2.683  2.4158 -1.2961 -0.1284
12252TIP3   OH258170   5.819   0.626  14.032  0.2670  0.0090  0.1754
12252TIP3    H158171   5.831   0.594  13.942 -0.0296 -1.4146  0.6224
12252TIP3    H258172   5.755   0.567  14.071  0.2106  0.7548  1.2685
12253TIP3   OH258173   1.885   1.264   0.156 -0.4630 -0.2817 -0.7769
12253TIP3    H158174   1.932   1.251   0.074  2.1917  0.1651  0.5306
12253TIP3    H258175   1.816   1.326   0.136  0.3658  0.1001 -2.5980
12254TIP3   OH258176   5.154   5.106  12.282  0.5989  0.1390 -0.1227
12254TIP3    H158177   5.206   5.171  12.235 -1.2485  1.0777 -0.9941
12254TIP3    H258178   5.150   5.031  12.223  1.6465 -0.2793  0.3209
12255TIP3   OH258179   1.350   0.220  11.708 -0.1241 -0.5818  0.3686
12255TIP3    H158180   1.430   0.185  11.747  0.0794  0.8381  1.3179
12255TIP3    H258181   1.372   0.231  11.616  0.8972  0.0398  0.6627
12256TIP3   OH258182   2.940   5.489  11.967  0.0210 -0.0946  0.0563
12256TIP3    H158183   2.952   5.445  11.883  2.2391  0.4381  0.0502
12256TIP3    H258184   2.910   5.420  12.026  0.1651 -0.8603 -0.7452
12257TIP3   OH258185   1.230   4.824   2.632 -0.3180 -0.5239 -0.3881
12257TIP3    H158186   1.280   4.905   2.641  0.0422 -0.6692 -0.9846
12257TIP3    H258187   1.264   4.767   2.701  0.8045 -0.8422 -1.1609
12258TIP3   OH258188   3.416   1.093  16.744  0.1379  0.1429  0.1907
12258TIP3    H158189   3.343   1.031  16.739 -0.4186  0.7578  0.5945
12258TIP3    H258190   3.458   1.074  16.828 -1.1443  1.5130  1.1816
12259TIP3   OH258191   6.474   1.078  12.755  0.0792  0.5788 -0.3271
12259TIP3    H158192   6.379   1.092  12.759 -0.0903 -0.4155 -0.7353
12259TIP3    H258193   6.504   1.092  12.845 -0.4964  0.6153 -0.1381
12260TIP3   OH258194   6.157   0.380   0.083  0.1074 -0.4352 -0.6452
12260TIP3    H158195   6.173   0.450   0.146 -1.1620  2.2171 -3.0847
12260TIP3    H258196   6.183   0.300   0.130  1.3126  1.5546  2.3954
12261TIP3   OH258197   0.257   0.440   0.078  0.4852 -0.2373  0.7848
12261TIP3    H158198   0.295   0.476  -0.002  1.6199 -1.5512  0.6861
12261TIP3    H258199   0.197   0.372   0.047  0.1258 -0.0324  1.0286
12262TIP3   OH258200   5.089   0.664  16.896  0.3409  0.1539 -0.4512
12262TIP3    H158201   5.182   0.640  16.901 -0.0601 -1.1749  2.2762
12262TIP3    H258202   5.083   0.747  16.943  0.3742  1.3160 -2.3736
12263TIP3   OH258203   6.700   5.920  12.867  0.1951 -0.8094  0.4741
12263TIP3    H158204   6.642   5.984  12.825  2.3420  0.6841 -0.4122
12263TIP3    H258205   6.700   5.845  12.808 -0.8601 -0.8666  0.5293
12264TIP3   OH258206   6.190   4.384   1.742 -0.1251  0.4817 -0.1067
12264TIP3    H158207   6.098   4.401   1.765 -0.0810  2.7611 -1.3745
12264TIP3    H258208   6.239   4.418   1.817 -0.2636  0.5094 -0.0273
12265TIP3   OH258209   2.414   0.404   5.425 -0.1314  0.7544  0.0467
12265TIP3    H158210   2.463   0.442   5.352  1.8764 -0.6241  0.5767
12265TIP3    H258211   2.445   0.453   5.502 -2.1940  2.1660  0.0520
12266TIP3   OH258212   2.907   3.645  15.745 -0.1452 -0.1007  0.5335
12266TIP3    H158213   2.984   3.701  15.749  0.1486 -0.0810 -2.5007
12266TIP3    H258214   2.939   3.558  15.765  1.0591 -0.3032 -1.8595
12267TIP3   OH258215   5.205   5.401  13.899  0.3310  0.4024  0.4272
12267TIP3    H158216   5.183   5.491  13.923  1.6661  1.0824 -0.7901
12267TIP3    H258217   5.154   5.384  13.820 -0.4796 -0.1875  1.0626
12268TIP3   OH258218   3.873   1.913  12.131 -0.1335 -0.4658  0.0463
12268TIP3    H158219   3.888   1.933  12.038  0.4731  1.6455  0.5360
12268TIP3    H258220   3.935   1.969  12.178 -3.1591  1.6832  1.8497
12269TIP3   OH258221   2.601   4.319  12.955  0.1893  0.1989 -0.2516
12269TIP3    H158222   2.648   4.245  12.993  0.7033  1.6458  2.1864
12269TIP3    H258223   2.622   4.393  13.013 -1.4839  1.9250 -1.6959
12270TIP3   OH258224   2.502   2.135  13.135  0.1832  0.4965  0.2334
12270TIP3    H158225   2.446   2.133  13.057  1.1579  2.0994 -0.5839
12270TIP3    H258226   2.591   2.136  13.100  0.6459  3.0550  1.2191
12271TIP3   OH258227   5.783   5.786   0.349 -0.3480 -0.7087  0.1042
12271TIP3    H158228   5.771   5.744   0.434 -0.4127 -3.0420 -0.9651
12271TIP3    H258229   5.743   5.872   0.359  0.2585 -0.6333  2.6135
12272TIP3   OH258230   3.539   3.973   1.930 -0.0327 -0.3559 -0.2346
12272TIP3    H158231   3.608   3.992   1.866  1.3964 -1.9592  0.7719
12272TIP3    H258232   3.583   3.976   2.015 -1.4526 -0.3501  0.5264
12273TIP3   OH258233   2.748   2.513   1.752  0.0404 -0.4302  0.3176
12273TIP3    H158234   2.703   2.440   1.709 -1.7434  0.3369  0.7678
12273TIP3    H258235   2.683   2.547   1.814  0.8716  1.4351  0.2231
12274TIP3   OH258236   4.225   6.610   2.516 -0.1301 -0.1449  0.8130
12274TIP3    H158237   4.314   6.640   2.533 -0.7728  1.3085  1.8012
12274TIP3    H258238   4.227   6.516   2.535  1.2976 -0.2426  0.3088
12275TIP3   OH258239   2.612   3.126  14.613  0.4867 -0.0399  0.5203
12275TIP3    H158240   2.644   3.036  14.625  1.9146  0.4246  0.3661
12275TIP3    H258241   2.587   3.154  14.701 -5.3949 -2.3911  0.0806
12276TIP3   OH258242   6.289   3.175  12.410 -0.2197 -0.4173 -0.4016
12276TIP3    H158243   6.334   3.091  12.408 -1.4482 -1.0840 -1.2806
12276TIP3    H258244   6.302   3.212  12.323  0.8240  0.6069  0.1625
12277TIP3   OH258245   3.757   4.409  17.254 -0.2241  0.2071 -0.1221
12277TIP3    H158246   3.663   4.429  17.245 -0.3674 -0.0713  0.6882
12277TIP3    H258247   3.780   4.441  17.341  0.2077 -0.6039  0.0719
12278TIP3   OH258248   3.730   0.541   0.741  0.0598  0.5561 -0.5773
12278TIP3    H158249   3.657   0.493   0.702 -1.1131  1.5113  0.3422
12278TIP3    H258250   3.795   0.474   0.762 -0.3980 -0.2805 -1.7192
12279TIP3   OH258251   0.315   4.847   4.836 -0.2830  0.0726 -0.1880
12279TIP3    H158252   0.285   4.934   4.861  2.1157  0.5040  1.5180
12279TIP3    H258253   0.257   4.787   4.884 -0.5949  0.7585  0.3072
12280TIP3   OH258254   3.773   4.299   0.828 -0.4512 -0.3710 -0.7541
12280TIP3    H158255   3.739   4.358   0.896  0.9612  0.5021 -0.7757
12280TIP3    H258256   3.765   4.348   0.747  1.4912  0.1442 -0.6625
12281TIP3   OH258257   3.733   0.862  14.633 -0.4672 -0.1175 -0.2669
12281TIP3    H158258   3.773   0.917  14.701 -1.4700 -0.2930  0.4883
12281TIP3    H258259   3.681   0.799  14.682 -2.0661  0.4094 -1.2309
12282TIP3   OH258260   5.478   3.602   4.136 -0.0044  0.2040  0.3697
12282TIP3    H158261   5.386   3.584   4.120  0.4121 -1.1745 -0.6510
12282TIP3    H258262   5.522   3.581   4.054  1.3351 -0.1153  1.1262
12283TIP3   OH258263   4.610   4.791   5.075 -0.0979  1.1267 -0.0059
12283TIP3    H158264   4.588   4.866   5.131  0.6360  1.2927  0.0773
12283TIP3    H258265   4.584   4.715   5.126 -0.3621  1.3077  0.1337
12284TIP3   OH258266   2.777   3.172  15.086 -0.4098 -0.0656  0.0207
12284TIP3    H158267   2.785   3.235  15.015  0.2914 -0.0498  0.1082
12284TIP3    H258268   2.682   3.163  15.099 -0.5436 -0.0523 -0.8859
12285TIP3   OH258269   1.234   1.070   0.714 -0.2235 -0.0191  0.6321
12285TIP3    H158270   1.186   1.148   0.740  0.4837  0.4424  0.5983
12285TIP3    H258271   1.169   1.001   0.711 -0.8787  0.5941  0.5637
12286TIP3   OH258272   0.253   1.152   3.833  0.0329  0.0878 -0.0625
12286TIP3    H158273   0.318   1.088   3.803 -1.1416 -0.8821 -0.6453
12286TIP3    H258274   0.180   1.141   3.772 -0.4352  1.5875  0.2022
12287TIP3   OH258275   1.419   6.298  14.175 -0.0253 -0.1684 -0.4919
12287TIP3    H158276   1.417   6.382  14.130 -2.9185  0.9144  1.3539
12287TIP3    H258277   1.469   6.314  14.255 -2.1314  0.4411  0.7817
12288TIP3   OH258278   4.111   4.590   1.258  0.1431 -0.2370  0.1667
12288TIP3    H158279   4.173   4.661   1.241 -0.5025  0.2286 -0.2605
12288TIP3    H258280   4.061   4.580   1.177 -0.0222 -0.9373  0.3415
12289TIP3   OH258281   6.305   4.118  11.169 -0.0166 -0.5185 -0.0640
12289TIP3    H158282   6.261   4.044  11.210 -1.6334  1.2065  1.5389
12289TIP3    H258283   6.247   4.143  11.097  0.4859 -0.7430 -0.5540
12290TIP3   OH258284   5.324   1.249  12.962  0.3364 -0.7574  0.0322
12290TIP3    H158285   5.336   1.208  13.047 -0.8289  0.5855  0.8879
12290TIP3    H258286   5.264   1.190  12.916  2.0446 -2.2058 -0.4359
12291TIP3   OH258287   2.414   4.856   3.148  0.0839  0.3638 -0.0213
12291TIP3    H158288   2.413   4.779   3.205 -0.3304 -0.6904 -1.3824
12291TIP3    H258289   2.365   4.922   3.196  0.3214 -0.2614  1.1203
12292TIP3   OH258290   4.915   0.742   4.567 -0.2406 -0.5720 -0.7832
12292TIP3    H158291   4.924   0.682   4.494 -1.6238 -0.6850 -0.8964
12292TIP3    H258292   4.973   0.708   4.635  0.0018 -1.2549 -1.3313
12293TIP3   OH258293   5.071   6.075  15.877  0.1511  0.0284  0.3145
12293TIP3    H158294   5.069   5.987  15.915 -0.5361  0.5330  1.5265
12293TIP3    H258295   4.993   6.080  15.823 -0.2809  0.1771  0.9438
12294TIP3   OH258296   4.490   1.763  12.861 -0.0061 -0.0896 -0.1359
12294TIP3    H158297   4.419   1.768  12.924  0.5992  0.2981  0.5411
12294TIP3    H258298   4.456   1.804  12.781 -0.4607  0.3053  0.2579
12295TIP3   OH258299   4.265   0.230  13.647  0.2083 -0.1710  0.2877
12295TIP3    H158300   4.317   0.188  13.715 -0.6615  1.8518  2.3525
12295TIP3    H258301   4.179   0.188  13.652 -0.1515  0.6063  1.2039
12296TIP3   OH258302   4.251   5.153   3.500  0.2666 -0.3150 -0.2873
12296TIP3    H158303   4.346   5.159   3.489  0.0290 -0.3885 -3.0985
12296TIP3    H258304   4.238   5.072   3.548  1.6443  0.0976  0.8411
12297TIP3   OH258305   6.696   4.681  13.486  0.4808 -0.3223  0.0741
12297TIP3    H158306   6.743   4.685  13.570  1.2155  0.8348 -0.3649
12297TIP3    H258307   6.765   4.663  13.422  0.1576  0.2889 -0.4518
12298TIP3   OH258308   6.606   6.396  14.963  0.2500  0.6185  0.0013
12298TIP3    H158309   6.641   6.312  14.992 -1.9462 -0.6889 -0.9026
12298TIP3    H258310   6.656   6.416  14.883  0.4881 -0.0624 -0.0282
12299TIP3   OH258311   2.515   3.515  17.206 -0.2543  0.8015 -0.0362
12299TIP3    H158312   2.424   3.485  17.201 -0.8689  2.5911 -0.2339
12299TIP3    H258313   2.525   3.548  17.296  0.5938 -0.5000  0.3728
12300TIP3   OH258314   5.020   3.862   2.995  0.5116 -0.4218  0.1392
12300TIP3    H158315   5.094   3.857   3.055  0.4751 -0.3516  0.1911
12300TIP3    H258316   4.948   3.894   3.050  0.6181  0.1926 -0.0687
12301TIP3   OH258317   3.299   5.229  13.070 -0.1979 -0.0703  0.2407
12301TIP3    H158318   3.321   5.271  13.153 -0.0265 -0.1008  0.2127
12301TIP3    H258319   3.314   5.298  13.005  1.3386 -0.5347  0.0625
12302TIP3   OH258320   4.804   6.627   4.413  0.1152 -0.2174  0.2689
12302TIP3    H158321   4.882   6.639   4.467 -1.2905  0.7299  2.1755
12302TIP3    H258322   4.738   6.590   4.471 -1.1369 -0.2270 -1.0805
12303TIP3   OH258323   6.522   0.048  11.963 -0.6177 -0.2101 -0.2126
12303TIP3    H158324   6.467   0.126  11.975 -0.1572  0.3121 -1.3764
12303TIP3    H258325   6.606   0.073  12.001 -1.4096 -1.4065  2.6234
12304TIP3   OH258326   4.098   2.126   2.134  0.0526 -0.2363  0.2075
12304TIP3    H158327   4.158   2.172   2.193  0.3201 -0.6770  0.2898
12304TIP3    H258328   4.085   2.185   2.060  0.3201  0.0029  0.3518
12305TIP3   OH258329   2.266   4.482   3.539 -0.5082 -0.7200 -0.1544
12305TIP3    H158330   2.171   4.489   3.530 -0.6460  0.3191  1.5939
12305TIP3    H258331   2.289   4.549   3.603  1.8434  1.2591 -2.8130
12306TIP3   OH258332   0.599   6.338  15.361  0.3723 -0.3951 -0.6662
12306TIP3    H158333   0.597   6.246  15.389 -2.2201 -1.0590 -2.6415
12306TIP3    H258334   0.520   6.376  15.398  0.4679  0.5427 -1.3786
12307TIP3   OH258335   3.914   0.574  11.923 -0.2311 -0.1955  0.2137
12307TIP3    H158336   3.952   0.587  12.010  2.7980  0.5908 -1.1001
12307TIP3    H258337   3.906   0.662  11.886 -0.8046 -0.5646 -0.5908
12308TIP3   OH258338   2.729   4.313   0.161 -0.5888  0.4011 -0.0945
12308TIP3    H158339   2.651   4.259   0.170 -2.0038  1.9176 -2.1266
12308TIP3    H258340   2.801   4.250   0.152 -1.5349 -1.0389  1.6488
12309TIP3   OH258341   2.063   4.404   3.869 -0.2292 -0.1031  0.7303
12309TIP3    H158342   2.108   4.470   3.816 -1.5034 -0.5855 -1.0612
12309TIP3    H258343   1.983   4.448   3.898 -0.0216 -0.1706  1.4148
12310TIP3   OH258344   2.638   0.115   1.489  0.3113  0.2595 -0.3054
12310TIP3    H158345   2.719   0.108   1.539  0.3440  0.8500 -0.2730
12310TIP3    H258346   2.587   0.181   1.536 -0.4639 -0.5702  0.0474
12311TIP3   OH258347   3.382   1.270   5.279 -0.6605 -0.7578  0.2006
12311TIP3    H158348   3.332   1.260   5.361 -0.7053 -1.1090  0.1315
12311TIP3    H258349   3.347   1.202   5.222 -0.1403 -0.9634  0.1286
12312TIP3   OH258350   6.502   5.263  16.590 -0.4018 -0.3739 -0.3661
12312TIP3    H158351   6.419   5.293  16.551 -1.5850 -1.8352  0.9444
12312TIP3    H258352   6.538   5.203  16.525 -0.9192 -0.5967 -0.4506
12313TIP3   OH258353   2.307   1.771  17.323 -0.1712 -0.1323  0.1472
12313TIP3    H158354   2.383   1.760  17.266  1.2972  0.7100  1.8177
12313TIP3    H258355   2.318   1.859  17.359 -2.1755  0.1537  0.1552
12314TIP3   OH258356   6.648   6.047  12.178 -0.0201  0.4071  0.5137
12314TIP3    H158357   6.681   6.051  12.088 -0.9537 -0.6426  0.1040
12314TIP3    H258358   6.701   6.111  12.226  1.3315  0.1017 -0.5100
12315TIP3   OH258359   2.678   1.503  13.278  0.1952 -0.6112  0.7840
12315TIP3    H158360   2.742   1.442  13.316  0.0483 -2.0674 -1.1578
12315TIP3    H258361   2.726   1.585  13.269  0.3169 -0.2816  3.7210
12316TIP3   OH258362   2.140   5.527  15.145 -0.3169  0.5377  0.3215
12316TIP3    H158363   2.123   5.583  15.220 -1.3641  1.3025 -0.4639
12316TIP3    H258364   2.228   5.552  15.116  0.3089 -0.1244  1.5701
12317TIP3   OH258365   0.287   0.906  14.890  0.4565 -0.7101  0.6031
12317TIP3    H158366   0.377   0.916  14.920  0.8070 -0.2093 -0.5499
12317TIP3    H258367   0.263   0.993  14.859  0.5392 -1.4165 -1.5976
12318TIP3   OH258368   1.122   0.777   2.798 -0.8098  0.2221 -0.0616
12318TIP3    H158369   1.049   0.752   2.854 -0.2971  0.3412  0.6688
12318TIP3    H258370   1.110   0.726   2.718 -1.1857 -0.4256  0.4052
12319TIP3   OH258371   6.455   2.569  11.874  0.0464  0.2677 -0.0704
12319TIP3    H158372   6.527   2.553  11.812  0.5882  1.0297  0.3569
12319TIP3    H258373   6.477   2.516  11.950 -0.0317  0.2208 -0.0805
12320TIP3   OH258374   6.473   4.703  15.208  0.0604 -0.2098 -0.7766
12320TIP3    H158375   6.565   4.687  15.185  0.0342 -1.1047 -0.3128
12320TIP3    H258376   6.447   4.776  15.152  0.7611 -0.6101 -1.6542
12321TIP3   OH258377   3.318   2.234  11.909  0.0735  0.1213  0.4588
12321TIP3    H158378   3.313   2.263  11.818  0.1191 -1.7572 -0.1753
12321TIP3    H258379   3.260   2.293  11.957  3.1430  3.9267  0.0273
12322TIP3   OH258380   4.962   6.601  11.357 -0.0549  0.0196  0.6818
12322TIP3    H158381   4.905   6.599  11.280  1.1806 -0.0710 -0.2582
12322TIP3    H258382   5.022   6.674  11.341  2.0747 -1.7314  0.1280
12323TIP3   OH258383   6.009   3.592  13.352  0.5111  0.6196  0.2743
12323TIP3    H158384   5.920   3.591  13.317  1.0955 -1.3015 -1.3352
12323TIP3    H258385   6.001   3.635  13.438 -2.4412 -1.8271  1.3919
12324TIP3   OH258386   1.984   5.221   4.708  0.2327 -0.1367  0.0928
12324TIP3    H158387   1.920   5.201   4.776  0.9869 -1.0820  0.5507
12324TIP3    H258388   2.069   5.204   4.748  0.7099 -0.4343 -0.9835
12325TIP3   OH258389   0.576   4.710   5.375  0.1794 -0.2369  0.2364
12325TIP3    H158390   0.514   4.722   5.303  1.5231  0.0582 -0.9171
12325TIP3    H258391   0.576   4.616   5.392  1.0241 -0.5389 -1.2705
12326TIP3   OH258392   4.418   5.534  16.168  0.2303  0.3836  0.1687
12326TIP3    H158393   4.496   5.539  16.224  0.2695  1.1532  0.0625
12326TIP3    H258394   4.344   5.540  16.228  0.2742  2.1760  0.0923
12327TIP3   OH258395   3.981   2.246  16.603 -0.0137 -0.2154  0.1961
12327TIP3    H158396   3.946   2.164  16.569  0.2123 -0.1628 -0.1701
12327TIP3    H258397   3.936   2.259  16.686 -1.7440  0.4345 -0.7817
12328TIP3   OH258398   0.730   3.492  15.020  0.1567  0.2286  0.0923
12328TIP3    H158399   0.700   3.431  15.088  1.2417  0.1911  0.5492
12328TIP3    H258400   0.806   3.449  14.980 -1.6624 -0.7377 -2.6239
12329TIP3   OH258401   6.601   0.933   5.722 -0.2477  0.5189 -0.2166
12329TIP3    H158402   6.657   0.858   5.746  0.8733  0.2695 -3.2373
12329TIP3    H258403   6.520   0.893   5.691  0.3611  0.4686 -1.8557
12330TIP3   OH258404   1.312   5.693  15.453  0.0877 -0.1497 -0.2133
12330TIP3    H158405   1.236   5.738  15.490  1.0352  0.3330  1.2041
12330TIP3    H258406   1.278   5.607  15.428 -0.1613 -1.4931  4.0796
12331TIP3   OH258407   4.008   4.355  14.262  0.0598  0.0302 -0.8722
12331TIP3    H158408   4.043   4.333  14.176  1.0120  0.3337 -0.5785
12331TIP3    H258409   4.038   4.285  14.320  2.0363  1.3366 -0.1931
12332TIP3   OH258410   6.510   5.486  11.334 -0.1904 -0.3621  0.1851
12332TIP3    H158411   6.516   5.511  11.242 -0.9454 -2.1809 -0.3996
12332TIP3    H258412   6.460   5.405  11.334  0.1192 -0.6085  2.1801
12333TIP3   OH258413   1.063   1.472  11.363 -0.0155  0.4981  0.4738
12333TIP3    H158414   1.123   1.398  11.378 -0.7929 -0.0548  0.9399
12333TIP3    H258415   1.107   1.547  11.403  0.4558  0.1327  0.6540
12334TIP3   OH258416   4.485   3.688  16.938  0.4728  0.6469 -0.1588
12334TIP3    H158417   4.506   3.773  16.977 -0.1376  1.0729 -0.7380
12334TIP3    H258418   4.555   3.673  16.875 -0.4905  1.7040 -1.5370
12335TIP3   OH258419   6.311   4.071   2.885  0.5292 -0.0503 -0.2554
12335TIP3    H158420   6.237   4.080   2.946 -0.0611  0.8967 -1.0804
12335TIP3    H258421   6.295   3.990   2.839 -0.0387  0.1804 -0.4734
12336TIP3   OH258422   2.646   2.540   0.318  0.1741 -0.3853  0.0940
12336TIP3    H158423   2.673   2.478   0.386  0.6110  1.0419  1.2992
12336TIP3    H258424   2.577   2.593   0.359  1.4277  1.4397  0.0015
12337TIP3   OH258425   3.943   3.182  13.293  0.5394 -0.0936 -0.4851
12337TIP3    H158426   3.929   3.095  13.330  0.2313  0.2809  0.2928
12337TIP3    H258427   3.883   3.239  13.341  0.5837  0.5112 -1.1370
12338TIP3   OH258428   4.703   6.364   2.245  0.0560 -0.1404  0.2224
12338TIP3    H158429   4.683   6.344   2.154  1.9359  1.3633 -0.5991
12338TIP3    H258430   4.797   6.350   2.252  0.1061  0.7061  1.6544
12339TIP3   OH258431   0.637   6.242   1.156 -0.3022 -0.1993  0.2402
12339TIP3    H158432   0.549   6.205   1.163 -0.4740  0.3645  1.1721
12339TIP3    H258433   0.662   6.262   1.246  1.6211 -2.2631  0.2547
12340TIP3   OH258434   4.505   6.144   5.841 -0.2336 -0.2187 -0.9643
12340TIP3    H158435   4.506   6.106   5.754 -1.4613 -0.9817 -0.6710
12340TIP3    H258436   4.455   6.226   5.831 -0.8576 -0.5840 -0.8806
12341TIP3   OH258437   0.031   4.137   1.721 -0.6221 -1.1470 -0.2842
12341TIP3    H158438  -0.063   4.121   1.721 -0.6631 -1.3510  2.4802
12341TIP3    H258439   0.066   4.075   1.785  1.0490  0.6145  0.5883
12342TIP3   OH258440   1.466   4.880   3.387 -0.2266  0.4676 -0.5822
12342TIP3    H158441   1.477   4.847   3.476 -1.1571 -0.8618 -0.9320
12342TIP3    H258442   1.396   4.944   3.394 -1.4876 -0.8567 -0.6015
12343TIP3   OH258443   5.710   0.888   3.477 -0.6557 -0.0542  0.1107
12343TIP3    H158444   5.713   0.794   3.496  3.3111 -0.0601  0.3105
12343TIP3    H258445   5.707   0.894   3.382 -3.5721 -0.2303  0.1023
12344TIP3   OH258446   6.319   4.973  11.448 -0.2595  0.3274  0.4128
12344TIP3    H158447   6.235   4.972  11.494  0.2771  0.4126  1.3990
12344TIP3    H258448   6.363   4.894  11.477 -1.0924 -1.2794 -2.2382
12345TIP3   OH258449   3.000   5.649   5.851  0.1570 -0.7104 -0.0676
12345TIP3    H158450   3.036   5.703   5.920  0.9598 -0.0353 -0.9986
12345TIP3    H258451   2.921   5.696   5.823  0.5654 -0.2942 -0.5196
12346TIP3   OH258452   3.703   1.566  12.968  0.0973  0.3353 -0.0575
12346TIP3    H158453   3.763   1.640  12.958  2.3306 -1.0384  1.9524
12346TIP3    H258454   3.751   1.491  12.934 -0.5389 -0.7786  1.3600
12347TIP3   OH258455   4.609   5.589  11.409 -0.1966  0.0854  0.0723
12347TIP3    H158456   4.628   5.526  11.479 -1.4863  0.1045  0.4627
12347TIP3    H258457   4.583   5.534  11.335 -0.4097  0.1196  0.1209
12348TIP3   OH258458   1.499   1.295   3.711  0.1426  0.1978  0.5337
12348TIP3    H158459   1.408   1.324   3.710  0.9251  2.9829  0.9529
12348TIP3    H258460   1.526   1.297   3.619  0.2706  1.3249  0.5727
12349TIP3   OH258461   6.660   5.799  12.240  0.4958  0.3972  0.2506
12349TIP3    H158462   6.569   5.771  12.247  0.6754 -0.0981  0.6755
12349TIP3    H258463   6.655   5.895  12.234 -0.0219  0.4162  0.8320
12350TIP3   OH258464   3.095   2.872   5.604  0.3722  0.2066  0.0018
12350TIP3    H158465   3.094   2.794   5.548 -2.2570 -0.2027  0.4939
12350TIP3    H258466   3.097   2.945   5.543 -1.1940 -0.2427 -0.6472
12351TIP3   OH258467   3.330   0.074   1.805 -0.0939  0.1152  0.2016
12351TIP3    H158468   3.362   0.164   1.798  0.2179  0.0235  0.3961
12351TIP3    H258469   3.235   0.082   1.814 -0.2131  0.3578 -1.1813
12352TIP3   OH258470   1.738   2.716   5.583 -0.4604 -0.1236 -0.4214
12352TIP3    H158471   1.787   2.677   5.655  1.2493 -1.0342 -1.9901
12352TIP3    H258472   1.688   2.643   5.546 -2.1656  0.5577  0.4402
12353TIP3   OH258473   5.424   0.329  11.975 -0.1527 -0.4840 -0.1639
12353TIP3    H158474   5.460   0.387  12.041 -0.1713  0.3556 -0.8731
12353TIP3    H258475   5.334   0.311  12.004 -0.8636  1.5051 -0.9510
12354TIP3   OH258476   5.996   3.954  15.697  0.6205 -0.1336 -0.3495
12354TIP3    H158477   5.968   3.904  15.620  1.1875 -0.6213 -0.2504
12354TIP3    H258478   5.993   4.045  15.669 -0.1294 -0.2343 -0.6360
12355TIP3   OH258479   6.057   5.833  13.871  0.0079 -0.0178 -0.1270
12355TIP3    H158480   5.971   5.829  13.830  0.5299 -0.6966 -1.1932
12355TIP3    H258481   6.117   5.853  13.799  0.4854  3.2791  0.9879
12356TIP3   OH258482   4.756   3.784  14.051  0.4749  0.4567  0.1584
12356TIP3    H158483   4.694   3.840  14.005 -1.3366 -0.2431  1.6045
12356TIP3    H258484   4.759   3.703  14.000  1.2755  0.9739 -0.6415
12357TIP3   OH258485   1.661   1.788  14.065 -0.0432 -0.3912 -0.6217
12357TIP3    H158486   1.573   1.773  14.100 -0.7055  1.5156 -1.3432
12357TIP3    H258487   1.676   1.716  14.004 -0.5860 -1.3908  0.3842
12358TIP3   OH258488   2.346   3.906   3.835  0.1699 -0.2484 -0.4820
12358TIP3    H158489   2.272   3.852   3.864 -1.0209  0.4877 -1.9977
12358TIP3    H258490   2.400   3.916   3.913  0.0522 -2.9652  0.0537
12359TIP3   OH258491   2.931   1.728  15.880  0.2690  0.0774  0.2958
12359TIP3    H158492   2.943   1.655  15.940 -2.2841 -1.1826 -0.6069
12359TIP3    H258493   3.007   1.725  15.822  0.5863 -1.3550  0.7660
12360TIP3   OH258494   6.351   3.851   3.551 -0.1941  0.0823 -0.2637
12360TIP3    H158495   6.340   3.822   3.642  3.1741  0.8277  0.5113
12360TIP3    H258496   6.339   3.771   3.499  0.3326 -0.9147  1.0891
12361TIP3   OH258497   0.323   2.853   0.759 -0.2280 -0.4318  0.6256
12361TIP3    H158498   0.409   2.811   0.762 -0.8120 -1.8297 -0.5389
12361TIP3    H258499   0.338   2.937   0.716  0.1302 -2.0685 -2.7793
12362TIP3   OH258500   0.378   6.764  13.082 -0.5283  0.1029  0.3315
12362TIP3    H158501   0.317   6.691  13.077  0.6724 -1.0628  1.9681
12362TIP3    H258502   0.456   6.729  13.124  0.8465  1.8493 -0.6037
12363TIP3   OH258503   1.507   6.043   0.360 -1.1137 -0.7266  0.1171
12363TIP3    H158504   1.447   5.974   0.334  0.6632 -2.7145  0.9377
12363TIP3    H258505   1.588   5.997   0.383  0.3788  1.7006  0.1240
12364TIP3   OH258506   1.437   6.661  14.955 -0.3634 -0.1844 -0.2041
12364TIP3    H158507   1.402   6.617  15.033 -0.0772 -0.6237 -0.3225
12364TIP3    H258508   1.462   6.748  14.987 -0.6375 -0.2136  0.0998
12365TIP3   OH258509   2.621   3.434  12.969  0.2097 -0.7709  0.4719
12365TIP3    H158510   2.689   3.495  12.942  1.0519 -1.7130  0.3940
12365TIP3    H258511   2.540   3.484  12.964  1.0050  0.7224  1.6402
12366TIP3   OH258512   5.790   5.564   3.737 -0.0791  0.3364  0.4635
12366TIP3    H158513   5.837   5.581   3.656  2.0176 -1.0149  1.3173
12366TIP3    H258514   5.818   5.634   3.796 -2.9652  2.3949 -0.3682
12367TIP3   OH258515   5.386   2.832   4.451 -0.3349  0.1068 -0.0578
12367TIP3    H158516   5.290   2.828   4.443 -0.3089 -0.3647 -0.1584
12367TIP3    H258517   5.401   2.864   4.540 -0.5848 -2.8660  1.1659
12368TIP3   OH258518   6.337   6.044  11.150  0.2399 -0.2272  0.0185
12368TIP3    H158519   6.277   6.107  11.191  0.7299 -0.3595  0.9905
12368TIP3    H258520   6.419   6.054  11.200  0.4878 -1.2535 -0.1582
12369TIP3   OH258521   1.245   5.102   3.677 -0.2643 -0.6043  0.1440
12369TIP3    H158522   1.156   5.102   3.713 -0.2082 -1.8522  0.3386
12369TIP3    H258523   1.232   5.096   3.582 -0.3928 -0.6567  0.1641
12370TIP3   OH258524   3.624   1.461  16.717  0.4960 -0.2385 -0.1359
12370TIP3    H158525   3.704   1.410  16.708  0.8170  0.1633  0.3453
12370TIP3    H258526   3.606   1.462  16.811 -0.9061 -1.5544 -0.3373
12371TIP3   OH258527   3.392   3.943  11.916  0.5452  0.5616 -0.3104
12371TIP3    H158528   3.474   3.904  11.887  0.9971  1.3130 -0.0845
12371TIP3    H258529   3.341   3.955  11.836 -0.4875 -2.3320 -0.2120
12372TIP3   OH258530   4.088   2.279  15.276  0.2908 -0.9634 -0.3219
12372TIP3    H158531   4.066   2.186  15.272  0.2898 -0.9382 -1.1798
12372TIP3    H258532   4.176   2.285  15.239  0.2440 -0.6129 -0.3829
12373TIP3   OH258533   0.640   0.795   1.607 -0.3917  0.1299  0.6169
12373TIP3    H158534   0.645   0.861   1.539 -3.1991 -0.7466 -0.5584
12373TIP3    H258535   0.568   0.823   1.664 -0.8471 -1.2706  0.7846
12374TIP3   OH258536   3.910   5.864   4.142  0.0385  0.0698 -0.4034
12374TIP3    H158537   3.908   5.958   4.126 -0.5065 -0.1514 -1.8307
12374TIP3    H258538   3.872   5.826   4.063 -1.5305 -1.2661  0.9116
12375TIP3   OH258539   1.840   4.607  11.062  0.4883 -0.2875 -0.2912
12375TIP3    H158540   1.793   4.686  11.090  0.4402 -0.5290  0.3178
12375TIP3    H258541   1.770   4.542  11.048  0.7150 -1.3993  2.9569
12376TIP3   OH258542   2.076   0.691   1.800 -0.2530 -0.2310 -0.0603
12376TIP3    H158543   2.165   0.689   1.766 -0.2026 -0.6361  0.0895
12376TIP3    H258544   2.083   0.658   1.889 -0.3759  0.9012  0.3713
12377TIP3   OH258545   3.310   4.573  15.907 -0.8004  0.2721 -0.0864
12377TIP3    H158546   3.240   4.638  15.910  0.2186  1.7034 -3.0445
12377TIP3    H258547   3.274   4.501  15.856 -0.7268  0.1442  0.0404
12378TIP3   OH258548   1.547   5.535  13.144  0.5589 -0.2013  0.1129
12378TIP3    H158549   1.600   5.591  13.088 -1.7087 -0.6519 -2.7205
12378TIP3    H258550   1.585   5.448  13.133  0.4115 -0.2076 -0.3845
12379TIP3   OH258551   3.271   2.327  14.399  0.1131  0.3022 -0.5948
12379TIP3    H158552   3.356   2.329  14.443 -0.5095 -0.4936  0.7084
12379TIP3    H258553   3.262   2.235  14.371 -1.0431 -0.0555  0.8272
12380TIP3   OH258554   2.755   4.175   1.171  0.4139 -0.5722 -0.4505
12380TIP3    H158555   2.729   4.267   1.179 -1.3996 -1.0150 -0.8130
12380TIP3    H258556   2.733   4.137   1.256  3.6015 -0.1908  0.6863
12381TIP3   OH258557   3.502   2.040  13.998 -0.1744 -0.3099 -0.1546
12381TIP3    H158558   3.482   2.123  14.040  2.2239  0.8219 -1.0750
12381TIP3    H258559   3.514   1.979  14.071 -0.2228  0.5799  0.6192
12382TIP3   OH258560   2.254   1.761   3.256  0.1821 -0.0137  0.3917
12382TIP3    H158561   2.244   1.848   3.219  0.8832  0.2381  0.7676
12382TIP3    H258562   2.167   1.723   3.253  0.1592  0.1010 -1.2517
12383TIP3   OH258563   5.109   2.975   2.583 -0.1588  0.0924 -0.3320
12383TIP3    H158564   5.124   3.041   2.515 -0.4925  0.0887 -0.4093
12383TIP3    H258565   5.018   2.948   2.571 -0.0566 -0.3020 -0.2278
12384TIP3   OH258566   2.418   4.915  11.011 -0.2289  0.0575  0.2359
12384TIP3    H158567   2.421   5.000  11.055  1.8665  0.5640 -0.7790
12384TIP3    H258568   2.396   4.936  10.920 -0.0526 -0.5416  0.0557
12385TIP3   OH258569   1.582   5.125  15.109 -0.2677  0.2209 -0.4209
12385TIP3    H158570   1.572   5.220  15.115 -1.3453  0.1901 -1.3739
12385TIP3    H258571   1.505   5.089  15.153 -0.5534 -0.1725 -1.2118
12386TIP3   OH258572   3.999   2.343   3.223 -0.1185  0.5711  0.0963
12386TIP3    H158573   3.931   2.410   3.227 -1.5339 -0.7608 -0.5338
12386TIP3    H258574   4.015   2.331   3.130  0.1759  0.0996  0.2040
12387TIP3   OH258575   1.502   0.678  14.130 -0.4183  0.2191  0.2737
12387TIP3    H158576   1.465   0.678  14.218  0.5039 -2.9074  0.7671
12387TIP3    H258577   1.595   0.694  14.143 -0.4858  1.1592 -0.3046
12388TIP3   OH258578   0.516   0.603   3.659  0.6756 -0.7617  0.0531
12388TIP3    H158579   0.555   0.664   3.722 -1.1578  1.2687 -0.6681
12388TIP3    H258580   0.435   0.574   3.701  0.3334 -0.8036 -0.6246
12389TIP3   OH258581   5.663   2.859  11.310 -0.1267 -0.2324 -0.4614
12389TIP3    H158582   5.659   2.851  11.215  2.6525 -0.1357 -0.6799
12389TIP3    H258583   5.699   2.947  11.325  0.1701 -0.5143  0.6228
12390TIP3   OH258584   6.395   3.611   1.561  0.3460  0.6713  0.1229
12390TIP3    H158585   6.426   3.641   1.475  0.6631 -1.1179 -0.4263
12390TIP3    H258586   6.403   3.515   1.558  2.8244  0.6300  3.0914
12391TIP3   OH258587   5.204   4.991  14.746  0.0291  0.3645 -0.0597
12391TIP3    H158588   5.263   4.983  14.670  0.6324 -0.5537  0.4808
12391TIP3    H258589   5.205   5.084  14.768 -0.3931  0.7014 -1.3604
12392TIP3   OH258590   2.496   3.348  14.498 -0.0022  0.1176  0.2474
12392TIP3    H158591   2.413   3.356  14.546 -0.0855 -1.7811  0.5014
12392TIP3    H258592   2.527   3.260  14.518  1.3007  0.2250 -1.1003
12393TIP3   OH258593   6.256   5.863  12.128 -0.1678 -0.7176 -0.0663
12393TIP3    H158594   6.163   5.880  12.139 -0.3492 -1.2445 -0.6981
12393TIP3    H258595   6.276   5.898  12.041  0.2686 -0.4204  0.1504
12394TIP3   OH258596   2.144   2.871  15.697  0.1972 -0.4389 -0.0869
12394TIP3    H158597   2.158   2.854  15.790 -0.1537 -1.7423 -0.2519
12394TIP3    H258598   2.057   2.910  15.692  0.8391  1.1154  0.2586
12395TIP3   OH258599   5.571   3.197   5.937 -0.1587  0.2838  0.0129
12395TIP3    H158600   5.622   3.266   5.980 -0.5192  1.5007 -1.4233
12395TIP3    H258601   5.480   3.223   5.951 -0.2853  0.8195 -1.5854
12396TIP3   OH258602   0.290   2.618  14.272 -0.0100  0.2454  0.1045
12396TIP3    H158603   0.258   2.614  14.362  0.4279 -1.1909  0.2175
12396TIP3    H258604   0.267   2.706  14.243  0.5849  1.0516  1.8931
12397TIP3   OH258605   5.871   4.843  11.855  0.1717 -0.4570  0.1582
12397TIP3    H158606   5.932   4.895  11.801 -0.9887 -0.4786 -1.2261
12397TIP3    H258607   5.876   4.755  11.819 -0.7244 -0.4443 -0.0083
12398TIP3   OH258608   2.366   0.707  13.768 -0.5107  0.0182  0.5759
12398TIP3    H158609   2.399   0.654  13.840 -1.2538  0.0959  0.9864
12398TIP3    H258610   2.395   0.796  13.788  0.3997 -0.1541  0.0885
12399TIP3   OH258611   1.737   1.760  13.227 -0.1629  0.1781 -0.3083
12399TIP3    H158612   1.814   1.815  13.232  1.0616 -1.2378 -2.3395
12399TIP3    H258613   1.664   1.821  13.217  0.8475  1.4700 -0.0802
12400TIP3   OH258614   2.356   4.851  14.854  0.6994  0.1570 -0.7045
12400TIP3    H158615   2.270   4.841  14.813  1.0756  0.5794 -1.6296
12400TIP3    H258616   2.414   4.798  14.800  0.8336 -1.0415  0.5886
12401TIP3   OH258617   3.088   3.518   1.411  0.4216  0.3442  0.0513
12401TIP3    H158618   3.051   3.529   1.324  2.1243 -1.5883 -1.0143
12401TIP3    H258619   3.012   3.513   1.469 -0.7323  2.3356 -1.1845
12402TIP3   OH258620   6.439   2.989   2.529  0.3331 -0.2285  0.3268
12402TIP3    H158621   6.380   2.926   2.571 -0.4399  1.2726  1.5673
12402TIP3    H258622   6.468   2.945   2.448  0.4156 -2.4550  1.5061
12403TIP3   OH258623   2.788   4.060  11.633  0.0263 -0.1313  0.7221
12403TIP3    H158624   2.728   4.055  11.558  1.0435  0.2120 -0.1360
12403TIP3    H258625   2.835   4.143  11.621  1.1998 -0.7376  0.9551
12404TIP3   OH258626   4.223   4.607  13.763  0.7680  0.0579  0.2553
12404TIP3    H158627   4.173   4.532  13.732 -1.6583  1.1497  1.2128
12404TIP3    H258628   4.313   4.590  13.735  0.1947 -2.8251 -0.1562
12405TIP3   OH258629   3.516   2.516  16.743  0.3848  0.3108  0.3423
12405TIP3    H158630   3.487   2.569  16.669  1.4059  0.4733  0.0388
12405TIP3    H258631   3.436   2.480  16.780 -0.0689 -2.7277 -2.9943
12406TIP3   OH258632   4.982   4.256  10.567  0.1141  0.4242 -0.5516
12406TIP3    H158633   4.944   4.322  10.626  0.8994  0.3653  0.0366
12406TIP3    H258634   5.068   4.292  10.545 -0.2871  0.5945 -1.9299
12407TIP3   OH258635   4.932   4.841  14.747 -0.2744  0.1993  0.1613
12407TIP3    H158636   4.879   4.920  14.753  0.6605  0.7780  1.4015
12407TIP3    H258637   5.022   4.872  14.756  0.3067 -0.7627 -1.8467
12408TIP3   OH258638   4.906   4.142  15.111  0.1201 -0.1806 -0.0376
12408TIP3    H158639   4.922   4.098  15.028  0.6786  2.1542 -1.2590
12408TIP3    H258640   4.823   4.189  15.098 -0.5037 -0.8805  1.2346
12409TIP3   OH258641   0.561   5.162   1.798  0.2324  0.5536 -0.1116
12409TIP3    H158642   0.485   5.218   1.812  0.5295  0.5772  1.5871
12409TIP3    H258643   0.600   5.196   1.717 -0.4465  1.8015  0.0450
12410TIP3   OH258644   3.498   1.954   4.524 -0.1641 -0.2817  0.1972
12410TIP3    H158645   3.547   2.014   4.580  0.1342 -0.5775  0.2511
12410TIP3    H258646   3.464   2.010   4.454  0.2337 -0.0765  0.1669
12411TIP3   OH258647   0.628   2.565   6.328 -0.4244  0.5192 -0.2376
12411TIP3    H158648   0.694   2.632   6.310 -0.6645  0.7025 -0.4374
12411TIP3    H258649   0.546   2.613   6.337 -0.5618  0.2749 -0.1583
12412TIP3   OH258650   5.923   2.795   4.559 -0.8150  0.3609 -0.2905
12412TIP3    H158651   5.926   2.701   4.576  0.0265  0.3796 -0.3191
12412TIP3    H258652   5.844   2.825   4.605 -1.9585 -0.5988 -1.5715
12413TIP3   OH258653   1.855   5.101   3.198  0.5704  0.2523 -0.4414
12413TIP3    H158654   1.908   5.115   3.119  0.1973  1.8455 -0.4482
12413TIP3    H258655   1.823   5.011   3.189  2.7559 -0.5560 -0.7161
12414TIP3   OH258656   6.420   2.043  13.867 -0.4419  0.5420 -0.3689
12414TIP3    H158657   6.453   2.095  13.940  0.8852 -1.8464  0.8400
12414TIP3    H258658   6.425   2.102  13.792  0.8188  2.2165  0.9548
12415TIP3   OH258659   3.179   6.179  13.837  0.5781  0.4268  0.9004
12415TIP3    H158660   3.250   6.189  13.774 -0.0066  0.4759  0.2431
12415TIP3    H258661   3.178   6.262  13.886 -1.8558  2.3499 -2.0457
12416TIP3   OH258662   2.196   4.362   5.968 -0.0438  0.0047  0.4373
12416TIP3    H158663   2.143   4.419   6.023  0.0067  0.3190  0.1640
12416TIP3    H258664   2.145   4.353   5.887 -0.2021 -0.5991  0.5992
12417TIP3   OH258665   6.027   0.599   1.105  0.2650  0.6333 -0.2010
12417TIP3    H158666   5.959   0.538   1.134  0.9098  0.8591  2.0103
12417TIP3    H258667   5.981   0.681   1.090  0.0176  0.8107  1.3762
12418TIP3   OH258668   4.234   6.411   1.641 -0.1315  0.3967  0.1984
12418TIP3    H158669   4.229   6.461   1.723 -2.4598  2.6882 -1.1799
12418TIP3    H258670   4.285   6.466   1.582  0.5900 -0.7259 -0.2703
12419TIP3   OH258671   5.396   4.759   2.547 -0.4412  0.8849  0.0633
12419TIP3    H158672   5.401   4.727   2.637 -0.2203  1.0900  0.1266
12419TIP3    H258673   5.464   4.710   2.500 -0.9219  0.3841 -0.1177
12420TIP3   OH258674   6.007   4.804  13.335 -0.4408 -0.1708  0.1095
12420TIP3    H158675   6.031   4.893  13.308  0.5994 -0.0476  1.3311
12420TIP3    H258676   5.915   4.796  13.312 -0.5372  1.2124 -0.0640
12421TIP3   OH258677   1.278   1.327   4.921 -0.0230  0.0604  0.1021
12421TIP3    H158678   1.206   1.303   4.979 -0.4851  2.0859  0.4118
12421TIP3    H258679   1.271   1.422   4.910  2.0835  0.1975 -0.5549
12422TIP3   OH258680   6.511   3.791  14.840 -0.1265  0.2158  0.3230
12422TIP3    H158681   6.573   3.858  14.813  0.6198 -0.1331  1.1156
12422TIP3    H258682   6.560   3.709  14.831 -0.8340 -0.1746 -0.0676
12423TIP3   OH258683   0.109   0.516   2.566 -0.8570  0.2518 -0.5520
12423TIP3    H158684   0.070   0.476   2.644 -1.2580  0.9305 -0.3940
12423TIP3    H258685   0.123   0.608   2.590  1.8170 -0.1585 -0.2472
12424TIP3   OH258686   2.141   2.510  11.518  0.1331 -0.1406  0.2564
12424TIP3    H158687   2.165   2.418  11.527 -1.9092 -0.6486  1.1646
12424TIP3    H258688   2.145   2.527  11.424  2.1089 -0.6662  0.2180
12425TIP3   OH258689   0.086   6.555  11.421  0.0223  0.1061  0.2157
12425TIP3    H158690   0.007   6.502  11.414 -1.2047  1.6920  1.5427
12425TIP3    H258691   0.085   6.609  11.342  0.1936 -0.3781 -0.1268
12426TIP3   OH258692   4.862   1.320  13.157  0.6737  0.5286 -0.0813
12426TIP3    H158693   4.802   1.393  13.168 -0.7580 -0.3786 -1.4550
12426TIP3    H258694   4.842   1.260  13.228  1.0293  0.9132  0.3502
12427TIP3   OH258695   3.733   0.983   5.740  1.0699 -0.1218  0.2878
12427TIP3    H158696   3.788   0.909   5.763  0.8860 -0.1684  0.5893
12427TIP3    H258697   3.649   0.944   5.717  1.9119 -0.3153 -2.9401
12428TIP3   OH258698   0.460   2.811  16.396 -0.2901  0.2622  0.0581
12428TIP3    H158699   0.488   2.855  16.476 -2.9066  0.8416  0.7594
12428TIP3    H258700   0.520   2.843  16.328  0.9044  1.0955  1.4582
12429TIP3   OH258701   0.201   1.591   6.119  0.4066  0.4233 -0.5459
12429TIP3    H158702   0.212   1.507   6.163 -1.1810  0.4492 -0.0339
12429TIP3    H258703   0.164   1.648   6.185  0.6656  1.2843 -1.1327
12430TIP3   OH258704   2.639   3.594   1.207 -0.1946 -0.0517 -0.0881
12430TIP3    H158705   2.664   3.660   1.272 -0.7895  1.2321 -1.1109
12430TIP3    H258706   2.722   3.565   1.169  0.0741  0.2010  0.3003
12431TIP3   OH258707   0.489   1.763  13.979 -0.0605  0.4241  0.3964
12431TIP3    H158708   0.529   1.779  14.065  0.9067  0.9703 -0.1434
12431TIP3    H258709   0.508   1.842  13.928 -2.0259  0.8041  0.1613
12432TIP3   OH258710   2.823   3.237  11.569 -0.3758 -0.1447 -0.1931
12432TIP3    H158711   2.811   3.262  11.477  0.6350  0.6890 -0.1136
12432TIP3    H258712   2.918   3.227  11.579 -0.2674  1.7501  1.2323
12433TIP3   OH258713   5.989   2.411  17.241 -0.8072  0.5602 -0.4263
12433TIP3    H158714   6.049   2.474  17.201 -0.5825  0.7857  0.2481
12433TIP3    H258715   5.906   2.458  17.246 -0.0409  1.8412  2.4762
12434TIP3   OH258716   5.624   2.053  17.193  0.1803  0.5060 -0.4172
12434TIP3    H158717   5.611   2.123  17.257  0.8764  1.3019 -1.1262
12434TIP3    H258718   5.544   2.001  17.198 -0.1141  1.0245  0.5200
12435TIP3   OH258719   0.104   4.431  11.447 -0.4660 -0.4572 -0.4398
12435TIP3    H158720   0.183   4.391  11.483 -0.7305  0.4112  1.1633
12435TIP3    H258721   0.137   4.488  11.377  0.4234  0.4741  0.7093
12436TIP3   OH258722   5.264   3.277   1.375  0.5535  0.0730 -1.0278
12436TIP3    H158723   5.284   3.189   1.405  0.6375  0.1997 -0.7058
12436TIP3    H258724   5.342   3.328   1.396 -0.2351  0.6687  0.6313
12437TIP3   OH258725   3.459   1.389  12.015 -0.1232 -0.2774 -0.1067
12437TIP3    H158726   3.500   1.334  11.949  0.0641 -0.5494  0.2347
12437TIP3    H258727   3.528   1.406  12.079  0.0493  1.0237 -0.6161
12438TIP3   OH258728   4.455   1.549  12.394  0.3618 -0.1755 -0.1341
12438TIP3    H158729   4.387   1.531  12.458  0.8620  0.0391  0.4660
12438TIP3    H258730   4.410   1.597  12.324 -0.1292 -0.1623  0.1845
12439TIP3   OH258731   1.407   3.094  14.342  0.5873 -0.3000 -0.1926
12439TIP3    H158732   1.352   3.016  14.349  0.4742 -0.3082 -1.0672
12439TIP3    H258733   1.489   3.062  14.306  0.8370 -0.1420  0.2383
12440TIP3   OH258734   2.494   5.673   3.990 -0.1188 -0.0785  0.5179
12440TIP3    H158735   2.477   5.654   4.082  0.3394 -1.4023  0.3464
12440TIP3    H258736   2.420   5.634   3.943 -1.2678  2.0767  0.4046
12441TIP3   OH258737   3.431   0.931  13.913 -0.5089  0.2122  0.5531
12441TIP3    H158738   3.420   0.837  13.922  0.2110  0.2344  2.0659
12441TIP3    H258739   3.468   0.959  13.997  2.0556  1.4028 -0.8343
12442TIP3   OH258740   2.530   5.428   0.290  0.1231  0.2524 -0.2168
12442TIP3    H158741   2.466   5.357   0.284  1.0220 -0.6245  0.3233
12442TIP3    H258742   2.542   5.456   0.199  0.9085 -1.3616 -0.6627
12443TIP3   OH258743   6.692   3.241   0.385 -0.1910  0.2141  0.2065
12443TIP3    H158744   6.619   3.229   0.324  0.8107 -0.1332 -0.9777
12443TIP3    H258745   6.691   3.334   0.407 -1.3174  0.1088  0.6539
12444TIP3   OH258746   3.039   3.041   3.928  0.1626 -0.2038  0.1410
12444TIP3    H158747   3.007   3.076   3.845 -1.6689  2.5858  1.8299
12444TIP3    H258748   2.962   2.999   3.967  0.6244 -0.2981  0.9776
12445TIP3   OH258749   5.193   2.496  14.267 -0.0484  0.4482  0.3852
12445TIP3    H158750   5.210   2.591  14.265 -1.3329  0.7123  0.8877
12445TIP3    H258751   5.102   2.489  14.297 -0.5146 -0.8791 -1.1866
12446TIP3   OH258752   6.027   5.889  16.981  0.2362 -0.1322  0.3953
12446TIP3    H158753   5.954   5.873  16.921  0.1080 -1.4489  0.8807
12446TIP3    H258754   6.022   5.983  17.000 -2.0196 -0.3655  1.2829
12447TIP3   OH258755   4.645   5.252   3.615  0.5385 -0.3821 -0.1090
12447TIP3    H158756   4.618   5.166   3.582  1.0464  0.0530 -1.6937
12447TIP3    H258757   4.573   5.310   3.592  1.5197  0.2112 -1.8076
12448TIP3   OH258758   1.654   1.584  13.887 -0.0648  0.2141  0.1014
12448TIP3    H158759   1.727   1.617  13.834  0.9384 -0.1785  1.1815
12448TIP3    H258760   1.601   1.534  13.825  0.0275  1.3436 -0.9190
12449TIP3   OH258761   3.157   0.238   0.144  0.1033  0.2938  0.3718
12449TIP3    H158762   3.109   0.272   0.219 -1.1038 -0.9425  0.1835
12449TIP3    H258763   3.167   0.314   0.086 -0.1357  0.9415  1.1593
12450TIP3   OH258764   5.384   6.201   0.472 -0.4324  0.1988  0.2227
12450TIP3    H158765   5.360   6.289   0.502 -0.9515  0.7784 -1.7476
12450TIP3    H258766   5.300   6.157   0.457 -0.1978 -0.0862 -0.2924
12451TIP3   OH258767   6.318   4.584   5.284  0.3029  0.0812 -0.2890
12451TIP3    H158768   6.229   4.598   5.254  1.1310  1.7845 -2.1972
12451TIP3    H258769   6.345   4.502   5.242 -0.1474 -0.0904 -0.2442
12452TIP3   OH258770   0.042   6.516   4.193 -0.2305 -0.2190 -0.6524
12452TIP3    H158771  -0.023   6.586   4.181  0.7222  0.5552 -1.5253
12452TIP3    H258772   0.012   6.446   4.135 -0.9929 -0.4086 -0.0493
12453TIP3   OH258773   1.790   1.106  13.824  0.9478  0.2696 -0.1878
12453TIP3    H158774   1.699   1.135  13.816  0.8873  0.4108  0.8604
12453TIP3    H258775   1.799   1.037  13.759  0.3263  0.8163 -0.8773
12454TIP3   OH258776   3.545   5.442   5.119 -0.1097 -0.8048  0.3186
12454TIP3    H158777   3.532   5.537   5.125 -0.3480 -0.8134 -0.0351
12454TIP3    H258778   3.639   5.432   5.100  0.5136 -0.7455  2.9057
12455TIP3   OH258779   5.780   1.614  14.984  0.9432  0.0980 -0.5516
12455TIP3    H158780   5.794   1.700  15.023 -1.0141  0.9503 -1.5428
12455TIP3    H258781   5.837   1.612  14.907  1.8375  0.0291  0.1045
12456TIP3   OH258782   6.735   2.107  16.201 -0.5279  0.4792 -0.2425
12456TIP3    H158783   6.809   2.144  16.154  0.3777 -0.6533  0.2451
12456TIP3    H258784   6.772   2.077  16.284 -1.4880 -0.3230 -0.0846
12457TIP3   OH258785   0.594   3.710  14.957 -0.3142  0.4366 -0.2043
12457TIP3    H158786   0.511   3.665  14.943 -0.3686  0.7583 -1.0037
12457TIP3    H258787   0.659   3.640  14.967 -0.7441  0.1845  0.8561
12458TIP3   OH258788   3.933   6.044   6.123 -0.3830 -0.4160 -0.2547
12458TIP3    H158789   3.858   6.062   6.065  1.2066 -0.0285 -2.3003
12458TIP3    H258790   3.930   6.114   6.188 -0.8306  0.6296 -1.3524
12459TIP3   OH258791   1.432   0.952  17.027 -0.5043 -0.1161 -0.0426
12459TIP3    H158792   1.378   0.982  17.101 -0.0365 -0.5144  0.4650
12459TIP3    H258793   1.509   0.912  17.067  0.0113  0.1304 -0.7602
12460TIP3   OH258794   6.099   2.590   0.310 -0.3105  0.2570  0.4037
12460TIP3    H158795   6.097   2.616   0.402 -1.1998  0.9364  0.2028
12460TIP3    H258796   6.102   2.673   0.262  1.9609 -0.0879 -0.1787
12461TIP3   OH258797   5.579   6.646   1.541  0.1186  0.0069  0.5248
12461TIP3    H158798   5.613   6.729   1.508 -0.3668 -0.4623 -1.2732
12461TIP3    H258799   5.633   6.580   1.499 -1.9465 -0.7015 -1.2596
12462TIP3   OH258800   2.569   3.157   2.613  0.2320 -0.1805  0.3939
12462TIP3    H158801   2.623   3.145   2.535  1.8732 -0.9421  1.5711
12462TIP3    H258802   2.506   3.086   2.609 -1.0831  0.9925 -1.2470
12463TIP3   OH258803   1.330   0.702   5.559 -0.0693 -0.3702 -0.3846
12463TIP3    H158804   1.368   0.714   5.646 -1.4666 -2.0334  0.5401
12463TIP3    H258805   1.403   0.673   5.505  0.4237 -1.5992  0.8547
12464TIP3   OH258806   1.982   5.172  16.769 -0.3566 -0.2527  0.0423
12464TIP3    H158807   2.031   5.247  16.736 -1.6780  1.0390  0.8981
12464TIP3    H258808   1.906   5.210  16.812 -2.5535 -2.1591 -1.8609
12465TIP3   OH258809   5.853   1.073   5.531 -0.3971 -0.2836  0.2467
12465TIP3    H158810   5.808   0.991   5.550 -2.7905  0.9393  0.2652
12465TIP3    H258811   5.793   1.121   5.474  2.0739  0.4412 -1.9644
12466TIP3   OH258812   6.503   3.626   0.352  0.1800 -0.1493  0.0850
12466TIP3    H158813   6.566   3.576   0.404  0.6160 -1.3796 -1.5352
12466TIP3    H258814   6.553   3.657   0.277 -0.0440  2.9555  1.1017
12467TIP3   OH258815   4.690   2.469   0.164  0.0042 -0.3183 -0.2933
12467TIP3    H158816   4.606   2.474   0.119  0.3825  1.0737 -0.9018
12467TIP3    H258817   4.697   2.552   0.211 -0.2446 -1.6083  2.1732
12468TIP3   OH258818   2.458   0.787   3.011 -0.3615  0.3656  0.6471
12468TIP3    H158819   2.414   0.871   3.017 -0.2010  0.5497 -0.5387
12468TIP3    H258820   2.520   0.787   3.085 -1.4767  0.5978  1.6015
12469TIP3   OH258821   3.531   3.191   4.150  0.5678  0.2743 -0.3172
12469TIP3    H158822   3.488   3.275   4.133 -0.0749  0.2040  0.8450
12469TIP3    H258823   3.617   3.215   4.185 -0.3341  0.5485  1.9174
12470TIP3   OH258824   1.089   3.927  14.852 -0.3877 -0.2364 -0.5158
12470TIP3    H158825   1.016   3.988  14.838  0.2526  0.5312 -0.5715
12470TIP3    H258826   1.058   3.869  14.921  0.0206  1.9215  1.6237
12471TIP3   OH258827   4.794   3.159  10.402  0.0758  0.1550  0.2307
12471TIP3    H158828   4.778   3.092  10.336 -0.3555  0.4153  0.0665
12471TIP3    H258829   4.708   3.173  10.444 -0.0427  1.2360 -0.3412
12472TIP3   OH258830   5.815   2.251   5.645  0.7757  0.1344  0.6474
12472TIP3    H158831   5.783   2.320   5.586 -1.2639 -0.2222  1.2731
12472TIP3    H258832   5.824   2.174   5.590  1.0722  0.3766  0.3555
12473TIP3   OH258833   1.462   2.329   5.153 -0.1879 -0.6315 -0.1066
12473TIP3    H158834   1.397   2.282   5.206 -0.9495  0.5042  0.0039
12473TIP3    H258835   1.424   2.330   5.065 -0.5264  0.3576  0.0330
12474TIP3   OH258836   4.092   6.043  16.238  0.0316  0.2514 -0.4137
12474TIP3    H158837   4.069   5.950  16.241  3.0326 -0.5705  0.7217
12474TIP3    H258838   4.106   6.062  16.146  1.4634 -1.0702 -0.5100
12475TIP3   OH258839   5.778   1.777   3.196 -0.1158 -0.2697 -0.1247
12475TIP3    H158840   5.705   1.810   3.144  0.6384  1.1108 -0.3624
12475TIP3    H258841   5.856   1.806   3.148  0.5908 -1.2578  0.4034
12476TIP3   OH258842   4.932   3.619  13.886  0.1163 -0.2436  0.2575
12476TIP3    H158843   4.852   3.569  13.903 -1.4362  1.4543 -1.5460
12476TIP3    H258844   4.997   3.553  13.863 -2.0067 -1.5928 -2.6307
12477TIP3   OH258845   5.776   3.778  13.439  0.0419 -0.7326  0.3060
12477TIP3    H158846   5.706   3.842  13.452 -1.4963 -1.7618 -2.1921
12477TIP3    H258847   5.782   3.732  13.523  0.3728  1.8018  1.7618
12478TIP3   OH258848   2.135   2.427  12.927 -0.0381  0.3651 -0.4407
12478TIP3    H158849   2.228   2.437  12.945  0.5070  0.3296 -2.9763
12478TIP3    H258850   2.092   2.480  12.995  1.8663  1.5296 -0.0809
12479TIP3   OH258851   5.456   3.234  14.882 -0.0716  0.2596 -0.1848
12479TIP3    H158852   5.362   3.227  14.895 -0.3083  0.4523 -1.6269
12479TIP3    H258853   5.492   3.154  14.921 -0.8258  0.1905  0.3814
12480TIP3   OH258854   2.675   2.325   2.601 -0.4770  0.4094  0.0906
12480TIP3    H158855   2.719   2.405   2.631  0.1519 -1.1169  3.8834
12480TIP3    H258856   2.741   2.279   2.549  0.9281  0.2185  1.9385
12481TIP3   OH258857   1.219   2.268  15.557 -0.1119  0.0553  0.4506
12481TIP3    H158858   1.306   2.297  15.585 -0.2641  1.5757 -0.5488
12481TIP3    H258859   1.181   2.344  15.515 -1.9241 -0.6089  0.8020
12482TIP3   OH258860   2.420   2.659   2.967  0.2301 -0.5494 -0.2070
12482TIP3    H158861   2.447   2.751   2.960  1.2431 -0.9167 -1.4506
12482TIP3    H258862   2.478   2.623   3.035  2.5928 -1.1633 -2.3934
12483TIP3   OH258863   3.329   0.276   6.223  0.5265 -0.1285  0.4488
12483TIP3    H158864   3.377   0.195   6.209  0.6944 -0.4270  2.4811
12483TIP3    H258865   3.311   0.278   6.317 -3.8625 -0.2823 -0.1490
12484TIP3   OH258866   2.906   5.299  14.284 -0.3702  0.2665  0.0693
12484TIP3    H158867   2.869   5.374  14.331 -0.5918 -0.1722  0.5975
12484TIP3    H258868   3.000   5.307  14.298 -0.4527 -0.0148  0.8252
12485TIP3   OH258869   4.462   5.570  15.178  0.0231  0.2054 -0.2856
12485TIP3    H158870   4.417   5.590  15.260 -0.1205 -0.7693 -0.1149
12485TIP3    H258871   4.411   5.499  15.140  1.0745 -0.5094 -0.3842
12486TIP3   OH258872   5.197   5.275   4.183  0.3745  0.6711 -0.1118
12486TIP3    H158873   5.131   5.229   4.131 -0.3135 -1.2325  2.3099
12486TIP3    H258874   5.226   5.346   4.125 -3.5930  1.5288 -1.4285
12487TIP3   OH258875   4.107   2.764   2.847 -0.0546  0.7130  0.1389
12487TIP3    H158876   4.124   2.709   2.771  2.1789  1.8475 -0.2525
12487TIP3    H258877   4.122   2.707   2.922  1.1789  0.4667 -0.2722
12488TIP3   OH258878   4.433   3.877  15.237  0.0484  0.0902  0.1685
12488TIP3    H158879   4.392   3.933  15.303 -0.5017  1.4552 -1.2659
12488TIP3    H258880   4.359   3.843  15.185  0.3875 -1.8194  0.8348
12489TIP3   OH258881   4.373   2.243   3.120  0.4783 -0.4415  0.8807
12489TIP3    H158882   4.353   2.302   3.193  0.8863  1.8894 -0.7743
12489TIP3    H258883   4.469   2.239   3.118  0.4645 -0.6608  0.6121
12490TIP3   OH258884   3.109   3.859  16.441 -0.1859 -0.2996  0.1022
12490TIP3    H158885   3.043   3.822  16.382 -0.7487 -0.4698  0.8216
12490TIP3    H258886   3.062   3.876  16.522 -0.1312  2.6739 -0.3949
12491TIP3   OH258887   5.342   2.905   3.562  0.0717  0.2314 -0.6934
12491TIP3    H158888   5.343   2.989   3.608 -1.2654  0.6457 -1.3987
12491TIP3    H258889   5.260   2.863   3.590  1.1952 -1.3461  0.4867
12492TIP3   OH258890   1.484   4.083   3.298 -0.1845  0.3329  0.5055
12492TIP3    H158891   1.470   4.011   3.237  2.4195  1.2887 -1.3998
12492TIP3    H258892   1.451   4.160   3.253  0.5738  0.8745  0.8502
12493TIP3   OH258893   2.875   4.825  15.814  0.1912  0.1191  0.0499
12493TIP3    H158894   2.845   4.762  15.749  0.5087 -0.5780  0.5620
12493TIP3    H258895   2.841   4.909  15.784 -2.3383 -0.6285  0.6213
12494TIP3   OH258896   4.929   4.246   1.809  0.6430 -0.0597  0.1914
12494TIP3    H158897   4.973   4.192   1.874  1.3263 -0.4692 -0.5824
12494TIP3    H258898   4.904   4.326   1.855  2.5115  0.3346  0.5802
12495TIP3   OH258899   5.339   6.120  15.858  0.6726 -0.1384  0.5857
12495TIP3    H158900   5.244   6.110  15.866  0.5842 -0.3472 -0.5362
12495TIP3    H258901   5.359   6.201  15.903  0.0730 -0.5137  1.5526
12496TIP3   OH258902   5.258   6.529   5.667  0.0167 -0.1833 -0.0022
12496TIP3    H158903   5.345   6.566   5.650  0.4410 -1.2027 -0.1015
12496TIP3    H258904   5.262   6.441   5.629 -1.1979 -0.0928 -0.3707
12497TIP3   OH258905   6.441   2.693   3.036  0.5209  0.3208 -0.4736
12497TIP3    H158906   6.363   2.641   3.016  1.9702 -2.2930  0.2813
12497TIP3    H258907   6.410   2.784   3.031 -2.2423 -0.5551 -1.4516
12498TIP3   OH258908   4.533   4.993   1.166 -0.1392 -0.3174 -0.0086
12498TIP3    H158909   4.592   5.069   1.163 -0.0684 -0.3278  0.8272
12498TIP3    H258910   4.581   4.925   1.119 -1.5561  0.9816 -3.7838
12499TIP3   OH258911   2.581   6.192   4.117  0.0046 -0.1065  0.0638
12499TIP3    H158912   2.518   6.120   4.126 -1.0385  0.8828  0.9057
12499TIP3    H258913   2.644   6.178   4.188  0.4520 -0.7928 -0.4508
12500TIP3   OH258914   3.412   5.663   6.648 -0.0123  0.2625 -0.2853
12500TIP3    H158915   3.446   5.630   6.731  0.8200 -2.0222 -1.4387
12500TIP3    H258916   3.490   5.677   6.594 -0.5687  1.1101 -0.9034
12501TIP3   OH258917   6.397   5.116   0.340  0.0669 -0.5389 -0.1085
12501TIP3    H158918   6.371   5.090   0.428  0.0234  0.1859  0.0974
12501TIP3    H258919   6.335   5.184   0.315  1.3745  0.8129  0.1644
12502TIP3   OH258920   1.251   0.554   0.580  0.1313 -0.0280 -0.1133
12502TIP3    H158921   1.173   0.536   0.633  0.6617  1.9095  1.4325
12502TIP3    H258922   1.325   0.529   0.635  0.7004  2.1569  0.2213
12503TIP3   OH258923   4.782   1.704   3.458  0.1521  0.0148  0.0730
12503TIP3    H158924   4.711   1.755   3.496  0.3936  0.0931  0.4233
12503TIP3    H258925   4.740   1.624   3.426 -0.1421  0.2050 -0.0118
12504TIP3   OH258926   4.265   5.420  16.386  0.2203 -0.0207 -0.1070
12504TIP3    H158927   4.238   5.481  16.455 -1.4555 -0.9092  0.0577
12504TIP3    H258928   4.218   5.339  16.405  2.7114 -1.5654 -0.0627
12505TIP3   OH258929   4.454   2.592   5.327 -0.0463 -0.7910 -0.8704
12505TIP3    H158930   4.457   2.656   5.399 -1.2985 -0.1188 -1.3706
12505TIP3    H258931   4.385   2.531   5.353  0.9017 -1.7536 -0.5654
12506TIP3   OH258932   3.397   3.301   2.413  0.3169 -0.2969 -0.5858
12506TIP3    H158933   3.309   3.266   2.429  0.5334 -0.6902 -0.2372
12506TIP3    H258934   3.439   3.301   2.499  0.1535  1.3083 -0.4776
12507TIP3   OH258935   5.558   0.263   2.882  0.1613  0.6480 -0.7036
12507TIP3    H158936   5.531   0.186   2.833 -0.0143  0.7328 -0.7398
12507TIP3    H258937   5.501   0.333   2.851  0.8532  0.9819 -1.2550
12508TIP3   OH258938   5.228   3.395  15.030 -0.8164 -0.6474 -0.0566
12508TIP3    H158939   5.157   3.393  14.965 -0.6105  0.5882 -0.3422
12508TIP3    H258940   5.189   3.356  15.108 -1.6351 -0.5179 -0.3844
12509TIP3   OH258941   5.263   0.271  16.803 -0.5124  0.0018  0.7886
12509TIP3    H158942   5.344   0.223  16.818 -0.8007 -0.2502  1.5697
12509TIP3    H258943   5.291   0.352  16.760  0.1115 -0.2679  0.6805
12510TIP3   OH258944   5.460   0.666   4.838 -0.3773  0.3338 -0.2990
12510TIP3    H158945   5.513   0.588   4.820 -0.0364 -0.0367  1.9882
12510TIP3    H258946   5.373   0.645   4.803 -0.5017 -1.4464  0.9193
12511TIP3   OH258947   2.479   3.606   3.990 -0.3587  0.3644 -0.0695
12511TIP3    H158948   2.390   3.635   3.967 -0.6668  1.3022  2.1104
12511TIP3    H258949   2.534   3.641   3.920 -1.4192  1.8293 -0.2197
12512TIP3   OH258950   0.115   4.673   2.971  0.3800 -0.0954 -0.6561
12512TIP3    H158951   0.115   4.583   2.937 -0.6846  0.0110 -0.9485
12512TIP3    H258952   0.057   4.721   2.912  0.3783  0.6302 -0.0749
12513TIP3   OH258953   2.518   1.379  11.427 -0.4046  0.2844  0.9897
12513TIP3    H158954   2.460   1.303  11.423 -0.4263  0.3542 -0.5220
12513TIP3    H258955   2.595   1.353  11.376 -0.4119  1.2707  0.4504
12514TIP3   OH258956   4.179   2.305   3.505  0.2833 -0.2736  0.1768
12514TIP3    H158957   4.120   2.236   3.476  0.6680 -0.3340 -0.4630
12514TIP3    H258958   4.223   2.335   3.426  2.6566 -1.6597  0.8803
12515TIP3   OH258959   5.715   3.823   0.363 -0.6988 -0.2320 -0.0007
12515TIP3    H158960   5.692   3.913   0.384 -0.8369 -0.1555 -0.4660
12515TIP3    H258961   5.724   3.822   0.268  0.6384 -0.3999  0.1090
12516TIP3   OH258962   3.604   1.304   3.871  0.7437 -0.1673 -0.9212
12516TIP3    H158963   3.618   1.210   3.887  0.1743 -0.3786 -1.5890
12516TIP3    H258964   3.690   1.337   3.844  0.3774 -1.1480 -3.6569
12517TIP3   OH258965   6.764   1.446  16.289  0.5427  0.4113  0.3870
12517TIP3    H158966   6.772   1.484  16.202  0.9811  0.4877  0.4568
12517TIP3    H258967   6.731   1.357  16.274  2.6078 -0.3346 -0.0311
12518TIP3   OH258968   5.143   4.111   0.729 -0.5399  0.3695 -0.0592
12518TIP3    H158969   5.146   4.179   0.662  0.4567  0.8825  0.4772
12518TIP3    H258970   5.116   4.032   0.683  1.3071  0.4224 -1.3406
12519TIP3   OH258971   3.727   5.436  16.992  0.1069  0.1008 -0.2086
12519TIP3    H158972   3.752   5.344  17.000 -0.8092 -0.3119 -1.7301
12519TIP3    H258973   3.792   5.474  16.933  0.1600  0.2949 -0.0265
12520TIP3   OH258974   0.312   1.666  15.585 -0.4846  0.5997  0.1457
12520TIP3    H158975   0.400   1.693  15.610 -0.5183 -0.8928  2.0523
12520TIP3    H258976   0.253   1.724  15.633 -0.5301 -0.0681  0.9186
12521TIP3   OH258977   6.353   3.481  12.800  0.1912 -0.7369  0.3578
12521TIP3    H158978   6.387   3.467  12.711 -0.2521 -1.9024  0.3544
12521TIP3    H258979   6.271   3.528  12.787 -0.5667 -2.0878  0.0280
12522TIP3   OH258980   0.659   3.616   1.396  0.0144  0.3775 -0.3639
12522TIP3    H158981   0.694   3.704   1.407 -0.9643  0.7128  0.1381
12522TIP3    H258982   0.599   3.604   1.470  0.6009 -0.9417 -0.0618
12523TIP3   OH258983   4.451   0.658  11.406 -0.0970 -0.1943 -0.7330
12523TIP3    H158984   4.458   0.747  11.371  0.5637 -0.5524 -1.5310
12523TIP3    H258985   4.503   0.604  11.346  0.0570 -1.0167  0.1144
12524TIP3   OH258986   2.701   2.937   1.831 -0.3012  0.1160  0.2176
12524TIP3    H158987   2.758   2.867   1.863 -0.4682  0.2931  0.9251
12524TIP3    H258988   2.659   2.901   1.753 -0.4806 -0.6197  0.6456
12525TIP3   OH258989   4.139   5.593  14.827  0.7686  0.1801 -0.1074
12525TIP3    H158990   4.048   5.564  14.821  0.9192 -0.3858  0.3198
12525TIP3    H258991   4.156   5.601  14.921  1.2838 -0.1124 -0.1710
12526TIP3   OH258992   1.971   3.326  10.906 -0.0131 -0.4117  0.8270
12526TIP3    H158993   1.995   3.245  10.952  0.2134 -2.3169 -2.3747
12526TIP3    H258994   1.875   3.326  10.909 -0.0041 -0.5169  1.2760
12527TIP3   OH258995   5.923   2.772   5.884  0.1093 -0.1811 -0.0954
12527TIP3    H158996   5.843   2.820   5.863 -0.2374 -0.4493  0.5899
12527TIP3    H258997   5.944   2.724   5.803  1.1941  2.0891 -1.2461
12528TIP3   OH258998   4.299   3.403  11.930 -0.1276  0.1335  0.6053
12528TIP3    H158999   4.358   3.462  11.883  0.3568  1.1316  2.4115
12528TIP3    H259000   4.296   3.325  11.874 -0.1393  1.4984 -1.4202
12529TIP3   OH259001   6.249   3.114   3.280  0.1026 -0.1402  0.7473
12529TIP3    H159002   6.182   3.170   3.319 -0.0800  0.1419  0.0369
12529TIP3    H259003   6.203   3.062   3.214  0.3698 -0.7626  1.0325
12530TIP3   OH259004   3.922   5.668   5.066 -0.0130 -1.4772 -0.3793
12530TIP3    H159005   3.895   5.654   5.157  0.1151 -0.3524 -0.1521
12530TIP3    H259006   3.941   5.580   5.033  1.2781 -1.8010  1.1040
12531TIP3   OH259007   3.548   5.694   5.213 -0.0678 -0.1353 -0.3248
12531TIP3    H159008   3.512   5.777   5.246 -0.2251 -0.2237 -0.2749
12531TIP3    H259009   3.640   5.697   5.238 -0.1416 -0.1127 -0.0505
12532TIP3   OH259010   1.772   0.783  15.686 -0.1022 -0.1228  0.0773
12532TIP3    H159011   1.698   0.750  15.738 -0.1755  1.5687  1.0854
12532TIP3    H259012   1.749   0.759  15.596 -3.0063  2.2192  0.0536
12533TIP3   OH259013   3.014   1.826   5.396 -0.2014  0.3430 -0.3096
12533TIP3    H159014   3.098   1.781   5.402 -0.6116 -0.4805 -0.5513
12533TIP3    H259015   3.032   1.904   5.344  0.7746  1.1087  1.1120
12534TIP3   OH259016   2.535   3.387  11.413 -0.2356 -0.0226 -0.4014
12534TIP3    H159017   2.605   3.345  11.363 -2.1302 -1.0672 -2.3243
12534TIP3    H259018   2.497   3.316  11.466 -0.9066  0.1410 -0.6492
12535TIP3   OH259019   3.244   0.523  13.008 -0.5062  0.3314  0.3491
12535TIP3    H159020   3.237   0.523  13.104 -1.0079 -1.4539  0.3488
12535TIP3    H259021   3.338   0.520  12.991 -0.4130  0.7168  0.7907
12536TIP3   OH259022   2.080   6.052  13.389  0.0224  0.1626  0.5292
12536TIP3    H159023   2.154   5.991  13.389 -0.8420 -0.9196  1.1162
12536TIP3    H259024   2.086   6.097  13.305  0.5622 -0.8866 -0.0178
12537TIP3   OH259025   6.720   4.581  16.416 -0.0279  0.4083  0.5609
12537TIP3    H159026   6.681   4.510  16.365 -0.8412  1.5469 -0.4575
12537TIP3    H259027   6.658   4.653  16.408  1.3558  1.6484  0.5264
12538TIP3   OH259028   1.559   3.885   1.122  0.4802  0.5430 -0.2439
12538TIP3    H159029   1.484   3.888   1.182 -0.0228 -2.1135 -0.5768
12538TIP3    H259030   1.625   3.940   1.163 -0.1843 -0.3707  2.2736
12539TIP3   OH259031   0.891   6.115  14.210 -0.3577  0.2285  0.0613
12539TIP3    H159032   0.899   6.118  14.305  1.0662  0.3184 -0.0284
12539TIP3    H259033   0.957   6.050  14.183  1.0058  1.9503 -0.9905
12540TIP3   OH259034   2.631   1.779   0.499  0.1595  0.4318 -0.1300
12540TIP3    H159035   2.546   1.775   0.542 -0.0916 -0.5911 -0.6872
12540TIP3    H259036   2.691   1.808   0.567 -0.7020  1.5948  0.1523
12541TIP3   OH259037   1.998   1.978   4.774 -0.5497  0.1391 -0.1279
12541TIP3    H159038   1.932   2.005   4.837 -0.4885 -1.3460  0.6083
12541TIP3    H259039   1.950   1.968   4.692 -1.5225 -1.9111  0.6077
12542TIP3   OH259040   5.867   0.603  12.953  0.0660 -0.6712 -0.0240
12542TIP3    H159041   5.955   0.618  12.918  0.0542 -0.8778 -0.1399
12542TIP3    H259042   5.827   0.690  12.954 -0.4053 -0.8324 -1.7777
12543TIP3   OH259043   6.450   1.800   2.778  0.7518 -0.0861 -0.5959
12543TIP3    H159044   6.511   1.867   2.811 -0.6747  0.6810  0.6092
12543TIP3    H259045   6.378   1.800   2.841 -1.8579  0.9595 -3.3501
12544TIP3   OH259046   5.311   3.009  16.512 -0.0237  0.2624  0.6246
12544TIP3    H159047   5.344   3.034  16.426 -0.4217 -2.0727 -0.2697
12544TIP3    H259048   5.216   3.001  16.500 -0.0511 -0.3926  1.2015
12545TIP3   OH259049   0.753   1.394   5.536 -0.4663 -1.0246 -1.0577
12545TIP3    H159050   0.814   1.344   5.481  0.4144 -1.0976 -0.0464
12545TIP3    H259051   0.695   1.329   5.574 -0.5054 -1.0744 -1.2035
12546TIP3   OH259052   6.349   4.152   5.584  0.8935  0.2332 -0.4750
12546TIP3    H159053   6.269   4.144   5.532  1.4284 -1.5930 -1.0980
12546TIP3    H259054   6.403   4.215   5.536 -0.0775  1.3653 -0.1298
12547TIP3   OH259055   3.797   5.729   3.921  0.2032  0.2877 -0.3683
12547TIP3    H159056   3.760   5.816   3.906  0.8394  0.5330 -0.5100
12547TIP3    H259057   3.733   5.669   3.883 -1.3521  0.5458  1.6278
12548TIP3   OH259058   0.238   2.508   2.544  0.3608  1.3785  0.9619
12548TIP3    H159059   0.158   2.527   2.496  0.3899 -0.9089 -0.1079
12548TIP3    H259060   0.309   2.537   2.486  0.3429  1.6976  1.0984
12549TIP3   OH259061   6.468   0.635   5.780 -0.2710 -0.7124  0.0094
12549TIP3    H159062   6.479   0.682   5.697  1.3671 -1.1534 -0.0640
12549TIP3    H259063   6.536   0.568   5.778 -0.9818 -1.4980  1.1994
12550TIP3   OH259064   6.565   4.966   1.418  0.9582 -1.1390 -0.5840
12550TIP3    H159065   6.523   4.923   1.493  0.3183  0.7779  0.2135
12550TIP3    H259066   6.503   4.956   1.346 -1.8513  2.9625  0.9386
12551TIP3   OH259067   6.521   4.087   5.916 -0.0290  0.2179 -0.6311
12551TIP3    H159068   6.452   4.024   5.893  0.3761 -0.3579 -0.2767
12551TIP3    H259069   6.527   4.083   6.011  1.4972 -0.8254 -0.7448
12552TIP3   OH259070   4.491   2.795  11.307  0.2709  0.6544 -0.6500
12552TIP3    H159071   4.469   2.852  11.381  2.5376  0.0928  0.5620
12552TIP3    H259072   4.549   2.849  11.252  0.0842  0.4568 -1.0450
12553TIP3   OH259073   4.009   0.775  12.423  0.1577  1.3982  0.6477
12553TIP3    H159074   3.932   0.830  12.439  0.7043  2.4878 -0.2400
12553TIP3    H259075   4.053   0.818  12.349  0.0307 -0.8870 -0.8280
12554TIP3   OH259076   1.159   1.094   2.415 -0.0959 -0.2346 -0.4722
12554TIP3    H159077   1.103   1.032   2.459  1.2897 -1.9869 -1.0575
12554TIP3    H259078   1.248   1.071   2.443  0.6388  0.0405 -2.3520
12555TIP3   OH259079   3.095   4.691  16.973  0.2705 -0.1567 -0.4012
12555TIP3    H159080   3.156   4.750  17.018  1.5276 -0.7462 -1.2790
12555TIP3    H259081   3.151   4.635  16.919 -1.0322 -0.9737 -0.9489
12556TIP3   OH259082   6.049   2.332  14.370 -0.4303  0.0409  0.6143
12556TIP3    H159083   6.010   2.407  14.415 -0.6841 -0.9359  2.0806
12556TIP3    H259084   6.086   2.369  14.289 -3.4450  1.1702 -0.3673
12557TIP3   OH259085   2.923   0.051  13.146  0.1653 -0.5212 -0.0846
12557TIP3    H159086   2.962   0.138  13.140 -0.9956 -0.0756 -2.8453
12557TIP3    H259087   2.899   0.041  13.238 -0.0706  2.2743  0.2393
12558TIP3   OH259088   3.317   0.487  14.933 -0.0747  0.4673 -0.4884
12558TIP3    H159089   3.232   0.529  14.944 -0.1038  0.2734  0.0429
12558TIP3    H259090   3.325   0.428  15.008  0.8742  1.0911 -0.0822
12559TIP3   OH259091   6.074   6.242   3.328 -0.0612 -0.5098 -0.4421
12559TIP3    H159092   6.094   6.196   3.410  0.2630  0.1490 -0.1434
12559TIP3    H259093   6.145   6.305   3.318 -1.1328  0.7775 -0.2004
12560TIP3   OH259094   0.855   2.757   6.011 -0.3414  0.2718  0.1664
12560TIP3    H159095   0.795   2.682   6.003 -1.8595  1.4369  0.2233
12560TIP3    H259096   0.923   2.726   6.071 -0.5445 -1.2974 -0.3535
12561TIP3   OH259097   5.930   2.130   2.825  0.0943 -0.2662  0.5450
12561TIP3    H159098   5.997   2.126   2.757  0.2741 -0.3444  0.7248
12561TIP3    H259099   5.910   2.224   2.834 -0.1036 -0.2760  0.2181
12562TIP3   OH259100   0.516   4.936  13.928  0.0173  0.0324  0.0642
12562TIP3    H159101   0.542   4.986  13.850 -1.7805  0.2953 -0.4157
12562TIP3    H259102   0.587   4.874  13.942  1.3988  1.4323 -0.4846
12563TIP3   OH259103   6.337   0.843  11.693  0.0094  0.1071 -0.3968
12563TIP3    H159104   6.404   0.787  11.732 -0.8041 -0.7427 -0.1990
12563TIP3    H259105   6.272   0.782  11.658 -1.0144  0.9234  0.0383
12564TIP3   OH259106   0.539   3.921   4.231 -0.4316 -0.3284  0.1217
12564TIP3    H159107   0.606   3.959   4.288 -1.3074  1.4827  0.0303
12564TIP3    H259108   0.479   3.876   4.290  0.5299 -1.4535  0.2590
12565TIP3   OH259109   6.529   3.161  13.058  0.4640 -0.1137  0.1318
12565TIP3    H159110   6.546   3.083  13.005  0.0560 -0.3967  0.4084
12565TIP3    H259111   6.441   3.147  13.093  1.1304 -0.4441  1.7445
12566TIP3   OH259112   1.408   3.107  12.202 -0.3920 -0.6223 -0.2774
12566TIP3    H159113   1.496   3.101  12.165 -0.2297 -0.9433  0.1505
12566TIP3    H259114   1.350   3.088  12.129 -0.1004 -0.5961 -0.5195
12567TIP3   OH259115   5.626   2.755   0.951  0.2062 -0.0444  0.3436
12567TIP3    H159116   5.622   2.699   0.873  1.5719 -1.7143  1.4188
12567TIP3    H259117   5.664   2.837   0.918  1.0374 -0.8153 -0.7170
12568TIP3   OH259118   0.093   4.890  16.380 -0.4799  0.1443  0.1090
12568TIP3    H159119   0.033   4.944  16.329 -2.5371  0.3137  2.4974
12568TIP3    H259120   0.045   4.808  16.394  0.1947 -0.0530  1.3769
12569TIP3   OH259121   5.899   6.191   4.185 -0.3450 -0.4905 -0.3898
12569TIP3    H159122   5.920   6.098   4.171 -0.8733 -0.5052 -1.1449
12569TIP3    H259123   5.837   6.212   4.115 -0.6601  0.2880  0.1159
12570TIP3   OH259124   1.947   6.389   5.925 -0.4570 -0.1671  0.1813
12570TIP3    H159125   2.009   6.460   5.943 -0.3071 -0.4652  0.8414
12570TIP3    H259126   1.884   6.428   5.863 -1.5837  1.2165  2.0870
12571TIP3   OH259127   4.196   3.281   1.012 -0.3390 -0.5425 -0.2322
12571TIP3    H159128   4.139   3.250   0.943 -0.0421 -0.4750 -0.5104
12571TIP3    H259129   4.178   3.375   1.018 -1.6989 -0.8503  1.0418
12572TIP3   OH259130   5.263   0.965   5.147 -0.7347  0.0260 -0.0588
12572TIP3    H159131   5.355   0.937   5.150 -1.0684 -0.9870  2.4374
12572TIP3    H259132   5.258   1.038   5.208 -1.4979  0.5112 -0.6760
12573TIP3   OH259133   6.238   2.561  15.327 -0.0205  0.1226  0.2475
12573TIP3    H159134   6.217   2.625  15.395  0.8029 -0.8620  1.4770
12573TIP3    H259135   6.179   2.488  15.344 -1.3950  0.7422 -1.5333
12574TIP3   OH259136   3.793   3.368   2.610 -0.0360  0.1183  0.1982
12574TIP3    H159137   3.871   3.342   2.658  0.8863  0.2682 -1.1673
12574TIP3    H259138   3.820   3.370   2.518 -1.1364  1.9968 -0.1471
12575TIP3   OH259139   6.430   3.645   6.258 -0.1344 -0.1023  0.0560
12575TIP3    H159140   6.469   3.687   6.181  0.5934 -1.6719 -0.4784
12575TIP3    H259141   6.337   3.667   6.253 -0.0906 -0.1342 -1.2524
12576TIP3   OH259142   5.982   2.691  13.528 -0.4821  0.1165 -0.2573
12576TIP3    H159143   5.996   2.676  13.622  1.6233  1.9989 -0.1974
12576TIP3    H259144   6.054   2.645  13.485  0.9990  2.5932 -0.6046
12577TIP3   OH259145   5.578   1.321  14.607  0.3301  0.1994  0.1310
12577TIP3    H159146   5.672   1.340  14.614  0.5122 -0.4271 -0.5445
12577TIP3    H259147   5.535   1.401  14.638  1.0839  0.8410 -0.4389
12578TIP3   OH259148   0.978   6.748   5.324 -0.0005  0.3048 -0.6180
12578TIP3    H159149   1.065   6.785   5.308  0.0158  0.1222 -0.9508
12578TIP3    H259150   0.934   6.814   5.378  1.0851 -0.5571  1.4572
12579TIP3   OH259151   6.592   0.650  11.152  0.0111 -0.3506  0.0642
12579TIP3    H159152   6.676   0.607  11.141  0.8108  1.0909  0.1919
12579TIP3    H259153   6.595   0.723  11.089 -1.9840 -1.4265 -1.3856
12580TIP3   OH259154   5.354   5.618   0.949  0.0810 -0.3867  0.0496
12580TIP3    H159155   5.347   5.551   0.881  0.8121 -2.0731  1.5713
12580TIP3    H259156   5.302   5.585   1.021  0.1983  0.8566  0.7296
12581TIP3   OH259157   2.385   4.356  16.104 -0.1301 -0.3257 -0.0903
12581TIP3    H159158   2.390   4.320  16.192  1.4296  0.3986  0.1356
12581TIP3    H259159   2.456   4.313  16.056 -0.0063  0.4020 -0.5725
12582TIP3   OH259160   1.475   3.563   6.057 -0.1119 -0.1079  0.2361
12582TIP3    H159161   1.385   3.580   6.027 -0.5056 -0.5971  1.0992
12582TIP3    H259162   1.483   3.468   6.053 -0.1369 -0.1765  1.5424
12583TIP3   OH259163   6.593   2.269   5.567 -0.0965  0.8457  0.3148
12583TIP3    H159164   6.632   2.206   5.506 -1.6385 -1.2949  1.3818
12583TIP3    H259165   6.660   2.282   5.633  0.0289 -0.2568  0.4366
12584TIP3   OH259166   4.199   0.038  12.003  0.0220 -0.2101  0.4868
12584TIP3    H159167   4.156   0.122  12.013 -0.5226 -0.2960 -0.8660
12584TIP3    H259168   4.181  -0.009  12.085  0.0993  0.8656  1.1344
12585TIP3   OH259169   4.399   5.127   1.527  0.0176  0.2397  0.5097
12585TIP3    H159170   4.326   5.107   1.585  0.0686  1.2087  0.9312
12585TIP3    H259171   4.359   5.140   1.441 -0.2535  0.3319  0.6486
12586TIP3   OH259172   3.442   4.728   2.900  0.0446 -0.7584 -0.5084
12586TIP3    H159173   3.497   4.655   2.871  0.9830 -0.2122 -0.1465
12586TIP3    H259174   3.504   4.797   2.923 -0.8101 -0.0235 -0.3483
12587TIP3   OH259175   0.285   3.652  17.065  0.4874 -0.0852 -0.0360
12587TIP3    H159176   0.337   3.717  17.019  0.8051 -0.8241 -0.7593
12587TIP3    H259177   0.348   3.605  17.119  0.3429 -0.0908  0.1277
12588TIP3   OH259178   1.603   4.280   2.349  0.1010 -0.5918 -0.7347
12588TIP3    H159179   1.677   4.296   2.407 -1.0827 -0.6953  0.8798
12588TIP3    H259180   1.583   4.187   2.361 -2.0554  0.0064  1.1606
12589TIP3   OH259181   0.017   1.886  15.072 -0.0122 -0.0608 -0.3804
12589TIP3    H159182  -0.023   1.969  15.045  0.4320  0.4605  0.5189
12589TIP3    H259183  -0.010   1.823  15.004 -0.3682  0.8078 -1.0655
12590TIP3   OH259184   4.210   5.758  17.294 -0.1950 -0.8671  0.5464
12590TIP3    H159185   4.218   5.853  17.292  0.2198 -0.9070 -0.8581
12590TIP3    H259186   4.287   5.729  17.343  2.0958 -0.6344 -2.6026
12591TIP3   OH259187   5.198   6.222   4.568 -0.0847  0.7630  0.3337
12591TIP3    H159188   5.178   6.188   4.655 -0.7348 -0.6043 -0.3210
12591TIP3    H259189   5.113   6.236   4.527  0.2135  0.1402 -0.5297
12592TIP3   OH259190   1.519   0.422  16.801 -0.2154 -0.1704 -0.1825
12592TIP3    H159191   1.489   0.503  16.842  0.1991 -0.0776 -0.0534
12592TIP3    H259192   1.483   0.352  16.855  0.4839 -0.0464  0.4562
12593TIP3   OH259193   1.391   5.883   4.926  0.0299 -0.0514 -0.1722
12593TIP3    H159194   1.302   5.895   4.892  0.0706  0.1190 -0.2215
12593TIP3    H259195   1.391   5.926   5.011 -0.1937 -0.8522  0.2452
12594TIP3   OH259196   5.071   2.665  15.244  0.3925 -0.3055  0.0055
12594TIP3    H159197   5.046   2.715  15.166  1.5545  2.5186  1.3153
12594TIP3    H259198   5.008   2.693  15.311 -0.0715 -2.0610  0.3530
12595TIP3   OH259199   5.125   0.853   0.832 -0.2220  0.0622 -0.2362
12595TIP3    H159200   5.196   0.834   0.771 -0.6660 -1.7645 -0.2174
12595TIP3    H259201   5.153   0.933   0.877  1.0985  0.2265 -1.2954
12596TIP3   OH259202   2.914   4.009  16.210 -0.3078  0.5666  0.2121
12596TIP3    H159203   2.938   3.980  16.122 -0.0996  0.6134  0.2537
12596TIP3    H259204   2.914   3.928  16.262 -0.2308  0.5679  0.2146
12597TIP3   OH259205   4.995   3.747   2.366 -0.4844  0.3603  0.1198
12597TIP3    H159206   4.963   3.660   2.391 -1.5831  0.5020 -0.7386
12597TIP3    H259207   5.074   3.730   2.315 -1.5281 -0.2455 -1.3541
12598TIP3   OH259208   6.202   1.487   1.187 -0.8648  0.3713 -0.1746
12598TIP3    H159209   6.131   1.519   1.130 -1.5583 -0.9070 -0.0659
12598TIP3    H259210   6.192   1.538   1.267  0.0613  2.1297 -1.1061
12599TIP3   OH259211   6.339   6.217   5.288 -0.3926  0.7962 -0.2057
12599TIP3    H159212   6.250   6.195   5.314  0.3996 -1.1782  1.1151
12599TIP3    H259213   6.350   6.179   5.201 -0.8926  1.2534 -0.4731
12600TIP3   OH259214   5.235   1.794   3.960  0.4712  0.5455  0.7820
12600TIP3    H159215   5.225   1.736   3.884 -1.2477  1.2588  0.4253
12600TIP3    H259216   5.295   1.862   3.930 -0.0507  0.7200  0.1050
12601TIP3   OH259217   2.635   0.060   4.665 -0.7477 -0.1368  0.2828
12601TIP3    H159218   2.564   0.016   4.618 -0.4136 -0.3577 -0.0122
12601TIP3    H259219   2.640   0.147   4.624 -1.2505  0.0978  0.7096
12602TIP3   OH259220   1.322   2.347  14.490 -0.0484 -0.2403 -0.1986
12602TIP3    H159221   1.273   2.268  14.470  0.1962 -0.3392 -0.4158
12602TIP3    H259222   1.367   2.328  14.572 -1.1774  0.2231  0.5495
12603TIP3   OH259223   3.246   2.272  11.634 -0.0070 -0.3076 -0.2427
12603TIP3    H159224   3.229   2.185  11.598  1.7354  0.0296 -2.0988
12603TIP3    H259225   3.160   2.306  11.658 -1.0428 -1.4983 -2.0699
12604TIP3   OH259226   4.156   0.657  12.635 -1.2146  0.5379  0.0380
12604TIP3    H159227   4.115   0.677  12.552  0.5478  0.2744 -0.9531
12604TIP3    H259228   4.088   0.672  12.701 -2.7909  0.2580 -1.4786
12605TIP3   OH259229   5.433   1.425  16.453  0.4841 -0.3127  0.0172
12605TIP3    H159230   5.498   1.394  16.390  1.0486  0.5821  0.1321
12605TIP3    H259231   5.353   1.435  16.402  0.4355 -1.3888 -0.1353
12606TIP3   OH259232   6.395   4.634   4.169 -0.2807  0.1542  0.5602
12606TIP3    H159233   6.448   4.712   4.153  0.9710 -0.5676  1.0037
12606TIP3    H259234   6.313   4.651   4.123  0.4741  1.1558 -0.4845
12607TIP3   OH259235   6.617   4.987  14.054 -0.4802 -0.2867  0.1451
12607TIP3    H159236   6.608   5.080  14.034  0.6778  0.0626  1.0813
12607TIP3    H259237   6.677   4.985  14.128  0.3490 -1.8374 -0.5196
12608TIP3   OH259238   0.348   5.595   0.830 -0.1123  0.2984  0.6038
12608TIP3    H159239   0.304   5.564   0.751 -0.4117  1.7751  0.1697
12608TIP3    H259240   0.440   5.603   0.805  0.1755 -1.2092  1.0393
12609TIP3   OH259241   5.047   6.198   6.842  0.0945 -0.2826 -0.1557
12609TIP3    H159242   5.110   6.260   6.804  0.1707 -0.0334  0.3658
12609TIP3    H259243   5.054   6.120   6.787 -0.2699  0.2974 -1.0507
12610TIP3   OH259244   0.364   3.318   4.215  0.0886  0.5075 -0.1325
12610TIP3    H159245   0.391   3.318   4.123 -0.0684  0.1010 -0.1804
12610TIP3    H259246   0.354   3.411   4.237 -0.6486  0.5873 -0.7601
12611TIP3   OH259247   5.719   5.400   1.902 -0.3858  0.4269 -0.2536
12611TIP3    H159248   5.736   5.320   1.851 -0.1021  0.6352 -0.4947
12611TIP3    H259249   5.798   5.411   1.955 -0.5248  0.4179 -0.0460
12612TIP3   OH259250   5.279   0.456  15.616  0.3088  0.1490 -0.5414
12612TIP3    H159251   5.230   0.384  15.576  0.3611 -0.3629  0.2932
12612TIP3    H259252   5.215   0.528  15.622 -0.0215 -0.1447 -0.4887
12613TIP3   OH259253   2.124   0.304  12.459  0.1104 -0.2056 -0.1056
12613TIP3    H159254   2.100   0.307  12.552 -1.7500  0.2227 -0.5605
12613TIP3    H259255   2.212   0.266  12.458 -0.0994 -0.8264  1.7742
12614TIP3   OH259256   1.972   5.047  14.058  0.3100  0.3730 -0.2054
12614TIP3    H159257   1.999   4.974  14.113 -0.2496  1.0517  1.0112
12614TIP3    H259258   2.051   5.099  14.045  0.3695  0.3939  0.2524
12615TIP3   OH259259   5.157   6.666   3.122  0.1011 -0.2516  0.3831
12615TIP3    H159260   5.062   6.656   3.122  0.2043 -1.6664 -0.9344
12615TIP3    H259261   5.178   6.695   3.211 -1.5895  0.6410  0.5319
12616TIP3   OH259262   4.644   0.318  16.368 -0.1495  0.5964  0.1720
12616TIP3    H159263   4.709   0.387  16.376  0.7027 -0.2502  0.7711
12616TIP3    H259264   4.684   0.242  16.410 -0.8333 -0.4278 -0.9703
12617TIP3   OH259265   5.164   1.079  12.828  0.4805  0.9310  0.8260
12617TIP3    H159266   5.161   0.984  12.840  0.6831  0.9214  0.8016
12617TIP3    H259267   5.077   1.102  12.794 -0.0568  0.9336  2.1495
12618TIP3   OH259268   1.891   5.014   4.546  0.6009 -0.2872  0.2513
12618TIP3    H159269   1.935   5.087   4.590 -0.9530  0.4802  0.6148
12618TIP3    H259270   1.880   4.948   4.615  2.6957 -1.2322 -0.2617
12619TIP3   OH259271   4.888   0.031   3.834 -0.1405 -0.1251 -0.6282
12619TIP3    H159272   4.870   0.124   3.849 -1.3879 -0.5898  1.0913
12619TIP3    H259273   4.961   0.011   3.892  0.6141 -0.0885 -1.5366
12620TIP3   OH259274   6.263   6.472  13.556 -0.2650 -0.2588  0.5566
12620TIP3    H159275   6.358   6.460  13.559  0.0220  1.7356  1.5948
12620TIP3    H259276   6.230   6.423  13.631 -0.0647 -1.0122  0.1551
12621TIP3   OH259277   1.908   5.139   6.846 -0.3693 -0.8630 -0.3189
12621TIP3    H159278   1.951   5.206   6.900 -0.8625 -0.0367 -0.9229
12621TIP3    H259279   1.980   5.087   6.812  0.1569  0.2639 -1.0025
12622TIP3   OH259280   1.000   4.274  11.810  0.3739  0.0710  0.0900
12622TIP3    H159281   0.924   4.317  11.847  0.6234  0.2192  0.4343
12622TIP3    H259282   1.027   4.211  11.877  1.2441  0.8260  0.4719
12623TIP3   OH259283   3.734   1.736  12.289 -0.2284 -0.0208 -0.3450
12623TIP3    H159284   3.644   1.724  12.260 -0.2497 -0.5669 -0.0626
12623TIP3    H259285   3.771   1.798  12.226 -0.9511  0.6243 -0.1433
12624TIP3   OH259286   2.865   2.641  12.425  0.1794  0.4438  0.9497
12624TIP3    H159287   2.898   2.726  12.455  1.6987 -0.8918  3.3585
12624TIP3    H259288   2.935   2.607  12.369  1.2691 -0.6808  2.8791
12625TIP3   OH259289   4.278   1.994  16.616 -0.3767  0.3581  0.2563
12625TIP3    H159290   4.234   1.934  16.556 -2.6166  1.3976  0.7664
12625TIP3    H259291   4.250   2.081  16.587  0.2926  0.9969  1.4531
12626TIP3   OH259292   4.038   0.557   1.822 -0.1399  0.3236  0.4023
12626TIP3    H159293   4.018   0.636   1.872 -0.0432 -0.2476  1.3572
12626TIP3    H259294   3.991   0.569   1.739 -0.5155  1.1614  0.7240
12627TIP3   OH259295   2.614   3.918  11.870  0.3797  0.2008  0.5403
12627TIP3    H159296   2.664   3.971  11.933  0.4436 -0.6419  1.2083
12627TIP3    H259297   2.673   3.846  11.847 -0.1290 -0.1983  0.4912
12628TIP3   OH259298   0.578   4.987  11.796  0.4325  0.1406 -1.2001
12628TIP3    H159299   0.594   5.081  11.794  0.2038  0.1669 -2.2496
12628TIP3    H259300   0.537   4.967  11.712  1.7555 -1.1195 -1.5950
12629TIP3   OH259301   3.886   2.101  16.174 -0.0559 -0.2931  0.6489
12629TIP3    H159302   3.830   2.024  16.177 -0.7459  0.2278  1.8696
12629TIP3    H259303   3.950   2.081  16.106 -0.8682 -1.4830  0.1915
12630TIP3   OH259304   4.962   6.538   3.370 -0.8978  0.2124  0.0146
12630TIP3    H159305   4.933   6.575   3.286 -0.2776  2.6370  0.8128
12630TIP3    H259306   4.913   6.587   3.436  0.2880 -0.0965  1.1564
12631TIP3   OH259307   1.145   5.891  17.007 -0.0938 -0.2160 -0.8073
12631TIP3    H159308   1.168   5.809  17.051 -1.9930  0.1989  1.1321
12631TIP3    H259309   1.188   5.959  17.059 -0.4584  0.1434 -0.9695
12632TIP3   OH259310   0.688   5.828  11.138  0.1341  0.1094  0.2300
12632TIP3    H159311   0.716   5.766  11.206 -3.4230 -2.1301 -0.0710
12632TIP3    H259312   0.657   5.904  11.187  2.3290  0.7735  0.7260
12633TIP3   OH259313   1.942   2.256   5.705  0.2107 -0.4431  0.1416
12633TIP3    H159314   1.980   2.246   5.793  0.7127 -2.4238 -0.2417
12633TIP3    H259315   1.997   2.323   5.663  0.9980 -0.6496  0.8061
12634TIP3   OH259316   5.148   4.813   2.467 -0.3152 -0.1180 -0.6034
12634TIP3    H159317   5.088   4.775   2.531  0.0559  1.8463  1.0244
12634TIP3    H259318   5.231   4.768   2.482 -0.4368 -0.2312 -0.2503
12635TIP3   OH259319   1.720   6.016  17.165  0.3748 -0.2954 -0.2003
12635TIP3    H159320   1.678   5.943  17.119 -0.0838 -0.1491 -0.0126
12635TIP3    H259321   1.665   6.032  17.241  1.1367 -0.5440  0.4269
12636TIP3   OH259322   3.613   1.650   5.097 -0.3215  0.1342 -0.2556
12636TIP3    H159323   3.551   1.590   5.054 -1.4085  1.8627 -1.2088
12636TIP3    H259324   3.699   1.618   5.071 -0.6311 -3.1925  2.2341
12637TIP3   OH259325   0.233   2.703   6.141 -0.9040 -0.4059 -0.5120
12637TIP3    H159326   0.240   2.794   6.113 -0.0471  0.2946  1.7690
12637TIP3    H259327   0.140   2.682   6.131 -0.8770  0.1745 -2.4994
12638TIP3   OH259328   1.930   5.417  14.954  0.7222  0.0504  0.1463
12638TIP3    H159329   1.890   5.501  14.931 -0.2761 -0.5833 -0.5284
12638TIP3    H259330   2.006   5.440  15.007 -0.0447  1.3374  0.7355
12639TIP3   OH259331   5.015   1.829   3.360 -0.1935 -0.4577 -0.4388
12639TIP3    H159332   4.991   1.826   3.267 -0.1315 -0.2083 -0.4644
12639TIP3    H259333   4.939   1.793   3.405 -0.4452 -0.0751 -0.5509
12640TIP3   OH259334   6.503   4.435  13.790  0.1676 -0.3062  0.3179
12640TIP3    H159335   6.420   4.402  13.825  0.9368 -2.5415  0.2022
12640TIP3    H259336   6.478   4.486  13.713 -1.0880 -2.2838 -0.6950
12641TIP3   OH259337   6.115   0.416   5.601 -0.0954  0.8855  0.1233
12641TIP3    H159338   6.151   0.455   5.680  1.6122  1.4082 -0.8566
12641TIP3    H259339   6.154   0.329   5.597 -0.4209  0.7433  0.0150
12642TIP3   OH259340   2.134   0.872   1.362 -0.1570 -0.1187  0.3062
12642TIP3    H159341   2.057   0.912   1.322  0.4839  0.3875 -0.4658
12642TIP3    H259342   2.151   0.925   1.440  0.9332  1.4612 -0.9310
12643TIP3   OH259343   5.481   4.515  15.884  0.0025 -0.0562  0.3695
12643TIP3    H159344   5.400   4.466  15.868  1.9397 -2.6482 -2.7586
12643TIP3    H259345   5.533   4.458  15.941  0.3932  0.6697  0.7510
12644TIP3   OH259346   0.503   2.303   5.656  0.2866  0.3361  0.3862
12644TIP3    H159347   0.437   2.353   5.609 -1.6658 -3.3508 -1.2471
12644TIP3    H259348   0.584   2.320   5.609 -0.5860  0.8846 -0.9778
12645TIP3   OH259349   6.101   3.561  12.990  0.1199 -0.6412 -0.0139
12645TIP3    H159350   6.050   3.620  13.045  1.3344 -0.8445  1.4073
12645TIP3    H259351   6.083   3.590  12.901  0.9602  2.1756  0.6207
12646TIP3   OH259352   1.238   4.610  15.475  0.5433  0.6655 -0.6673
12646TIP3    H159353   1.252   4.515  15.483 -0.6466  0.5618  0.6295
12646TIP3    H259354   1.294   4.648  15.543  0.7586  0.8659 -0.9565
12647TIP3   OH259355   3.976   0.062  15.865 -0.2408  0.7994 -0.1982
12647TIP3    H159356   3.889   0.021  15.863 -0.0402  0.1469  2.0210
12647TIP3    H259357   4.033  -0.000  15.821 -0.4283 -0.0640  0.7529
12648TIP3   OH259358   2.735   5.294   6.204 -0.3980  0.4535  0.4752
12648TIP3    H159359   2.799   5.362   6.186 -0.1069  0.4523  1.4587
12648TIP3    H259360   2.720   5.252   6.119  0.5916  0.7185  0.1577
12649TIP3   OH259361   2.030   4.877  16.843  0.2154  0.8139  0.3178
12649TIP3    H159362   1.960   4.873  16.908  0.6864  0.2835  0.8050
12649TIP3    H259363   2.004   4.947  16.783 -1.2373 -0.0671 -0.1158
12650TIP3   OH259364   6.098   4.865   5.896 -0.2113  0.5723 -0.2321
12650TIP3    H159365   6.070   4.784   5.940 -0.4352  1.0960  0.6084
12650TIP3    H259366   6.017   4.914   5.882 -0.1745  0.2883 -1.5080
12651TIP3   OH259367   4.631   4.979  13.372  0.5528  0.4782  0.2695
12651TIP3    H159368   4.579   4.993  13.293  0.6133 -0.9083 -0.0519
12651TIP3    H259369   4.588   4.904  13.415  0.4328  1.3035  1.6300
12652TIP3   OH259370   2.982   0.616  16.873  0.5751  0.0490 -0.2651
12652TIP3    H159371   2.938   0.572  16.800  0.3861 -1.2706  0.6074
12652TIP3    H259372   2.990   0.707  16.845 -0.0298 -0.3056 -1.6777
12653TIP3   OH259373   6.393   6.336  12.054  0.2902  0.5569 -0.2519
12653TIP3    H159374   6.298   6.341  12.044  0.3908 -0.1526 -2.0947
12653TIP3    H259375   6.418   6.419  12.093 -0.9886  1.2702 -0.8930
12654TIP3   OH259376   2.655   6.163  12.456  0.4569 -0.0290  0.0933
12654TIP3    H159377   2.612   6.197  12.534  0.1044 -2.9388  1.3281
12654TIP3    H259378   2.742   6.203  12.455  0.7898 -0.5834  2.5168
12655TIP3   OH259379   5.444   4.766   4.512  0.1335  0.1315  0.3015
12655TIP3    H159380   5.360   4.781   4.555  0.4972 -1.4747  1.6463
12655TIP3    H259381   5.493   4.710   4.572  1.1775 -1.1057 -1.6058
12656TIP3   OH259382   6.248   0.974   4.545 -0.0527  0.3236 -0.2143
12656TIP3    H159383   6.303   1.052   4.540  0.1531  0.3244  1.5623
12656TIP3    H259384   6.207   0.978   4.632  0.9552 -2.1700  0.4583
12657TIP3   OH259385   5.256   4.165  10.754  0.4495  0.5242 -0.2012
12657TIP3    H159386   5.176   4.116  10.738  0.1638  1.1715 -0.8166
12657TIP3    H259387   5.268   4.219  10.676  1.7090  0.1464 -0.2976
12658TIP3   OH259388   0.250   1.679  13.572 -0.6036 -0.5731  0.3315
12658TIP3    H159389   0.314   1.706  13.506 -1.2123  1.3705  0.4715
12658TIP3    H259390   0.300   1.626  13.634  0.4323 -0.6986 -0.5735
12659TIP3   OH259391   3.693   4.247   1.854  0.0770 -0.2195 -0.0114
12659TIP3    H159392   3.697   4.343   1.860  0.6267 -0.1708 -0.9540
12659TIP3    H259393   3.624   4.230   1.789  0.2390 -0.4481 -0.1249
12660TIP3   OH259394   5.959   1.484  13.902  0.0526  0.2194  0.3573
12660TIP3    H159395   5.971   1.563  13.850 -1.4472  1.0954  1.2599
12660TIP3    H259396   5.981   1.413  13.843 -0.9901  1.1974 -1.3065
12661TIP3   OH259397   1.246   3.919   5.650  0.6207  0.5089 -0.9002
12661TIP3    H159398   1.245   3.827   5.624 -1.3586  0.5325 -1.0196
12661TIP3    H259399   1.250   3.916   5.746 -1.2896  0.2286 -0.7982
12662TIP3   OH259400   4.918   5.999   2.110  0.1719  0.6090 -0.3686
12662TIP3    H159401   4.833   6.000   2.064 -1.8584  3.0585  2.9839
12662TIP3    H259402   4.899   5.957   2.194  2.2227  1.3856  0.5402
12663TIP3   OH259403   6.093   3.057  17.090 -0.8546  0.1812 -0.4467
12663TIP3    H159404   6.180   3.017  17.080 -0.3574  1.2962 -0.7717
12663TIP3    H259405   6.052   3.047  17.005 -0.1961  1.5292 -0.9546
12664TIP3   OH259406   2.121   2.934  11.269 -0.1404  0.1660 -0.2533
12664TIP3    H159407   2.090   3.025  11.274  2.0093  0.9580 -0.2280
12664TIP3    H259408   2.082   2.891  11.345  0.0130  1.4893  0.5999
12665TIP3   OH259409   4.019   5.890  11.638  0.5579 -0.5835 -0.3311
12665TIP3    H159410   4.012   5.803  11.678  2.5786 -1.1684 -1.1248
12665TIP3    H259411   4.087   5.880  11.572  0.5203  1.5246 -0.7352
12666TIP3   OH259412   6.022   0.169  14.595 -0.6183  0.4299  0.7228
12666TIP3    H159413   6.106   0.204  14.627 -0.8646  1.3306  0.4215
12666TIP3    H259414   5.956   0.217  14.645 -0.9690  0.4773  0.2164
12667TIP3   OH259415   4.348   6.601  12.872  0.2508 -0.1197 -0.0671
12667TIP3    H159416   4.414   6.534  12.855  2.3843  1.2725  1.8809
12667TIP3    H259417   4.307   6.618  12.788  1.6427 -1.8340 -1.1514
12668TIP3   OH259418   3.159   3.322  12.128  0.3171 -0.1228  0.7123
12668TIP3    H159419   3.075   3.283  12.152  0.9229 -0.4291  2.4591
12668TIP3    H259420   3.169   3.396  12.187  0.9989  0.2844  0.0989
12669TIP3   OH259421   1.819   5.419   2.220  0.1926  0.2141 -0.2843
12669TIP3    H159422   1.851   5.508   2.236  0.1313  0.1433  0.2241
12669TIP3    H259423   1.728   5.430   2.193  0.2901  0.3295 -0.5705
12670TIP3   OH259424   5.088   4.872   1.204 -0.2424  0.3966  0.5067
12670TIP3    H159425   5.155   4.834   1.147  0.7143  2.6669  0.0050
12670TIP3    H259426   5.107   4.835   1.291 -0.3500 -1.4198 -0.2113
12671TIP3   OH259427   5.840   1.099  16.740  0.2460  0.0489  0.0642
12671TIP3    H159428   5.889   1.137  16.813  1.3373  0.7793 -1.0049
12671TIP3    H259429   5.804   1.018  16.775  0.6613  0.4328  1.4374
12672TIP3   OH259430   2.647   6.599  15.582  0.0173  0.7866 -0.2312
12672TIP3    H159431   2.592   6.536  15.536  0.2499  0.3903  0.0226
12672TIP3    H259432   2.727   6.550  15.604  0.5432  1.4011 -0.7398
12673TIP3   OH259433   6.707   2.854   6.532  0.3433 -0.0201 -0.2271
12673TIP3    H159434   6.617   2.886   6.534  0.3737  0.0480  0.1277
12673TIP3    H259435   6.739   2.875   6.444  0.1903  0.4392 -0.1728
12674TIP3   OH259436   5.371   0.907   5.754  0.0170  0.4221 -0.4836
12674TIP3    H159437   5.451   0.863   5.782 -0.6896 -0.3200  0.4528
12674TIP3    H259438   5.359   0.879   5.663  0.5077  0.0745 -0.4484
12675TIP3   OH259439   3.620   1.899  13.556 -0.2581  0.5458 -0.0933
12675TIP3    H159440   3.556   1.887  13.627 -0.8202  2.3188 -0.2520
12675TIP3    H259441   3.567   1.927  13.482  0.1532 -2.4082 -1.6607
12676TIP3   OH259442   1.631   0.620   6.032 -0.0496  0.6438 -0.5323
12676TIP3    H159443   1.713   0.652   6.072 -0.1133  0.4458 -0.2391
12676TIP3    H259444   1.618   0.533   6.070  0.2286  0.1718 -1.4766
12677TIP3   OH259445   6.118   5.505   2.329  0.2714 -0.8325 -0.3643
12677TIP3    H159446   6.135   5.551   2.246 -1.3144  2.0045  0.7334
12677TIP3    H259447   6.198   5.518   2.380  0.1983 -0.0668 -0.4281
12678TIP3   OH259448   5.964   2.991  12.818 -0.5295  0.0669 -0.5911
12678TIP3    H159449   6.017   2.916  12.844 -1.8455 -0.5792  0.3071
12678TIP3    H259450   5.905   2.957  12.750 -2.5301 -0.3022  1.2310
12679TIP3   OH259451   4.871   3.941  15.287 -0.3054 -0.1843 -0.3982
12679TIP3    H159452   4.961   3.922  15.315  0.3063 -1.2655 -2.8281
12679TIP3    H259453   4.879   4.020  15.234 -0.7473 -0.3369 -0.6978
12680TIP3   OH259454   2.834   0.571  16.385 -0.2494  0.0575 -0.5660
12680TIP3    H159455   2.893   0.646  16.392 -0.2123 -0.1304  2.2667
12680TIP3    H259456   2.747   0.609  16.387 -0.2525  0.1561 -1.8788
12681TIP3   OH259457   3.846   5.473   7.068 -0.3672  0.0438 -0.4155
12681TIP3    H159458   3.920   5.420   7.097  0.0075  1.2257  0.9425
12681TIP3    H259459   3.772   5.413   7.066  0.1555 -0.6585  0.5320
12682TIP3   OH259460   6.384   2.623  17.295  0.8541  0.2932  0.7487
12682TIP3    H159461   6.298   2.598  17.261  1.5110  1.1366 -1.7218
12682TIP3    H259462   6.365   2.660  17.382 -0.9615 -1.5643  1.2304
12683TIP3   OH259463   0.963   6.054   4.688 -0.0949  0.0632  0.2214
12683TIP3    H159464   0.884   5.999   4.684 -0.6517  0.6763  1.8859
12683TIP3    H259465   1.023   6.014   4.625 -1.7375 -0.3929 -1.1496
12684TIP3   OH259466   4.845   2.930  15.200  0.1411 -0.5219  0.0774
12684TIP3    H159467   4.752   2.946  15.182  0.2133 -1.6789 -1.5953
12684TIP3    H259468   4.862   2.844  15.161  2.0902 -0.0092 -0.2954
12685TIP3   OH259469   2.479   2.279   0.821 -0.1839  0.0337 -0.1798
12685TIP3    H159470   2.445   2.207   0.873 -1.7722  0.7721 -0.1390
12685TIP3    H259471   2.525   2.335   0.884 -0.0839 -0.2662  0.0139
12686TIP3   OH259472   6.120   2.876  16.634 -0.3087  0.0022 -0.7002
12686TIP3    H159473   6.034   2.835  16.641  0.5890 -1.7660  1.4792
12686TIP3    H259474   6.160   2.836  16.557 -0.3298 -1.5474  0.0571
12687TIP3   OH259475   5.822   1.539   6.000 -0.1706 -0.5585  0.5346
12687TIP3    H159476   5.729   1.520   5.985 -0.6182 -0.4011  2.6647
12687TIP3    H259477   5.852   1.469   6.058  0.8640 -0.2491  0.3922
12688TIP3   OH259478   3.532   4.867  16.321 -0.0662  0.0085  0.8591
12688TIP3    H159479   3.627   4.877  16.330  0.1313 -2.5307  2.4178
12688TIP3    H259480   3.497   4.897  16.406 -0.6474  0.6186  0.4148
12689TIP3   OH259481   1.302   4.334   5.517  0.0558  0.1529  0.4021
12689TIP3    H159482   1.361   4.323   5.442  1.3255 -0.2718  1.4244
12689TIP3    H259483   1.355   4.381   5.581 -1.3127  1.3497  0.7167
12690TIP3   OH259484   0.030   6.247  12.291  0.2654 -0.3696  0.3047
12690TIP3    H159485   0.089   6.240  12.366  1.3496  1.3835 -0.3134
12690TIP3    H259486   0.085   6.282  12.220 -1.0437 -0.6775 -0.9054
12691TIP3   OH259487   6.275   3.811   5.578  0.6008 -0.2877 -0.2940
12691TIP3    H159488   6.268   3.717   5.563  1.1734 -0.2435 -0.8946
12691TIP3    H259489   6.197   3.833   5.629  1.0158 -1.2647  0.8105
12692TIP3   OH259490   6.120   5.099   2.888  0.0102  0.0646 -0.5161
12692TIP3    H159491   6.170   5.090   2.970  1.6354 -2.3943 -1.6300
12692TIP3    H259492   6.122   5.192   2.868  0.3230  0.6111  1.7787
12693TIP3   OH259493   2.475   5.748  14.487  0.4826  0.2251  0.7620
12693TIP3    H159494   2.393   5.797  14.476 -1.1124 -2.4529 -0.1391
12693TIP3    H259495   2.513   5.745  14.400  0.4141 -0.3641  0.7485
12694TIP3   OH259496   3.564   1.248   4.369 -0.5041  0.0904  0.2068
12694TIP3    H159497   3.639   1.209   4.325 -0.9032 -1.7460  1.0846
12694TIP3    H259498   3.559   1.337   4.332  1.3313 -0.1508 -0.7563
12695TIP3   OH259499   5.170   4.105  13.926  0.7081 -0.3044  0.1096
12695TIP3    H159500   5.140   4.177  13.871  0.2587 -0.8303 -0.3584
12695TIP3    H259501   5.207   4.042  13.864  0.9170 -0.5569  0.4900
12696TIP3   OH259502   4.262   0.749  16.545  0.0808 -0.1202  0.0407
12696TIP3    H159503   4.284   0.666  16.503 -1.4196  0.5847 -2.3802
12696TIP3    H259504   4.177   0.732  16.586 -0.5552  0.3453 -1.0383
12697TIP3   OH259505   5.235   4.613   3.061  0.1459 -0.7775 -0.1364
12697TIP3    H159506   5.251   4.630   3.154  2.8013  0.3105 -0.6865
12697TIP3    H259507   5.167   4.676   3.037  0.9441  0.4397  0.6526
12698TIP3   OH259508   6.042   6.341   5.885  0.0523 -0.5903  0.3757
12698TIP3    H159509   5.968   6.312   5.940  0.3393 -0.2035  0.9763
12698TIP3    H259510   6.001   6.367   5.802 -0.4892 -0.3433  0.7139
12699TIP3   OH259511   5.175   1.349   4.789  0.0567  0.1830 -0.7875
12699TIP3    H159512   5.239   1.413   4.820 -1.1061  1.1086 -0.2251
12699TIP3    H259513   5.227   1.274   4.762  1.4906  1.5172 -1.8657
12700TIP3   OH259514   3.938   6.425  15.435  0.0605 -0.0684  0.2208
12700TIP3    H159515   3.908   6.499  15.382 -0.7298 -0.1932  0.4890
12700TIP3    H259516   4.003   6.381  15.380  0.0964  0.4676 -0.1788
12701TIP3   OH259517   5.911   4.771   3.267 -0.3176  0.1137  0.4324
12701TIP3    H159518   5.873   4.858   3.280 -1.2222 -0.4832  2.0035
12701TIP3    H259519   5.844   4.710   3.296  0.6681 -1.0966  0.2707
12702TIP3   OH259520   2.291   2.338  12.599 -0.0370 -0.8483 -0.1860
12702TIP3    H159521   2.317   2.400  12.531  0.2864 -0.6721  0.0967
12702TIP3    H259522   2.198   2.321  12.581 -1.1026  2.2420  1.6665
12703TIP3   OH259523   2.093   2.844  13.549  0.0265 -0.4422  0.2882
12703TIP3    H159524   2.139   2.788  13.612  1.8204  0.8848  0.2541
12703TIP3    H259525   2.081   2.788  13.472  1.6284 -0.8708  0.3145
12704TIP3   OH259526   5.881   2.969  16.185  0.4179  0.0880 -0.4759
12704TIP3    H159527   5.918   2.882  16.199 -0.3443 -0.1516  0.0571
12704TIP3    H259528   5.946   3.014  16.130  1.0105 -0.6680 -0.4007
12705TIP3   OH259529   5.872   3.702   4.183 -0.3334  0.3302  0.4755
12705TIP3    H159530   5.839   3.636   4.122  2.6394  1.0722 -2.2325
12705TIP3    H259531   5.908   3.652   4.256 -1.2203 -0.8127  0.1510
12706TIP3   OH259532   2.638   4.144  13.907 -0.4354  0.0142  0.6683
12706TIP3    H159533   2.630   4.227  13.954 -0.9461 -0.0240  0.6475
12706TIP3    H259534   2.601   4.079  13.966 -1.1182 -0.0298  0.2019
12707TIP3   OH259535   1.868   3.846   6.009 -0.2713  0.3169  0.5297
12707TIP3    H159536   1.829   3.840   5.922  0.5910 -2.0580  0.2363
12707TIP3    H259537   1.922   3.767   6.017 -0.7449  0.1706  3.4154
12708TIP3   OH259538   3.938   2.401  11.896 -0.2525  0.6533 -0.4502
12708TIP3    H159539   3.853   2.377  11.859 -0.2521  0.2491 -0.1908
12708TIP3    H259540   3.981   2.450  11.826 -0.7273  0.9266 -0.5567
12709TIP3   OH259541   3.769   2.649  13.665 -0.3040 -0.0021  0.6013
12709TIP3    H159542   3.724   2.692  13.737 -1.0939 -0.4630  0.3956
12709TIP3    H259543   3.860   2.643  13.694 -0.0584  2.2356  0.4165
12710TIP3   OH259544   1.478   2.733   5.929  0.5601 -0.9666 -0.2249
12710TIP3    H159545   1.473   2.775   6.014 -0.9870  0.9108 -1.1656
12710TIP3    H259546   1.446   2.644   5.944 -0.7504 -0.3266  0.9511
12711TIP3   OH259547   0.001   1.116  11.543 -0.3008 -0.1922  0.3112
12711TIP3    H159548  -0.095   1.116  11.539 -0.2675  1.0013 -1.3937
12711TIP3    H259549   0.025   1.208  11.554  0.6809 -0.3727 -0.2438
12712TIP3   OH259550   2.897   0.610  14.367  0.3362 -0.1547 -0.0917
12712TIP3    H159551   2.988   0.599  14.395  0.0883 -4.1349 -0.2213
12712TIP3    H259552   2.896   0.581  14.276 -1.0600 -0.2319 -0.0755
12713TIP3   OH259553   4.172   5.432   1.423  0.0999  0.1361 -0.1178
12713TIP3    H159554   4.143   5.347   1.392  0.1864 -0.1470  0.5559
12713TIP3    H259555   4.094   5.473   1.460  0.0806  0.3072 -0.3446
12714TIP3   OH259556   4.315   6.148  14.655 -0.5925 -0.0258  0.7537
12714TIP3    H159557   4.404   6.180  14.670 -0.3225 -0.4055  0.0280
12714TIP3    H259558   4.276   6.141  14.742  0.7345 -1.7115  1.2513
12715TIP3   OH259559   2.407   1.163   4.689  0.3795 -0.0272  0.0796
12715TIP3    H159560   2.446   1.220   4.623  1.7511 -0.9071  0.0915
12715TIP3    H259561   2.392   1.219   4.765  0.7683  0.5349 -0.2568
12716TIP3   OH259562   1.812   0.733   0.425  0.1462  0.7389 -0.2546
12716TIP3    H159563   1.826   0.784   0.345 -0.1391  2.6477  0.8415
12716TIP3    H259564   1.886   0.756   0.481  0.4551 -0.7357 -0.0220
12717TIP3   OH259565   3.676   3.543  12.047  0.1586 -0.2621  0.3070
12717TIP3    H159566   3.688   3.617  12.107  0.0526 -0.1673  0.2118
12717TIP3    H259567   3.757   3.493  12.054 -0.4604 -1.1392  1.7411
12718TIP3   OH259568   0.762   3.870   3.712 -0.1320 -0.0717 -0.0823
12718TIP3    H159569   0.759   3.953   3.759  0.0274 -0.0621 -0.0896
12718TIP3    H259570   0.759   3.895   3.619 -1.6124 -0.1322 -0.0803
12719TIP3   OH259571   2.655   0.804   3.622 -0.4258 -0.2648 -0.0445
12719TIP3    H159572   2.748   0.803   3.599 -0.6828 -0.4677 -1.1244
12719TIP3    H259573   2.652   0.847   3.708  0.6280  0.0772 -0.1651
12720TIP3   OH259574   0.403   4.951   6.608 -0.0649  0.2247  0.1947
12720TIP3    H159575   0.313   4.976   6.590  0.4030  1.8291 -0.0261
12720TIP3    H259576   0.446   5.031   6.637  0.9740 -0.7947  1.6324
12721TIP3   OH259577   3.985   5.166   5.540 -0.4704  0.4444  0.3199
12721TIP3    H159578   3.907   5.188   5.591 -1.2358 -0.3546 -0.4739
12721TIP3    H259579   4.037   5.112   5.599 -1.0955 -0.0310  0.4510
12722TIP3   OH259580   4.853   4.069   5.264  0.3317 -0.5354 -0.0909
12722TIP3    H159581   4.810   4.137   5.316  1.9166  2.0001 -1.8801
12722TIP3    H259582   4.782   4.008   5.241 -1.4896  1.2720  0.4053
12723TIP3   OH259583   4.061   0.808   1.941  0.0123 -0.3721  0.4487
12723TIP3    H159584   4.008   0.855   2.004 -1.9999  0.1868 -1.5439
12723TIP3    H259585   4.067   0.866   1.865  0.8589 -1.7034 -0.5757
12724TIP3   OH259586   6.035   1.058   5.326 -0.5334  0.1135 -0.4365
12724TIP3    H159587   6.086   1.139   5.324 -0.4178  0.1423  1.7276
12724TIP3    H259588   5.972   1.070   5.397 -1.6481 -1.0647 -1.1639
12725TIP3   OH259589   6.372   4.531  11.665  0.4083 -0.2984 -0.2974
12725TIP3    H159590   6.308   4.491  11.605  1.5005 -1.8045 -0.5199
12725TIP3    H259591   6.440   4.464  11.675  1.1153  0.6046  1.2701
12726TIP3   OH259592   0.165   6.116   3.391  0.5477  0.0528 -0.1430
12726TIP3    H159593   0.258   6.097   3.390  0.3674 -1.4381  2.3036
12726TIP3    H259594   0.135   6.096   3.302  2.3234 -0.7375 -0.6096
12727TIP3   OH259595   4.709   1.788  15.977  0.0089  0.0435  0.2316
12727TIP3    H159596   4.744   1.876  15.992 -1.3970  0.7545 -0.4760
12727TIP3    H259597   4.619   1.802  15.947  0.0423 -1.6027 -0.7729
12728TIP3   OH259598   2.143   5.147  14.439  0.3942 -0.2439  0.1083
12728TIP3    H159599   2.060   5.135  14.393  1.1686  0.1257 -1.4605
12728TIP3    H259600   2.185   5.062  14.435 -0.1095 -0.5782  1.3840
12729TIP3   OH259601   3.948   0.380   4.479 -0.1265  0.3236  0.2935
12729TIP3    H159602   3.987   0.314   4.537 -2.1980 -1.2006  0.0633
12729TIP3    H259603   3.854   0.363   4.483 -0.4993  1.5453 -1.8899
12730TIP3   OH259604   3.228   5.167   2.777 -0.5739  0.2239  0.1975
12730TIP3    H159605   3.266   5.165   2.865  1.1266 -0.8135 -0.4974
12730TIP3    H259606   3.215   5.074   2.756  0.0838  0.4029 -1.0506
12731TIP3   OH259607   6.088   2.076  10.645  0.1167  0.0405 -0.2184
12731TIP3    H159608   6.174   2.047  10.677 -0.3279 -0.5076  0.5141
12731TIP3    H259609   6.031   2.000  10.655 -0.2409  0.0848 -1.6365
12732TIP3   OH259610   4.026   4.085   2.921  0.2142  0.3311  0.3508
12732TIP3    H159611   4.024   3.990   2.906  0.2583  0.6579 -1.9909
12732TIP3    H259612   3.934   4.111   2.921  0.2372  0.8229 -3.3398
12733TIP3   OH259613   4.853   1.102   1.117  0.3682 -0.6524 -0.5250
12733TIP3    H159614   4.792   1.136   1.052  0.9629  1.2848 -0.1153
12733TIP3    H259615   4.929   1.073   1.066 -0.3909 -2.0195 -0.9296
12734TIP3   OH259616   3.811   4.372  12.370 -0.5161 -0.2008 -0.2743
12734TIP3    H159617   3.858   4.452  12.395  1.6469 -1.6217  0.4685
12734TIP3    H259618   3.814   4.372  12.275 -1.3175  0.9824 -0.3366
12735TIP3   OH259619   5.436   5.697  14.527 -0.2222 -0.2389 -0.1024
12735TIP3    H159620   5.480   5.617  14.556 -1.5815 -1.0924 -0.2771
12735TIP3    H259621   5.378   5.668  14.457 -2.1330  0.5302  1.0746
12736TIP3   OH259622   4.859   5.000   6.343  0.0136  0.0241 -0.0206
12736TIP3    H159623   4.808   5.033   6.269 -1.7087  1.1795  1.5682
12736TIP3    H259624   4.949   5.029   6.326 -0.4153  0.5580 -1.4797
12737TIP3   OH259625   2.149   2.762   5.154 -0.1015 -0.2929  0.2941
12737TIP3    H159626   2.103   2.710   5.087  1.9260  0.5486 -1.9057
12737TIP3    H259627   2.095   2.840   5.165 -1.0907 -0.9993  0.5983
12738TIP3   OH259628   5.421   0.423  11.149  0.1509 -0.2777  0.3766
12738TIP3    H159629   5.436   0.345  11.094  2.2986  0.7068 -0.5513
12738TIP3    H259630   5.330   0.446  11.133 -0.3066 -2.1107  0.0455
12739TIP3   OH259631   6.187   2.024   3.716 -0.7257 -0.6305 -0.0423
12739TIP3    H159632   6.238   2.099   3.746 -0.2454 -0.7840 -0.4569
12739TIP3    H259633   6.140   1.995   3.793  0.7636 -1.2465  0.6695
12740TIP3   OH259634   1.655   6.053  13.417 -0.1230 -0.6236  0.2884
12740TIP3    H159635   1.637   5.959  13.428 -0.0149 -1.0460 -2.3241
12740TIP3    H259636   1.741   6.066  13.457 -0.1744 -1.6149  0.7703
12741TIP3   OH259637   2.270   1.288  15.760  0.2993 -0.2903  0.2272
12741TIP3    H159638   2.191   1.333  15.728  0.5038 -0.8751 -1.1624
12741TIP3    H259639   2.329   1.359  15.786 -0.1268  0.2005 -0.1207
12742TIP3   OH259640   6.445   0.882   0.165  0.8988 -0.0263  0.1622
12742TIP3    H159641   6.463   0.790   0.149  1.8413  0.1871 -0.0662
12742TIP3    H259642   6.529   0.919   0.194  1.3896  1.3710 -2.6382
12743TIP3   OH259643   6.503   1.821   3.337  0.3046  0.3406  0.7460
12743TIP3    H159644   6.443   1.882   3.380  0.8276  0.4898  1.2848
12743TIP3    H259645   6.466   1.734   3.356  0.3936  0.4190  1.2948
12744TIP3   OH259646   2.703   1.679  16.926  0.4287 -0.1160  0.1917
12744TIP3    H159647   2.756   1.689  17.005 -1.6914 -1.5530  1.8876
12744TIP3    H259648   2.767   1.681  16.855  2.4209  1.2770  1.8872
12745TIP3   OH259649   4.322   1.121  14.189 -0.1701  0.1051  0.0574
12745TIP3    H159650   4.404   1.171  14.185 -0.1887  0.0663 -0.8829
12745TIP3    H259651   4.261   1.181  14.232 -0.1568  0.8476 -0.9403
12746TIP3   OH259652   5.888   2.780  12.338  0.8635  0.0602 -0.4311
12746TIP3    H159653   5.821   2.835  12.298  0.3519  0.0621  0.3924
12746TIP3    H259654   5.861   2.691  12.318  0.2014  0.0340  0.4903
12747TIP3   OH259655   4.188   1.200   2.483 -0.6342 -0.0483  0.0012
12747TIP3    H159656   4.162   1.233   2.397 -0.9817 -0.0789  0.0939
12747TIP3    H259657   4.149   1.261   2.546  0.4728  0.5710  0.1142
12748TIP3   OH259658   1.476   1.227  11.489  0.5688  0.2723 -0.0234
12748TIP3    H159659   1.529   1.176  11.551 -0.3417  0.7575  1.1835
12748TIP3    H259660   1.505   1.317  11.501 -0.0633  0.4538  0.1639
12749TIP3   OH259661   3.520   4.465  11.205  0.5946  0.1792  0.1495
12749TIP3    H159662   3.488   4.545  11.247  1.7685  1.0900 -0.6112
12749TIP3    H259663   3.441   4.415  11.184 -0.0948  0.4832  1.8699
12750TIP3   OH259664   1.057   3.510  15.222  0.5802 -0.3774 -0.1783
12750TIP3    H159665   0.986   3.473  15.275 -1.4714  3.4629  0.1352
12750TIP3    H259666   1.130   3.518  15.284 -0.7838  1.1970  1.3424
12751TIP3   OH259667   3.934   6.737   6.302  0.6389 -0.2946  0.1816
12751TIP3    H159668   3.944   6.706   6.212 -0.0413 -0.6147  0.2110
12751TIP3    H259669   3.900   6.826   6.293  0.1960 -0.4663  0.1201
12752TIP3   OH259670   1.004   5.724   3.932 -0.0903  0.0314  0.1704
12752TIP3    H159671   0.950   5.696   4.006 -0.5820 -1.4640 -0.7183
12752TIP3    H259672   0.977   5.668   3.860  2.0753 -0.1948 -0.5328
12753TIP3   OH259673   0.855   1.652   3.262  0.7435  0.2679  0.1252
12753TIP3    H159674   0.918   1.580   3.271  2.3975  1.6960  0.6229
12753TIP3    H259675   0.845   1.662   3.167 -0.7819 -1.6065  0.0221
12754TIP3   OH259676   1.964   3.051   0.101  0.1269  0.0090 -0.3223
12754TIP3    H159677   2.023   3.051   0.027 -1.9064 -0.3489 -2.0472
12754TIP3    H259678   1.989   3.127   0.153  1.4694  0.3742 -1.4586
12755TIP3   OH259679   3.839   1.294  11.276 -0.1663  0.1921  0.5419
12755TIP3    H159680   3.760   1.243  11.295  0.2320 -0.0354  1.6741
12755TIP3    H259681   3.846   1.354  11.351  1.4838 -0.7331  1.1739
12756TIP3   OH259682   3.871   6.583   5.033 -0.1859 -0.2918  0.4744
12756TIP3    H159683   3.813   6.515   4.998  0.7957 -1.3137  0.7665
12756TIP3    H259684   3.833   6.604   5.118 -1.3590  0.6543 -0.2472
12757TIP3   OH259685   2.004   0.052  14.973  0.4465  0.2101 -0.3508
12757TIP3    H159686   1.996   0.014  14.885  0.4601 -1.7744  0.4443
12757TIP3    H259687   2.057   0.131  14.961  1.2569 -0.5346 -1.9948
12758TIP3   OH259688   2.142   3.831  17.263  0.0000  0.0221 -0.3032
12758TIP3    H159689   2.102   3.903  17.314 -1.4970 -1.1374  0.2462
12758TIP3    H259690   2.073   3.764  17.259  1.0597 -1.0390 -1.5407
12759TIP3   OH259691   5.971   1.134   2.531  0.0211  0.0999 -0.0611
12759TIP3    H159692   6.047   1.099   2.576 -0.7455  0.0358  1.2456
12759TIP3    H259693   6.000   1.216   2.494  0.6341  0.2650  0.7582
12760TIP3   OH259694   3.184   6.240   5.038  0.2927 -0.5296 -0.0209
12760TIP3    H159695   3.182   6.316   5.096 -1.0775 -0.7255  0.2191
12760TIP3    H259696   3.209   6.275   4.953 -1.3538  0.3773 -0.1504
12761TIP3   OH259697   0.779   6.411   4.586  0.3554  0.5342  0.3327
12761TIP3    H159698   0.726   6.436   4.661 -1.4706 -1.0333 -0.3384
12761TIP3    H259699   0.798   6.493   4.541  0.1511  1.3211  1.6424
12762TIP3   OH259700   5.949   0.678  12.039  0.3315  0.4656 -0.2325
12762TIP3    H159701   5.906   0.751  12.084  1.2081  1.5455 -1.1116
12762TIP3    H259702   6.000   0.719  11.969  0.4939 -1.0292 -1.0273
12763TIP3   OH259703   0.438   1.937  12.825 -0.1051 -0.2138  0.1960
12763TIP3    H159704   0.373   1.992  12.867  0.4116  1.0190 -0.5702
12763TIP3    H259705   0.495   1.908  12.897  0.1111  0.9550  0.5145
12764TIP3   OH259706   5.280   3.253  12.571 -0.2614  0.2915 -0.7588
12764TIP3    H159707   5.208   3.309  12.602  0.2436  0.1925  0.7067
12764TIP3    H259708   5.268   3.248  12.477 -1.7236  0.9131 -0.6381
12765TIP3   OH259709   2.246   5.291  12.274  0.0118 -0.3841 -0.2813
12765TIP3    H159710   2.281   5.236  12.344  0.2346  0.2048  0.0792
12765TIP3    H259711   2.260   5.240  12.194  1.8970 -0.0999 -0.1778
12766TIP3   OH259712   0.155   1.730   4.188 -0.1776 -0.7255  0.7776
12766TIP3    H159713   0.196   1.649   4.156 -1.2953 -1.8102  1.9626
12766TIP3    H259714   0.226   1.794   4.190  0.6784 -1.6054 -0.4207
12767TIP3   OH259715   6.082   1.891   4.279  0.0241 -0.0227 -0.0797
12767TIP3    H159716   6.173   1.875   4.304 -0.2389 -1.8366 -0.1703
12767TIP3    H259717   6.030   1.845   4.345 -0.8473  1.1847  0.1004
12768TIP3   OH259718   4.490   0.724   2.106  0.1201  0.4254  0.0577
12768TIP3    H159719   4.544   0.759   2.035  0.4137  1.0479  0.5724
12768TIP3    H259720   4.413   0.689   2.063 -0.1693  1.6837 -0.4953
12769TIP3   OH259721   0.689   3.730   5.202 -0.0153  0.2938  0.1075
12769TIP3    H159722   0.662   3.780   5.125 -0.5788 -0.3572 -0.1310
12769TIP3    H259723   0.622   3.750   5.268 -0.0481  0.1346  0.1239
12770TIP3   OH259724   5.408   6.009   1.669 -0.0034  0.1673  0.5319
12770TIP3    H159725   5.359   6.018   1.750  0.3050 -0.5444  0.8110
12770TIP3    H259726   5.453   6.093   1.658  2.2359 -0.6393  2.6268
12771TIP3   OH259727   1.285   6.526   0.595 -0.2831 -0.3368  0.3450
12771TIP3    H159728   1.336   6.551   0.518 -1.7522  0.7339 -0.3123
12771TIP3    H259729   1.293   6.602   0.654 -1.3171 -0.0338  0.1148
12772TIP3   OH259730   1.463   1.041   0.543  0.4201 -0.1928 -0.3059
12772TIP3    H159731   1.429   0.953   0.523 -0.3037  0.4576 -2.2611
12772TIP3    H259732   1.395   1.081   0.598  0.8958 -0.9491  0.8437
12773TIP3   OH259733   0.525   0.250   3.281 -0.2318  0.4514  0.5101
12773TIP3    H159734   0.539   0.303   3.360  1.1624  1.0433 -0.1047
12773TIP3    H259735   0.613   0.228   3.251 -0.7564 -0.2201 -0.5943
12774TIP3   OH259736   6.435   1.992  11.843 -0.3654  0.5286  0.4589
12774TIP3    H159737   6.384   1.934  11.899 -1.4521  0.3727 -0.6459
12774TIP3    H259738   6.373   2.059  11.814  0.1107  0.5093 -0.6777
12775TIP3   OH259739   0.250   5.103  11.011 -0.1650  0.4398  0.3021
12775TIP3    H159740   0.320   5.166  11.032  0.9079 -0.3710 -0.6977
12775TIP3    H259741   0.170   5.145  11.043  0.4162  2.5903 -0.8464
12776TIP3   OH259742   5.135   0.207  12.581  0.5106  0.1511  0.0799
12776TIP3    H159743   5.055   0.167  12.614  0.3141 -0.1687 -0.7498
12776TIP3    H259744   5.120   0.215  12.486  1.8330 -0.8393 -0.2443
12777TIP3   OH259745   6.259   5.302  16.498 -0.4170  0.1072  0.8473
12777TIP3    H159746   6.171   5.302  16.536 -0.0586  1.4420  1.7462
12777TIP3    H259747   6.294   5.388  16.520  0.1489  0.6544 -1.7801
12778TIP3   OH259748   5.443   2.920  10.973 -0.1390 -0.2664  0.2951
12778TIP3    H159749   5.530   2.883  10.988  0.3336  0.2461 -1.0089
12778TIP3    H259750   5.460   3.010  10.947 -1.0296 -0.3247 -0.5407
12779TIP3   OH259751   6.085   2.086   5.173 -0.3254  0.5206 -0.2847
12779TIP3    H159752   6.007   2.121   5.216 -0.0655 -1.2029  1.7963
12779TIP3    H259753   6.156   2.143   5.202 -0.4692  0.6713 -0.2278
12780TIP3   OH259754   1.796   4.056  10.917 -0.0372  0.1005 -0.2796
12780TIP3    H159755   1.795   3.968  10.955 -0.2356  0.9045  1.7037
12780TIP3    H259756   1.889   4.077  10.910 -0.0025  0.1106  0.1827
12781TIP3   OH259757   0.564   5.441   1.305  0.2121  0.1340 -0.4620
12781TIP3    H159758   0.619   5.366   1.326  0.9656  0.6065 -0.6854
12781TIP3    H259759   0.590   5.466   1.216  0.1134  0.7632 -0.3246
12782TIP3   OH259760   0.911   3.541   2.466 -0.7525  0.2629  0.5425
12782TIP3    H159761   0.926   3.451   2.494  1.8211  0.5534  0.3540
12782TIP3    H259762   0.869   3.534   2.380  1.1379 -0.8532 -0.3543
12783TIP3   OH259763   5.865   2.007   1.694 -0.3856  0.2983 -0.1185
12783TIP3    H159764   5.876   2.076   1.760  0.9726 -0.3078  0.3155
12783TIP3    H259765   5.773   2.012   1.670 -0.4047  2.0443  0.1586
12784TIP3   OH259766   5.029   4.399   2.808  0.2771  0.5229  0.1193
12784TIP3    H159767   5.075   4.345   2.744  0.2560 -1.3581  1.5824
12784TIP3    H259768   5.070   4.375   2.892 -2.1826  0.0596  1.2666
12785TIP3   OH259769   1.749   0.401   6.665  0.1110 -0.0467  0.0358
12785TIP3    H159770   1.747   0.480   6.719  1.1061  0.4679 -0.6436
12785TIP3    H259771   1.840   0.370   6.671 -0.1608 -0.8835 -0.0577
12786TIP3   OH259772   1.391   3.327  13.073  0.0382  0.3721 -0.0694
12786TIP3    H159773   1.394   3.235  13.048  0.5777  0.6368 -1.0210
12786TIP3    H259774   1.360   3.373  12.995 -1.8225  0.8509  0.8810
12787TIP3   OH259775   5.677   3.944  15.569  0.0087  0.6436 -0.4966
12787TIP3    H159776   5.716   3.909  15.650  0.2221  1.4385 -0.2409
12787TIP3    H259777   5.622   4.017  15.599  0.9122  1.6321 -1.1398
12788TIP3   OH259778   4.589   4.369   0.885  0.4213  0.0976  0.7069
12788TIP3    H159779   4.602   4.303   0.817  3.4696  1.9807 -0.7417
12788TIP3    H259780   4.496   4.362   0.906 -1.2364  0.3168 -4.7921
12789TIP3   OH259781   4.928   1.742   3.894 -0.0034 -0.5867  0.6730
12789TIP3    H159782   4.975   1.712   3.816  0.8988 -0.5499  1.1849
12789TIP3    H259783   4.994   1.789   3.945 -0.8288  0.2413  0.9976
12790TIP3   OH259784   1.563   4.998   3.985  0.3013  0.2148 -0.1434
12790TIP3    H159785   1.472   5.000   3.956  0.2019  0.4204  0.1678
12790TIP3    H259786   1.558   5.019   4.079  0.6204 -0.3202 -0.0033
12791TIP3   OH259787   5.161   3.797   4.800 -0.0958 -0.4434  0.0237
12791TIP3    H159788   5.218   3.862   4.759  0.1263 -1.2202 -0.9447
12791TIP3    H259789   5.112   3.846   4.866  0.6606  0.5264 -0.1140
12792TIP3   OH259790   0.682   4.816   0.942 -0.4293 -0.8119  0.0073
12792TIP3    H159791   0.735   4.794   1.018 -0.5096  0.5146  0.4710
12792TIP3    H259792   0.613   4.873   0.976 -1.1916 -1.1867 -0.8592
12793TIP3   OH259793   2.568   0.874   6.432  0.2847 -0.1413 -0.4603
12793TIP3    H159794   2.562   0.868   6.527  2.6592  0.6137 -0.1882
12793TIP3    H259795   2.515   0.801   6.400  0.5225 -1.2437  1.5008
12794TIP3   OH259796   4.188   6.483   1.251 -0.2504  0.3400  0.4206
12794TIP3    H159797   4.261   6.428   1.225  1.3445  2.0908  1.0187
12794TIP3    H259798   4.176   6.464   1.344 -0.9227 -0.2883  0.2244
12795TIP3   OH259799   6.251   0.202  16.004 -0.0426 -0.3754  0.6900
12795TIP3    H159800   6.219   0.277  16.054 -0.5753 -1.3774  1.8785
12795TIP3    H259801   6.249   0.232  15.913 -1.8264  0.5018  0.9776
12796TIP3   OH259802   1.932   6.413  16.068 -0.1004  1.1881  0.5727
12796TIP3    H159803   1.886   6.474  16.125 -1.7223  0.3251  0.2608
12796TIP3    H259804   1.920   6.327  16.110  0.0908  0.7722 -0.2022
12797TIP3   OH259805   1.010   0.663  15.752  0.0964  0.6177  0.0450
12797TIP3    H159806   0.923   0.703  15.755 -1.1558 -1.7509 -1.3661
12797TIP3    H259807   1.004   0.590  15.814  0.1722 -1.0718 -1.8539
12798TIP3   OH259808   5.065   4.822   5.071  0.5431  0.2010  0.2205
12798TIP3    H159809   5.056   4.796   5.162  0.3610 -0.2675  0.0683
12798TIP3    H259810   5.011   4.761   5.022  2.4055 -1.0091 -0.4444
12799TIP3   OH259811   0.061   2.082   4.789  0.8511 -0.5956  0.7847
12799TIP3    H159812   0.007   2.121   4.721 -2.5655  0.2434  3.6656
12799TIP3    H259813   0.128   2.149   4.808  0.7728 -0.1297 -0.5292
12800TIP3   OH259814   6.217   6.146   6.027  0.9720  0.5221  0.5874
12800TIP3    H159815   6.184   6.218   5.973  1.5259  0.6144  0.3664
12800TIP3    H259816   6.306   6.132   5.996 -0.0283 -2.2613 -1.4702
12801TIP3   OH259817   6.318   4.003  14.747 -0.3317  0.2075  0.0677
12801TIP3    H159818   6.299   3.910  14.736  2.8355 -0.7034  1.3266
12801TIP3    H259819   6.259   4.031  14.817 -1.2521 -0.8346 -0.2472
12802TIP3   OH259820   4.223   3.760  15.737  0.0919 -0.2532  0.1281
12802TIP3    H159821   4.247   3.790  15.824  1.2560  1.7973 -0.8160
12802TIP3    H259822   4.297   3.785  15.681 -0.0016 -2.7188 -1.2572
12803TIP3   OH259823   2.425   3.667  14.049  0.2221  0.1742 -0.3102
12803TIP3    H159824   2.453   3.579  14.075 -1.5710 -0.1772  0.5809
12803TIP3    H259825   2.333   3.671  14.073  0.4568  2.6176  0.4636
12804TIP3   OH259826   1.611   3.498  12.405 -0.1573  0.3647 -0.4449
12804TIP3    H159827   1.531   3.446  12.406  0.0393  0.0403 -1.5159
12804TIP3    H259828   1.650   3.482  12.491 -0.9545  0.0944 -0.1204
12805TIP3   OH259829   0.710   1.421  15.619  0.5575 -0.6072  0.1404
12805TIP3    H159830   0.768   1.395  15.691  0.5030 -0.8522  0.0986
12805TIP3    H259831   0.622   1.397  15.649  0.5525 -0.8655 -0.0761
12806TIP3   OH259832   5.748   3.888  15.840 -0.6335  0.5247  0.3009
12806TIP3    H159833   5.829   3.917  15.797 -2.2435  4.1985 -0.6806
12806TIP3    H259834   5.777   3.827  15.907  2.7144  0.1207 -1.2898
12807TIP3   OH259835   6.552   1.742   5.270  0.1049 -0.1219 -0.0877
12807TIP3    H159836   6.472   1.695   5.245 -0.7916  1.6189 -0.5963
12807TIP3    H259837   6.554   1.734   5.366 -0.8307  0.0520 -0.0385
12808TIP3   OH259838   4.292   1.719   3.773  0.0144  0.1242  0.1139
12808TIP3    H159839   4.265   1.650   3.713  1.0635  0.1596 -0.4199
12808TIP3    H259840   4.232   1.792   3.754 -0.7398 -0.4348  0.3019
12809TIP3   OH259841   4.129   1.151  11.910 -0.3894  0.1804  0.1296
12809TIP3    H159842   4.143   1.217  11.842 -0.8593  1.1155  0.9266
12809TIP3    H259843   4.217   1.117  11.928 -0.0525  1.0284  0.1500
12810TIP3   OH259844   4.077   5.752   4.827  0.2795 -0.3797 -0.0802
12810TIP3    H159845   4.166   5.719   4.844  0.0313 -1.5236 -0.8620
12810TIP3    H259846   4.026   5.719   4.901  0.1563 -1.2783 -0.5510
12811TIP3   OH259847   1.535   5.839   1.489  0.2809  0.2901 -0.3409
12811TIP3    H159848   1.570   5.810   1.573 -0.8074 -0.7770 -0.2259
12811TIP3    H259849   1.599   5.809   1.425 -0.0132 -0.9691 -0.0686
12812TIP3   OH259850   2.874   0.670   4.750  0.2665 -0.1442 -0.2615
12812TIP3    H159851   2.952   0.629   4.713 -0.2592 -1.0567 -0.3945
12812TIP3    H259852   2.853   0.741   4.689  2.3939  1.7484  1.0657
12813TIP3   OH259853   4.374   1.316   3.443 -0.3444 -0.6791  0.3900
12813TIP3    H159854   4.401   1.237   3.489 -0.2462 -0.5448  0.5670
12813TIP3    H259855   4.281   1.304   3.425 -0.2114 -1.0647 -0.0550
12814TIP3   OH259856   3.628   5.418   0.074  0.3108  0.0384 -0.0408
12814TIP3    H159857   3.623   5.392  -0.018  0.7849  1.1782 -0.4047
12814TIP3    H259858   3.694   5.487   0.076 -1.0394  1.3682  0.8316
12815TIP3   OH259859   2.395   4.395  13.752 -0.2650 -0.2635  0.0259
12815TIP3    H159860   2.356   4.427  13.833 -0.4946  0.2940 -0.3026
12815TIP3    H259861   2.465   4.336  13.781 -0.5118 -0.2702  0.6246
12816TIP3   OH259862   1.464   4.332  14.735 -0.0833  0.1723  0.6121
12816TIP3    H159863   1.482   4.397  14.803 -0.8578  2.0677 -0.8818
12816TIP3    H259864   1.372   4.309  14.748  0.0811 -0.3144  0.9001
12817TIP3   OH259865   6.407   3.006   5.864 -0.4311 -0.6696 -0.0450
12817TIP3    H159866   6.444   3.018   5.951  2.2971 -1.2311 -1.0252
12817TIP3    H259867   6.320   2.969   5.879 -0.3454 -0.0015  2.4215
12818TIP3   OH259868   2.888   4.246  12.274 -0.2957  0.3339 -0.0907
12818TIP3    H159869   2.922   4.189  12.205  0.0749  0.8287 -0.3152
12818TIP3    H259870   2.964   4.265  12.330 -0.7824 -0.8949  1.0603
12819TIP3   OH259871   0.264   1.419  12.352 -0.4275 -0.1284 -0.6832
12819TIP3    H159872   0.340   1.387  12.400 -0.4820 -0.5589 -0.8867
12819TIP3    H259873   0.292   1.504  12.317 -0.1428 -0.1475 -0.5051
12820TIP3   OH259874   0.549   4.487   2.720 -0.0583 -0.0987 -0.2721
12820TIP3    H159875   0.471   4.535   2.691  0.4249 -0.0316 -1.5531
12820TIP3    H259876   0.546   4.405   2.670 -0.1080 -0.7843  0.8235
12821TIP3   OH259877   2.234   0.917  15.026 -0.0610 -0.1674 -0.2595
12821TIP3    H159878   2.220   0.991  15.085  1.7577  0.8728 -1.0489
12821TIP3    H259879   2.323   0.928  14.993 -0.4022 -1.6640 -1.8764
12822TIP3   OH259880   1.715   1.685   0.784  0.3457 -0.2769  0.2645
12822TIP3    H159881   1.774   1.726   0.721  0.4019 -0.9282 -0.1095
12822TIP3    H259882   1.630   1.683   0.740  0.1461  0.2332  0.6209
12823TIP3   OH259883   1.480   1.089  16.063 -0.0127  0.5431 -0.0748
12823TIP3    H159884   1.413   1.029  16.096 -0.2501  0.2502 -1.0784
12823TIP3    H259885   1.480   1.161  16.127  0.9727 -0.9397  1.7147
12824TIP3   OH259886   5.569   2.903  15.317 -0.0460  0.2291 -0.2722
12824TIP3    H159887   5.505   2.957  15.362 -0.0736  0.8515 -1.0414
12824TIP3    H259888   5.638   2.964  15.290  1.0810 -0.4833  0.8855
12825TIP3   OH259889   0.898   3.101  13.416  0.6296  0.1572 -0.3697
12825TIP3    H159890   0.965   3.163  13.444  0.1902  0.5548 -0.1901
12825TIP3    H259891   0.935   3.015  13.434  1.1334  0.3735 -0.3705
12826TIP3   OH259892   4.225   4.118  16.881  0.4279  0.1253  0.0926
12826TIP3    H159893   4.288   4.151  16.818  0.5627 -0.0004  0.1613
12826TIP3    H259894   4.217   4.024  16.862  0.7176  0.0195  0.4749
12827TIP3   OH259895   3.421   4.322   4.917  0.6869 -0.1774  0.0625
12827TIP3    H159896   3.412   4.351   4.826  0.1730 -1.7742 -0.4179
12827TIP3    H259897   3.502   4.272   4.919  0.1984 -0.9803  0.2398
12828TIP3   OH259898   4.357   3.938   2.302  0.0271  0.2824  0.7189
12828TIP3    H159899   4.420   3.908   2.368  1.0845 -0.5321 -0.6266
12828TIP3    H259900   4.406   3.940   2.220 -1.7462 -0.5732 -0.4272
12829TIP3   OH259901   4.392   6.053   1.116  0.5236  0.3785 -0.7230
12829TIP3    H159902   4.330   5.987   1.144  0.3319  0.9140  0.1603
12829TIP3    H259903   4.476   6.025   1.154  0.5316  0.4044 -0.7217
12830TIP3   OH259904   4.205   6.137  12.809  0.6396 -0.3019  0.0828
12830TIP3    H159905   4.224   6.076  12.880  2.2259 -1.6326 -1.3800
12830TIP3    H259906   4.110   6.147  12.810  0.5001 -1.4808  1.4260
12831TIP3   OH259907   3.327   2.500   3.985  0.3721  1.0058  0.7436
12831TIP3    H159908   3.397   2.489   4.049  1.4516  1.6988 -0.2680
12831TIP3    H259909   3.286   2.583   4.008  0.9362  1.3896  0.4002
12832TIP3   OH259910   0.068   3.218  13.344 -0.7627 -0.4586  0.1360
12832TIP3    H159911   0.154   3.249  13.371 -0.7491  0.9294 -1.3121
12832TIP3    H259912   0.008   3.290  13.365 -0.7626  0.6624 -3.1393
12833TIP3   OH259913   1.284   0.882  15.542 -0.1475 -0.4965 -0.0357
12833TIP3    H159914   1.367   0.928  15.558 -0.2206 -0.0846 -0.7761
12833TIP3    H259915   1.283   0.811  15.605  0.0360  0.4482  1.0576
12834TIP3   OH259916   6.021   2.194  14.755 -0.5923 -1.3151  0.4825
12834TIP3    H159917   6.104   2.212  14.712 -1.1174 -1.4747 -0.6349
12834TIP3    H259918   6.040   2.122  14.816  0.1226 -1.2293  0.3654
12835TIP3   OH259919   3.734   5.945  12.864 -0.5219  0.3450  0.1523
12835TIP3    H159920   3.683   5.885  12.918  1.2998 -0.6947  0.8045
12835TIP3    H259921   3.709   5.923  12.774 -1.2390 -0.1085  0.4530
12836TIP3   OH259922   2.414   2.376  14.966  0.2491  0.8605 -0.4104
12836TIP3    H159923   2.365   2.299  14.937  0.8361  1.3880 -3.0394
12836TIP3    H259924   2.356   2.450  14.948  0.2754  1.1690  0.7000
12837TIP3   OH259925   5.928   1.422  15.709 -0.1881  0.2688 -0.0418
12837TIP3    H159926   5.906   1.511  15.680 -0.2355 -0.1705 -1.4377
12837TIP3    H259927   5.955   1.377  15.629 -1.1285 -1.2676  0.4668
12838TIP3   OH259928   2.891   3.684   0.521 -0.2899  0.4083  0.7740
12838TIP3    H159929   2.867   3.634   0.443  0.1445  0.1332  0.8169
12838TIP3    H259930   2.924   3.767   0.486  0.4613  0.0556  0.6368
12839TIP3   OH259931   2.303   1.462  12.811  0.0889 -0.3311 -0.4094
12839TIP3    H159932   2.396   1.476  12.791  0.1910 -1.2441 -0.6298
12839TIP3    H259933   2.282   1.530  12.874  0.6716  0.4507 -1.0340
12840TIP3   OH259934   3.429   0.798   2.123 -0.5235  0.3461  0.4672
12840TIP3    H159935   3.385   0.881   2.106  0.8417  0.9942 -0.0554
12840TIP3    H259936   3.365   0.732   2.097 -0.5552  1.2603 -2.0772
12841TIP3   OH259937   0.444   4.349   0.197 -0.5766  0.0063 -0.3788
12841TIP3    H159938   0.353   4.323   0.211 -0.9129  1.6066  0.6832
12841TIP3    H259939   0.480   4.359   0.285  0.4105  0.1392 -0.7882
12842TIP3   OH259940   4.956   1.019  13.420 -0.4235  0.1298  0.5857
12842TIP3    H159941   5.026   1.063  13.372 -0.3200  0.8881  1.3976
12842TIP3    H259942   4.880   1.076  13.407 -0.4011  0.3304  1.2845
12843TIP3   OH259943   5.100   4.486  11.738  0.5883 -0.0445 -0.0445
12843TIP3    H159944   5.134   4.417  11.681  1.8928  0.6408 -0.1283
12843TIP3    H259945   5.059   4.549  11.678 -0.7901 -0.8070  0.0472
12844TIP3   OH259946   1.218   5.751  14.043  0.1704 -0.2516 -0.2006
12844TIP3    H159947   1.236   5.673  14.096 -0.2448  0.3985  0.9188
12844TIP3    H259948   1.181   5.716  13.961  0.8805 -1.2725 -0.1115
12845TIP3   OH259949   2.960   0.909  12.825  0.4132 -0.5755 -0.1556
12845TIP3    H159950   3.045   0.866  12.826  0.9302  0.4218  0.0746
12845TIP3    H259951   2.980   1.003  12.827 -0.7040 -0.3238  1.5433
12846TIP3   OH259952   6.294   4.454  12.338  0.0779  0.7624  0.0396
12846TIP3    H159953   6.290   4.516  12.265 -0.6609  2.5908  1.5509
12846TIP3    H259954   6.384   4.421  12.336  0.9542  2.9720  0.0045
12847TIP3   OH259955   6.496   1.461  15.832  0.0638  0.7407 -0.0708
12847TIP3    H159956   6.424   1.512  15.870  0.8625  0.8733  1.3111
12847TIP3    H259957   6.456   1.416  15.757 -0.8860  2.6616 -0.7876
12848TIP3   OH259958   2.374   0.927  10.730  0.7171  0.2039 -0.6594
12848TIP3    H159959   2.289   0.913  10.770 -0.3530  1.9394 -2.1642
12848TIP3    H259960   2.376   0.866  10.656 -0.6291  2.2547 -2.5068
12849TIP3   OH259961   5.639   4.926  15.985  0.5586 -0.3174  0.0133
12849TIP3    H159962   5.548   4.900  15.972  0.6620 -0.8393  0.2827
12849TIP3    H259963   5.673   4.942  15.897  0.9060 -2.5717 -0.3119
12850TIP3   OH259964   5.818   2.282  15.550 -0.0484  0.2072  0.4872
12850TIP3    H159965   5.798   2.283  15.644 -0.2507 -0.2769  0.4512
12850TIP3    H259966   5.749   2.229  15.511 -0.3265  0.9361 -0.0287
12851TIP3   OH259967   5.502   6.326   1.160 -0.1076  0.9470 -0.1576
12851TIP3    H159968   5.522   6.232   1.156 -1.0873  0.7503 -1.1284
12851TIP3    H259969   5.572   6.368   1.110  0.1929  0.7102  0.0612
12852TIP3   OH259970   6.456   4.423   1.270  0.0956 -0.3879  0.0399
12852TIP3    H159971   6.448   4.327   1.273  0.4421 -0.4266 -0.1413
12852TIP3    H259972   6.440   4.445   1.178 -0.4738 -0.2192  0.1757
12853TIP3   OH259973   3.232   6.413   1.021  0.0691 -0.0017  0.3044
12853TIP3    H159974   3.282   6.494   1.011 -0.2089  0.1820  0.3704
12853TIP3    H259975   3.212   6.386   0.931  0.4226 -0.1605  0.2753
12854TIP3   OH259976   1.478   3.550  15.169 -0.1159 -0.0085  0.1092
12854TIP3    H159977   1.533   3.473  15.180  0.8588  0.6957  0.2397
12854TIP3    H259978   1.462   3.555  15.074  0.6463  0.1857 -0.0140
12855TIP3   OH259979   0.807   0.726  13.830 -0.2618  0.3063 -0.1339
12855TIP3    H159980   0.824   0.717  13.736 -0.6584  0.9711 -0.2784
12855TIP3    H259981   0.815   0.820  13.847  1.1408  0.0459  0.7671
12856TIP3   OH259982   1.814   0.993   4.006  0.0689  0.0214 -0.0946
12856TIP3    H159983   1.786   1.047   4.080 -0.4764  1.7135 -1.4695
12856TIP3    H259984   1.833   1.056   3.936  0.0167 -1.5384 -1.5799
12857TIP3   OH259985   5.464   5.875  15.813 -0.0096  0.5158 -0.1350
12857TIP3    H159986   5.394   5.813  15.791 -1.1050  1.8333 -0.5181
12857TIP3    H259987   5.422   5.939  15.870 -0.0296  3.0500 -2.7235
12858TIP3   OH259988   2.437   5.250  15.771  0.3018 -0.0099  0.2048
12858TIP3    H159989   2.479   5.211  15.849 -0.0160  0.4044  0.5880
12858TIP3    H259990   2.420   5.341  15.796  1.4867  0.5322 -0.8542
12859TIP3   OH259991   3.307   5.197  11.999 -0.6235 -0.2701 -0.2467
12859TIP3    H159992   3.363   5.183  11.922  1.1968  1.5335  0.6243
12859TIP3    H259993   3.359   5.166  12.073  0.6542  3.8887  0.9154
12860TIP3   OH259994   6.641   2.947   2.870 -0.1539  0.1369  0.5741
12860TIP3    H159995   6.727   2.966   2.908  0.5678 -1.7957  0.0076
12860TIP3    H259996   6.584   2.932   2.946  0.2658  0.3925  0.9429
12861TIP3   OH259997   2.170   0.576   2.064  0.0016 -0.6218 -0.4516
12861TIP3    H159998   2.130   0.536   2.141 -0.8912  0.5108 -0.3079
12861TIP3    H259999   2.182   0.503   2.003 -0.6143 -1.2853  0.2019
12862TIP3   OH260000   4.820   3.630   2.018 -0.4354  0.2681 -0.1648
12862TIP3    H160001   4.833   3.665   1.929 -2.2166  0.9853 -0.1942
12862TIP3    H260002   4.742   3.574   2.010  1.3280 -2.4273  0.2661
12863TIP3   OH260003   3.337   6.397   4.858 -0.2743 -0.0828  0.2017
12863TIP3    H160004   3.431   6.383   4.869 -0.0396  1.5110  0.4209
12863TIP3    H260005   3.328   6.492   4.850 -1.7891 -0.2679 -0.6024
12864TIP3   OH260006   0.998   0.967  16.553  0.5894 -0.0619 -0.9006
12864TIP3    H160007   0.979   1.015  16.634  2.1135 -1.2883  0.2532
12864TIP3    H260008   0.917   0.973  16.502  0.3152  2.6828 -0.3227
12865TIP3   OH260009   5.062   5.051   4.410 -0.4545  0.4796 -0.1426
12865TIP3    H160010   5.043   5.106   4.486 -0.5602  1.9721 -1.1911
12865TIP3    H260011   4.978   5.042   4.365 -0.4179 -0.4838 -0.0351
12866TIP3   OH260012   2.022   2.877  13.975  0.0136  0.4851 -0.0882
12866TIP3    H160013   1.949   2.855  13.918  0.0657  1.7061 -0.6721
12866TIP3    H260014   2.039   2.970  13.957  0.7747  0.5986  1.0887
12867TIP3   OH260015   0.111   5.570   4.546  0.5526 -0.2963 -0.1824
12867TIP3    H160016   0.136   5.504   4.482 -1.8122 -1.0793 -0.4005
12867TIP3    H260017   0.095   5.649   4.495 -2.0763 -1.1190 -0.7814
12868TIP3   OH260018   3.845   4.721   5.319 -0.4548 -0.2244 -0.4082
12868TIP3    H160019   3.784   4.720   5.245 -0.7789 -0.7491 -0.1385
12868TIP3    H260020   3.817   4.648   5.375 -0.5381  0.4702  0.4896
12869TIP3   OH260021   1.023   2.492  17.100 -0.3279  0.1971  0.4706
12869TIP3    H160022   1.007   2.402  17.071  1.0106 -0.2039  0.8721
12869TIP3    H260023   0.937   2.533  17.099 -0.9314 -1.0061  0.0143
12870TIP3   OH260024   6.416   4.491   1.543 -0.4740  0.4203 -0.4797
12870TIP3    H160025   6.378   4.419   1.594  1.4880  0.3147  0.9787
12870TIP3    H260026   6.444   4.450   1.461 -1.1004 -0.0637 -0.4579
12871TIP3   OH260027   5.092   0.540   2.836 -0.1705  0.2355  0.7643
12871TIP3    H160028   5.034   0.586   2.775  0.7084 -2.1474 -2.0927
12871TIP3    H260029   5.034   0.482   2.885 -0.5760 -0.1693 -0.1619
12872TIP3   OH260030   5.850   1.541   0.387 -0.4647  0.9263 -0.0856
12872TIP3    H160031   5.928   1.567   0.437 -1.2453  0.6982  1.3255
12872TIP3    H260032   5.785   1.609   0.407 -0.9726  0.5221 -0.3269
12873TIP3   OH260033   3.840   5.952  16.900 -0.2530 -0.5352 -0.6006
12873TIP3    H160034   3.909   5.893  16.868  2.2723  1.2731  1.1852
12873TIP3    H260035   3.799   5.904  16.972  0.1413 -1.0305 -0.7015
12874TIP3   OH260036   6.529   2.612  13.230  0.1599 -0.4108 -0.4472
12874TIP3    H160037   6.612   2.656  13.247 -0.0988  0.2544 -0.8755
12874TIP3    H260038   6.551   2.542  13.168  1.3184 -3.5436  3.1159
12875TIP3   OH260039   4.429   1.508   5.814 -0.3255  0.5191 -0.3419
12875TIP3    H160040   4.447   1.425   5.769 -2.8975  1.2293 -3.0398
12875TIP3    H260041   4.515   1.546   5.830  0.9061 -2.4138  0.5767
12876TIP3   OH260042   6.015   6.775  11.332  0.4361  0.6743  0.2977
12876TIP3    H160043   6.087   6.817  11.380  0.1245  2.5934 -0.8150
12876TIP3    H260044   6.038   6.788  11.240 -0.3509 -0.5013 -0.0843
12877TIP3   OH260045   2.674   4.164  10.917 -0.0113  0.2125  0.6788
12877TIP3    H160046   2.637   4.229  10.857 -1.8383 -0.9795  0.4270
12877TIP3    H260047   2.766   4.189  10.927 -0.2573  1.8132 -0.7511
12878TIP3   OH260048   5.577   4.878   1.217 -0.7036  0.0192  0.1740
12878TIP3    H160049   5.584   4.952   1.278  0.1304 -0.6011  0.8612
12878TIP3    H260050   5.644   4.816   1.247 -0.7379 -0.5994 -0.9727
12879TIP3   OH260051   3.199   6.713   0.752  0.3679 -0.0776 -0.0641
12879TIP3    H160052   3.256   6.640   0.776  0.2238 -0.3809 -0.6357
12879TIP3    H260053   3.245   6.758   0.682  0.9717  1.0469  1.0298
12880TIP3   OH260054   3.378   2.527   1.978  0.3076 -0.1621 -0.2850
12880TIP3    H160055   3.302   2.528   2.036  0.1832  0.3485 -0.4458
12880TIP3    H260056   3.371   2.444   1.931 -2.5803  1.6128 -3.4201
12881TIP3   OH260057   3.111   0.396   3.112  0.5678 -0.1561 -0.3723
12881TIP3    H160058   3.126   0.308   3.147  0.8995  0.1545  0.2863
12881TIP3    H260059   3.198   0.434   3.106  0.2566  1.0156  1.7416
12882TIP3   OH260060   0.783   3.243  13.629 -0.0605 -0.1062 -0.5565
12882TIP3    H160061   0.784   3.181  13.556  3.2850  0.6769 -1.3711
12882TIP3    H260062   0.717   3.308  13.605  1.1476  0.2987 -3.1557
12883TIP3   OH260063   3.201   6.018  12.841  0.3905 -0.5612  0.0532
12883TIP3    H160064   3.159   5.944  12.797  0.7475 -0.3605 -0.6429
12883TIP3    H260065   3.131   6.081  12.855  0.1955 -0.7932  0.1363
12884TIP3   OH260066   1.577   3.230  10.778 -0.0952 -0.3641  0.2885
12884TIP3    H160067   1.522   3.153  10.792  0.0709 -0.7381 -0.9790
12884TIP3    H260068   1.514   3.302  10.767 -0.3201 -0.6589 -0.4026
12885TIP3   OH260069   2.699   4.996   2.946  0.3117  0.1294  0.6881
12885TIP3    H160070   2.790   5.011   2.921  0.4247 -3.5336 -1.9034
12885TIP3    H260071   2.701   4.916   2.999 -1.4062 -0.9872 -0.7771
12886TIP3   OH260072   4.271   6.504  13.467 -0.1796  0.2629  0.2280
12886TIP3    H160073   4.189   6.454  13.459 -0.9572  1.1418  2.1258
12886TIP3    H260074   4.294   6.497  13.560  1.8708  0.1344 -0.2443
12887TIP3   OH260075   3.531   5.528  16.381  0.0634 -0.5280 -0.3848
12887TIP3    H160076   3.496   5.540  16.292 -1.0186 -1.2582 -0.0680
12887TIP3    H260077   3.579   5.445  16.377 -0.2796 -0.7352 -0.1988
12888TIP3   OH260078   5.616   6.487  15.122 -0.8444 -0.3171 -0.1246
12888TIP3    H160079   5.691   6.431  15.147 -2.0857 -0.9703  2.4955
12888TIP3    H260080   5.597   6.462  15.032  0.1494 -2.4221  0.1795
12889TIP3   OH260081   1.197   1.230  17.234 -0.3070 -0.1273 -0.1705
12889TIP3    H160082   1.291   1.246  17.235  0.1161 -2.1887 -1.0263
12889TIP3    H260083   1.171   1.251  17.144 -0.4407 -0.6051 -0.2455
12890TIP3   OH260084   6.372   3.720  16.988  0.1205  0.3842 -0.2973
12890TIP3    H160085   6.289   3.686  16.955  0.0248 -1.6735  1.7953
12890TIP3    H260086   6.357   3.732  17.082  2.0513  0.4778  0.0336
12891TIP3   OH260087   2.028   5.440   5.079 -0.1613  0.5637  0.6102
12891TIP3    H160088   2.061   5.350   5.081 -1.5221  0.0336  0.0236
12891TIP3    H260089   1.954   5.438   5.019  1.2979  2.6251 -1.4433
12892TIP3   OH260090   2.412   3.424   1.201 -0.1395  0.0990  0.4368
12892TIP3    H160091   2.486   3.482   1.186  0.3398 -0.7223 -0.4665
12892TIP3    H260092   2.359   3.469   1.267  0.1764  1.5897 -0.2932
12893TIP3   OH260093   5.354   4.025  12.455  0.3472  0.3415  0.7047
12893TIP3    H160094   5.427   3.963  12.464  0.9759  1.0282  0.4104
12893TIP3    H260095   5.343   4.034  12.360 -0.9841 -0.7372  0.7102
12894TIP3   OH260096   0.845   4.532   4.213 -0.0194  0.2507 -0.1713
12894TIP3    H160097   0.761   4.492   4.193 -0.8733  1.2717  1.1901
12894TIP3    H260098   0.846   4.540   4.309  3.0352 -2.6838  0.2360
12895TIP3   OH260099   1.372   4.951   4.217  0.2970  0.3479  0.7700
12895TIP3    H160100   1.347   5.013   4.286  0.4707  0.6544  0.5607
12895TIP3    H260101   1.445   4.901   4.254  1.1619  1.3013  0.3942
12896TIP3   OH260102   3.689   6.415  14.195  0.7529  0.1160  0.4567
12896TIP3    H160103   3.634   6.476  14.244 -0.7466 -0.9797  0.1876
12896TIP3    H260104   3.679   6.442  14.104  0.0191 -0.5706  0.3289
12897TIP3   OH260105   5.611   2.640  15.452  0.3319  0.0703  0.8861
12897TIP3    H160106   5.528   2.609  15.488 -0.6870  0.7284 -0.7670
12897TIP3    H260107   5.592   2.730  15.424  0.3982 -0.9617 -2.9721
12898TIP3   OH260108   1.043   2.412   5.822 -0.4050 -0.0889  0.1633
12898TIP3    H160109   0.961   2.363   5.819 -0.3597 -0.1568  0.0417
12898TIP3    H260110   1.061   2.423   5.916 -0.2476 -0.5865  0.1958
12899TIP3   OH260111   0.911   6.041   1.945  0.2519  0.4977 -0.1817
12899TIP3    H160112   0.941   6.082   2.025 -0.3070  0.6778 -0.0596
12899TIP3    H260113   0.843   6.099   1.912  1.1409  0.9372 -1.3075
12900TIP3   OH260114   2.129   5.825   2.991 -0.0534 -0.1013 -0.3490
12900TIP3    H160115   2.084   5.909   2.981  0.4244  0.2962  0.7149
12900TIP3    H260116   2.194   5.825   2.921  1.0270  1.1632  0.5909
12901TIP3   OH260117   2.428   6.595  17.121  0.4521  0.2920 -0.7737
12901TIP3    H160118   2.521   6.612  17.134  0.6722 -1.5563  0.3333
12901TIP3    H260119   2.418   6.583  17.027  1.3619  0.3422 -0.8772
12902TIP3   OH260120   6.069   1.626  13.492  0.0580 -0.0337  0.3261
12902TIP3    H160121   6.165   1.622  13.495  0.0627  0.5919  1.0654
12902TIP3    H260122   6.041   1.563  13.558 -0.0290  0.4696  0.7698
12903TIP3   OH260123   2.104   2.567  14.077  0.4415 -0.1120 -0.0193
12903TIP3    H160124   2.146   2.640  14.032  1.0105 -1.1897 -1.3009
12903TIP3    H260125   2.151   2.560  14.160  1.3352  0.0868 -0.4933
12904TIP3   OH260126   3.643   1.938  14.251  0.3052  0.3720  0.0430
12904TIP3    H160127   3.604   2.015  14.294 -0.9021 -0.0061 -0.3260
12904TIP3    H260128   3.731   1.966  14.228  1.2119  0.4195  3.1742
12905TIP3   OH260129   2.791   5.562   2.813 -0.3227  0.2699  0.3207
12905TIP3    H160130   2.885   5.548   2.806 -0.2669  0.2908  0.9820
12905TIP3    H260131   2.765   5.595   2.726  0.2787  0.2973  0.1466
12906TIP3   OH260132   6.696   3.725  15.687  0.1325  0.2279 -0.5655
12906TIP3    H160133   6.638   3.655  15.658 -0.9406  1.3970 -1.3651
12906TIP3    H260134   6.679   3.797  15.626  0.2784  1.6162  0.9517
12907TIP3   OH260135   1.149   6.688   3.382  0.3051  0.0664  0.2161
12907TIP3    H160136   1.178   6.692   3.473 -1.2854  1.3076  0.7369
12907TIP3    H260137   1.108   6.774   3.367 -2.0350 -1.1085 -0.7283
12908TIP3   OH260138   5.938   0.067   0.959  0.1038 -0.1055 -0.3572
12908TIP3    H160139   6.005   0.010   0.920 -1.5620 -0.6861 -2.5616
12908TIP3    H260140   5.947   0.150   0.913  0.6980  0.5579  0.8984
12909TIP3   OH260141   1.925   1.002  16.933  0.9733  0.0704 -0.3776
12909TIP3    H160142   1.994   1.010  16.867  0.9821  3.6194 -0.1115
12909TIP3    H260143   1.942   1.073  16.994 -2.2142  0.3367  0.3757
12910TIP3   OH260144   3.180   2.720  13.890 -0.1835 -0.3824  0.3455
12910TIP3    H160145   3.111   2.667  13.931  1.4178 -2.4782  0.4709
12910TIP3    H260146   3.179   2.693  13.798 -1.7889  2.1588 -0.4898
12911TIP3   OH260147   3.910   1.154   5.936  0.4591 -0.5364  0.4714
12911TIP3    H160148   3.966   1.227   5.908  0.3262 -0.5856  0.0721
12911TIP3    H260149   3.891   1.106   5.855  0.1176 -0.7127  0.6548
12912TIP3   OH260150   5.395   1.988   2.989 -0.5335  0.6729  0.4545
12912TIP3    H160151   5.410   2.080   2.969 -1.3400  0.5334 -0.9269
12912TIP3    H260152   5.421   1.941   2.909 -1.0444 -0.2078  0.7855
12913TIP3   OH260153   4.658   5.467  14.342 -0.2502  0.3548  0.0860
12913TIP3    H160154   4.645   5.450  14.249 -0.0700  1.0217 -0.0705
12913TIP3    H260155   4.711   5.547  14.344  0.2719 -0.0064  0.7556
12914TIP3   OH260156   5.975   1.484  16.451 -0.4375  0.2137  0.2090
12914TIP3    H160157   6.022   1.408  16.416  0.0441  0.6179 -0.0401
12914TIP3    H260158   5.952   1.459  16.540 -0.4439 -0.2948  0.0687
12915TIP3   OH260159   0.329   6.072   0.189 -0.0313  0.0079  0.5731
12915TIP3    H160160   0.247   6.030   0.215 -0.7403  0.9721 -0.0777
12915TIP3    H260161   0.310   6.166   0.190  0.2184  0.1706 -2.2489
12916TIP3   OH260162   5.092   3.459  11.989 -0.5675  0.1731 -0.2127
12916TIP3    H160163   5.150   3.421  12.055  1.4685  0.4407 -1.7311
12916TIP3    H260164   5.042   3.525  12.037  1.8532  1.3835  0.8612
12917TIP3   OH260165   6.519   6.385   1.799  0.0487  0.5178  0.6144
12917TIP3    H160166   6.552   6.430   1.876  0.5455  1.5760 -0.1957
12917TIP3    H260167   6.575   6.414   1.728 -0.1332 -0.7688 -0.0915
12918TIP3   OH260168   5.466   0.005  13.019 -0.0996  0.4485 -0.1623
12918TIP3    H160169   5.492   0.060  12.945  2.3155 -0.6767 -0.2380
12918TIP3    H260170   5.543   0.003  13.076 -1.0484 -0.7155  1.1398
12919TIP3   OH260171   2.463   1.812  10.743  0.2666 -0.4549 -0.4136
12919TIP3    H160172   2.377   1.845  10.720 -1.2895 -2.7416  1.6161
12919TIP3    H260173   2.489   1.757  10.670 -0.3580 -0.4038 -0.6755
12920TIP3   OH260174   6.548   1.845   4.845 -0.2184  0.1388  0.3352
12920TIP3    H160175   6.480   1.799   4.894  0.4501  0.7261  1.8787
12920TIP3    H260176   6.612   1.778   4.825 -0.3364 -0.0485  0.5760
12921TIP3   OH260177   0.214   0.320   5.118  0.5348 -0.3942  0.4349
12921TIP3    H160178   0.252   0.392   5.168  1.0971 -1.2235  1.2378
12921TIP3    H260179   0.137   0.358   5.076 -0.1409  0.2659  2.1861
12922TIP3   OH260180   0.346   6.407   0.967  0.5897 -0.3202  0.0785
12922TIP3    H160181   0.439   6.405   0.944  0.3370  0.7816 -1.1775
12922TIP3    H260182   0.316   6.317   0.956  1.4236 -0.6043  0.1012
12923TIP3   OH260183   4.560   2.494  13.149 -0.2208  0.1073  0.1537
12923TIP3    H160184   4.525   2.406  13.138  1.6713 -0.4734 -1.9159
12923TIP3    H260185   4.483   2.551  13.141 -1.4060 -1.2741  1.0591
12924TIP3   OH260186   6.698   0.319  17.243 -0.3255 -0.5943 -0.0490
12924TIP3    H160187   6.789   0.291  17.231 -0.7366 -1.9568 -0.2342
12924TIP3    H260188   6.653   0.240  17.275 -1.1279  0.4644  1.5677
12925TIP3   OH260189   0.303   0.919   4.586 -0.1932 -0.0630 -0.0457
12925TIP3    H160190   0.275   0.887   4.673 -0.4516  0.0654 -0.0799
12925TIP3    H260191   0.387   0.876   4.571 -0.4428 -0.5806 -0.0043
12926TIP3   OH260192   5.903   0.124  14.884  0.2976  0.2248 -0.6455
12926TIP3    H160193   5.817   0.107  14.846 -1.3918  1.3775  2.2730
12926TIP3    H260194   5.900   0.217  14.909  1.8542 -0.0439  0.7062
12927TIP3   OH260195   0.089   4.116  12.881  0.3854 -0.2377  0.5800
12927TIP3    H160196   0.076   4.134  12.974  0.1697 -0.3892  0.5777
12927TIP3    H260197   0.077   4.021  12.872  1.7441 -0.4354  0.6296
12928TIP3   OH260198   1.416   5.625   0.564  0.4176 -0.2915 -0.1823
12928TIP3    H160199   1.392   5.617   0.657 -0.8471  1.6452 -0.2683
12928TIP3    H260200   1.480   5.556   0.549 -0.5606 -1.6941  1.7252
12929TIP3   OH260201   6.307   1.530  15.087 -0.3526  0.4481 -0.1404
12929TIP3    H160202   6.298   1.449  15.037  0.6620  0.4506 -0.3518
12929TIP3    H260203   6.325   1.597  15.021 -2.3790  1.1105 -0.1049
12930TIP3   OH260204   3.801   4.023  17.281  0.2855 -0.2558  0.4734
12930TIP3    H160205   3.878   4.029  17.338  0.9132  0.3036 -0.4069
12930TIP3    H260206   3.830   4.060  17.198 -1.0987  0.4516  0.2746
12931TIP3   OH260207   6.400   6.426  16.933 -1.0875 -0.7003  0.1773
12931TIP3    H160208   6.324   6.401  16.986 -1.1199 -0.7578  0.1044
12931TIP3    H260209   6.366   6.490  16.871 -0.8595  0.0198  0.7940
12932TIP3   OH260210   1.348   0.718   5.833  0.2163  0.5357  0.1183
12932TIP3    H160211   1.370   0.797   5.882 -0.2101  0.8496 -0.1885
12932TIP3    H260212   1.431   0.671   5.825  0.6543  1.3706 -0.4409
12933TIP3   OH260213   0.808   0.217   1.016  0.3891  0.4957 -0.1932
12933TIP3    H160214   0.748   0.254   0.952  0.5105  0.7263 -0.1767
12933TIP3    H260215   0.849   0.293   1.057  0.4081  0.3469  0.0661
12934TIP3   OH260216   1.564   4.936  14.482 -0.0580 -0.6605 -0.0138
12934TIP3    H160217   1.524   4.857  14.445 -1.4531 -0.6132  1.2911
12934TIP3    H260218   1.526   5.008  14.432 -0.6501 -0.6948  0.3739
12935TIP3   OH260219   4.697   3.395  12.196 -0.0930 -0.5810 -0.1659
12935TIP3    H160220   4.761   3.325  12.183 -0.8809 -1.2897 -0.3154
12935TIP3    H260221   4.663   3.413  12.108  1.9900  1.8832 -0.5880
12936TIP3   OH260222   5.567   1.244   4.028 -0.0170 -0.1888 -0.1269
12936TIP3    H160223   5.631   1.228   4.097  0.2186 -0.8936 -0.5007
12936TIP3    H260224   5.529   1.329   4.050 -0.0756 -0.4818  0.9754
12937TIP3   OH260225   3.143   6.672  16.300  0.2151  0.2018  0.1395
12937TIP3    H160226   3.228   6.706  16.271 -0.4871  0.9425 -1.1510
12937TIP3    H260227   3.134   6.588  16.256 -0.6509  1.1220 -1.5541
12938TIP3   OH260228   1.396   3.504  12.729 -0.4151 -0.0395  0.1453
12938TIP3    H160229   1.414   3.417  12.766  1.3194 -0.8681 -2.4243
12938TIP3    H260230   1.309   3.497  12.692 -1.1873  0.0601  1.8501
12939TIP3   OH260231   4.035   4.163  13.193  0.3102 -0.1625  0.3474
12939TIP3    H160232   4.099   4.111  13.144 -0.0150  1.2753 -1.7441
12939TIP3    H260233   3.967   4.100  13.217 -0.7641 -0.6232 -3.2894
12940TIP3   OH260234   4.369   6.201  13.141 -0.0780  0.1674 -0.9328
12940TIP3    H160235   4.292   6.193  13.199  0.4214  1.5291 -0.0429
12940TIP3    H260236   4.351   6.278  13.088 -0.3350 -0.8317 -2.3513
12941TIP3   OH260237   2.330   2.142  13.377  0.7349 -0.4442  0.1612
12941TIP3    H160238   2.249   2.179  13.341  0.7191 -0.0794  0.5537
12941TIP3    H260239   2.385   2.126  13.301 -0.6685 -3.1497 -0.4046
12942TIP3   OH260240   4.899   6.321   2.647  0.0286  0.1657 -0.2117
12942TIP3    H160241   4.954   6.333   2.725  0.5842  2.7148 -0.8972
12942TIP3    H260242   4.958   6.340   2.574 -0.7757 -1.0700 -1.2263
12943TIP3   OH260243   1.377   0.388  11.288 -0.3677 -0.0899  0.0055
12943TIP3    H160244   1.435   0.416  11.358  1.1422 -1.1172 -0.7848
12943TIP3    H260245   1.412   0.430  11.210 -0.6221 -0.7872 -0.4987
12944TIP3   OH260246   3.632   1.117   2.394 -0.0546  0.3829 -0.4854
12944TIP3    H160247   3.724   1.138   2.380 -0.0506  0.4890 -0.3039
12944TIP3    H260248   3.623   1.026   2.364 -0.4902  1.2026 -3.1522
12945TIP3   OH260249   3.232   6.362   6.170 -0.3103 -0.2675  0.6181
12945TIP3    H160250   3.210   6.340   6.079 -2.7495  0.5201  0.9302
12945TIP3    H260251   3.211   6.456   6.177  0.4175 -0.1802  1.8554
12946TIP3   OH260252   2.722   5.909  15.822 -0.5877 -0.4766  0.1048
12946TIP3    H160253   2.744   5.961  15.899  0.9859 -1.9405  0.7307
12946TIP3    H260254   2.653   5.850  15.852  0.0814 -1.1033  0.4781
12947TIP3   OH260255   2.619   5.480  15.965 -0.6005  0.2952  0.2193
12947TIP3    H160256   2.705   5.448  15.937 -0.3626  1.8803 -1.0583
12947TIP3    H260257   2.623   5.480  16.060  0.9770  0.6979  0.1802
12948TIP3   OH260258   6.353   2.783   4.447  0.1065 -0.3580  0.1172
12948TIP3    H160259   6.326   2.868   4.412  0.0163 -0.2676  0.4032
12948TIP3    H260260   6.447   2.792   4.463  0.1975 -0.4835 -0.3390
12949TIP3   OH260261   6.203   3.825  16.017 -0.3567 -0.3639  0.1625
12949TIP3    H160262   6.225   3.896  15.957  1.0394 -0.8908  0.0141
12949TIP3    H260263   6.121   3.853  16.059  0.9225  2.0902  1.2445
12950TIP3   OH260264   5.422   0.449  14.818 -1.0011 -0.1596 -0.1334
12950TIP3    H160265   5.423   0.469  14.725 -1.6825 -0.8810 -0.3052
12950TIP3    H260266   5.386   0.360  14.823 -1.6051  0.1269  0.8592
12951TIP3   OH260267   5.242   5.902   3.706  0.8746  0.2826  0.1044
12951TIP3    H160268   5.203   5.865   3.785  2.5101  0.8033  1.1872
12951TIP3    H260269   5.167   5.913   3.646 -0.2235 -1.1369  1.1400
12952TIP3   OH260270   6.524   6.591  11.758 -0.7845 -0.6801  0.5880
12952TIP3    H160271   6.508   6.630  11.844 -1.1114  1.1382 -0.2349
12952TIP3    H260272   6.619   6.582  11.753 -0.6861  0.1363  0.7951
12953TIP3   OH260273   4.815   1.054  13.753  0.5935  0.7808  0.4941
12953TIP3    H160274   4.785   1.053  13.663 -0.8225  0.5084  0.9443
12953TIP3    H260275   4.797   0.966  13.786 -0.6659  1.3988  1.5671
12954TIP3   OH260276   5.593   1.141  15.108 -0.1284 -0.5277 -0.2061
12954TIP3    H160277   5.659   1.210  15.100 -1.4990  0.6290 -2.6692
12954TIP3    H260278   5.594   1.117  15.201  0.6151  2.5892  0.6958
12955TIP3   OH260279   1.926   2.545  15.674  0.5740 -0.4411  0.0688
12955TIP3    H160280   1.897   2.516  15.761  1.4601 -1.7127 -0.0326
12955TIP3    H260281   2.016   2.515  15.668  0.7150  0.1767 -1.0697
12956TIP3   OH260282   1.921   1.115   1.527 -0.1908  0.9398 -0.4423
12956TIP3    H160283   1.978   1.067   1.587 -1.6915 -1.0322 -0.4950
12956TIP3    H260284   1.957   1.203   1.525  2.6930 -0.1284 -0.2968
12957TIP3   OH260285   5.183   0.763  15.608 -1.1567  0.7766  0.8639
12957TIP3    H160286   5.089   0.747  15.619 -1.1622  1.0306  1.2045
12957TIP3    H260287   5.187   0.853  15.575 -1.2629 -0.4710 -3.1127
12958TIP3   OH260288   6.147   1.277   0.880 -0.3976 -0.8031  0.4685
12958TIP3    H160289   6.062   1.320   0.892 -0.3401 -0.4292 -0.4206
12958TIP3    H260290   6.210   1.349   0.882 -0.2313 -0.9230 -0.2589
12959TIP3   OH260291   2.847   0.244  11.624 -0.0073 -0.1475  0.1157
12959TIP3    H160292   2.888   0.329  11.642 -3.5901  2.0232 -0.8993
12959TIP3    H260293   2.783   0.232  11.694 -0.7543 -1.1235 -0.6995
12960TIP3   OH260294   5.907   6.729   6.313 -0.9324 -0.4300  0.6729
12960TIP3    H160295   5.904   6.647   6.263 -0.0659 -0.8695  1.3099
12960TIP3    H260296   5.998   6.736   6.342 -1.3650 -0.0968  2.0256
12961TIP3   OH260297   0.107   6.772   2.294 -0.5124 -0.2690 -0.0517
12961TIP3    H160298   0.129   6.696   2.348  3.1728  1.1267  0.6834
12961TIP3    H260299   0.111   6.846   2.355 -1.2625  0.8370 -1.3067
12962TIP3   OH260300   1.781   3.433  13.907  0.8736  0.1760  0.1160
12962TIP3    H160301   1.751   3.390  13.827 -3.2809 -1.6156  2.2911
12962TIP3    H260302   1.732   3.516  13.909 -0.8867 -0.8084  1.6858
12963TIP3   OH260303   1.099   3.774   2.119 -0.4493  0.1721  0.4145
12963TIP3    H160304   1.108   3.681   2.140 -2.1882 -0.1555 -0.1500
12963TIP3    H260305   1.189   3.805   2.109  0.1566 -1.5251  0.3011
12964TIP3   OH260306   4.066   6.679  17.026 -0.1496  0.8088  0.0218
12964TIP3    H160307   4.139   6.629  17.063 -0.2876  0.5693 -0.0289
12964TIP3    H260308   4.021   6.715  17.102  0.2047  1.2184  0.0395
12965TIP3   OH260309   2.881   0.046   0.052 -0.3418  0.6628 -0.2227
12965TIP3    H160310   2.803   0.082   0.010  0.9430  2.1686 -1.4577
12965TIP3    H260311   2.901   0.108   0.122 -0.7684 -0.2395  0.7261
12966TIP3   OH260312   5.629   4.635   1.038 -0.1353 -0.2448 -0.2698
12966TIP3    H160313   5.668   4.649   1.125 -0.2917 -1.6898  0.0682
12966TIP3    H260314   5.535   4.649   1.052  0.0643  1.9025 -0.7804
12967TIP3   OH260315   3.187   1.936  13.922  0.1194 -0.3686  0.0655
12967TIP3    H160316   3.211   1.853  13.880 -0.1455 -0.2121 -0.4027
12967TIP3    H260317   3.119   1.972  13.865  0.7376  0.5118 -0.1278
12968TIP3   OH260318   3.325   5.414   2.103  0.1708  0.5984 -0.4045
12968TIP3    H160319   3.301   5.444   2.016 -2.8767  0.0501  0.1250
12968TIP3    H260320   3.357   5.324   2.090  1.8629  1.2612 -1.1246
12969TIP3   OH260321   0.918   3.049   0.984  0.3505  0.1889  0.2203
12969TIP3    H160322   0.975   3.017   0.915 -0.4682  0.6988 -0.7266
12969TIP3    H260323   0.849   2.983   0.990 -0.5415  1.0018 -0.7142
12970TIP3   OH260324   1.215   4.286   3.878 -0.4085 -0.3390  0.1794
12970TIP3    H160325   1.159   4.230   3.824  0.6984  1.4995 -3.1836
12970TIP3    H260326   1.155   4.352   3.913 -1.0377 -1.0192  0.3902
12971TIP3   OH260327   3.706   2.264  15.137  0.7681 -0.0005 -0.0665
12971TIP3    H160328   3.683   2.357  15.129 -0.8422 -0.5282 -3.2051
12971TIP3    H260329   3.768   2.249  15.065  0.5682 -1.4701  0.0485
12972TIP3   OH260330   0.380   0.574  16.850 -0.5361  0.5940 -0.1749
12972TIP3    H160331   0.407   0.664  16.868 -1.3368  1.3793 -2.5801
12972TIP3    H260332   0.284   0.576  16.859 -0.4237 -0.8288  2.7409
12973TIP3   OH260333   2.216   2.762   4.383  0.8708 -0.0410  0.1517
12973TIP3    H160334   2.245   2.793   4.298  0.4345 -0.5588 -0.1968
12973TIP3    H260335   2.289   2.780   4.442  0.4239  2.1664  0.1118
12974TIP3   OH260336   2.257   2.969  12.303 -0.1605 -0.0069  1.0014
12974TIP3    H160337   2.171   2.933  12.325 -0.2916 -1.1443 -1.1660
12974TIP3    H260338   2.319   2.910  12.345 -0.4070 -2.0855 -1.3298
12975TIP3   OH260339   3.597   0.178  17.261  0.2891 -0.2961 -0.1698
12975TIP3    H160340   3.604   0.221  17.346 -1.4032 -1.6075  0.6877
12975TIP3    H260341   3.679   0.199  17.217  1.9832 -0.9722  2.4314
12976TIP3   OH260342   2.663   4.841   0.583 -0.1481  0.2064  0.0970
12976TIP3    H160343   2.705   4.868   0.501  0.2238  2.0401  0.8358
12976TIP3    H260344   2.589   4.788   0.555  0.9972 -0.7418 -1.3413
12977TIP3   OH260345   5.606   5.089   2.009  0.1024  0.3531  0.3038
12977TIP3    H160346   5.580   5.131   2.091  1.4102  1.3119  0.2559
12977TIP3    H260347   5.581   4.997   2.021  0.2272  0.4787  1.7664
12978TIP3   OH260348   3.353   5.680  14.647  1.1076  0.6002 -0.3432
12978TIP3    H160349   3.361   5.735  14.569 -0.9555  0.3295 -0.7813
12978TIP3    H260350   3.369   5.591  14.615  0.6082  0.5280 -0.3981
12979TIP3   OH260351   4.931   5.830   5.897  0.1259  0.0620  0.1218
12979TIP3    H160352   4.953   5.892   5.967  2.8707 -0.2766 -0.3060
12979TIP3    H260353   4.878   5.881   5.836  1.4394  1.7292  0.2843
12980TIP3   OH260354   2.131   1.168  14.091  0.3361 -0.8430  0.5085
12980TIP3    H160355   2.042   1.195  14.067  0.0902 -0.9226  1.2959
12980TIP3    H260356   2.146   1.088  14.040  0.9155  0.4641 -1.5223
12981TIP3   OH260357   6.736   1.818   3.183 -0.7740  0.0598 -0.7786
12981TIP3    H160358   6.777   1.736   3.210 -1.0741  0.2535  0.2968
12981TIP3    H260359   6.664   1.831   3.244 -0.9448  0.9465 -1.1475
12982TIP3   OH260360   3.714   4.198  13.819  0.1153  0.2076 -0.3892
12982TIP3    H160361   3.705   4.104  13.806 -0.9090  0.3787 -1.0240
12982TIP3    H260362   3.809   4.214  13.815  0.1973 -0.3955 -3.3399
12983TIP3   OH260363   4.301   3.504   5.017 -0.0363  0.0442  0.3742
12983TIP3    H160364   4.329   3.413   5.005 -0.5520  0.1054 -1.8002
12983TIP3    H260365   4.308   3.543   4.929  2.6330  2.8835  1.6166
12984TIP3   OH260366   5.099   2.744  15.704 -0.3365  0.1374  0.3297
12984TIP3    H160367   5.108   2.831  15.743 -1.4917  0.1336  0.6419
12984TIP3    H260368   5.044   2.696  15.765  0.8508 -1.0604  0.5167
12985TIP3   OH260369   4.325   0.495   3.854  0.4055 -0.3127  0.0622
12985TIP3    H160370   4.339   0.494   3.949  1.4112 -0.8027 -0.0669
12985TIP3    H260371   4.232   0.510   3.843 -0.0328 -1.9238  1.1832
12986TIP3   OH260372   5.440   1.011   5.993 -0.2409 -0.7273 -0.1362
12986TIP3    H160373   5.408   0.961   5.918 -0.2117 -0.3088 -0.4303
12986TIP3    H260374   5.392   1.094   5.989 -0.8280 -1.0113  0.7693
12987TIP3   OH260375   5.796   5.901  14.132 -0.4641 -0.3072 -0.6881
12987TIP3    H160376   5.715   5.949  14.149 -0.2397 -0.3740  0.7278
12987TIP3    H260377   5.781   5.857  14.048 -1.4471  0.5960 -1.0054
12988TIP3   OH260378   1.392   4.798  14.795  0.6092  0.2568 -0.0629
12988TIP3    H160379   1.412   4.762  14.881  0.3400  0.7269  0.2034
12988TIP3    H260380   1.461   4.863  14.779  0.4974  0.3757 -0.0701
12989TIP3   OH260381   4.927   1.320   1.521 -0.1159  0.3800  0.3940
12989TIP3    H160382   4.969   1.329   1.435  0.4054 -0.6765  0.5250
12989TIP3    H260383   4.971   1.383   1.577  0.5966 -0.0000  0.2662
12990TIP3   OH260384   3.831   5.489  10.874  0.3429  0.5096  0.6103
12990TIP3    H160385   3.741   5.519  10.880  0.3110  0.4012  0.6818
12990TIP3    H260386   3.833   5.408  10.926  0.7230  1.0593  1.4726
12991TIP3   OH260387   0.972   1.840   5.714 -0.1426  0.4203  0.3435
12991TIP3    H160388   1.017   1.766   5.673 -0.2228  1.1434 -1.1101
12991TIP3    H260389   0.904   1.865   5.651 -0.5747  1.2859  1.1239
12992TIP3   OH260390   6.434   2.956   3.987  1.1970  0.4706 -0.3362
12992TIP3    H160391   6.364   2.977   4.049  1.9728  1.2985  0.2855
12992TIP3    H260392   6.408   2.999   3.906  2.1005  2.8749  0.5451
12993TIP3   OH260393   2.423   6.600  14.372 -0.2375  0.0187  0.5539
12993TIP3    H160394   2.469   6.680  14.348 -1.6139  0.6646  0.0148
12993TIP3    H260395   2.361   6.585  14.300 -2.9372  0.7902  2.5598
12994TIP3   OH260396   0.843   5.225  12.909  0.0831  0.5203  0.8134
12994TIP3    H160397   0.901   5.188  12.843 -0.0577  1.2357  0.2740
12994TIP3    H260398   0.754   5.211  12.875  0.0577  3.2481 -0.5154
12995TIP3   OH260399   3.078   5.029   0.733 -0.1051  0.2028 -0.2226
12995TIP3    H160400   3.009   4.963   0.722  0.5807 -0.6201  0.3098
12995TIP3    H260401   3.148   5.000   0.674  0.1879  0.4794 -0.0104
12996TIP3   OH260402   6.169   2.753   1.583  0.2970  0.4580 -0.6549
12996TIP3    H160403   6.234   2.720   1.645 -0.1471 -1.0439 -0.9411
12996TIP3    H260404   6.125   2.823   1.631 -0.0231 -0.6516  0.7662
12997TIP3   OH260405   2.827   6.055  10.921  0.4318  0.2115  0.3733
12997TIP3    H160406   2.814   6.009  11.004 -0.7353  0.8083  0.5595
12997TIP3    H260407   2.873   5.993  10.865 -1.7191 -1.5154  0.3554
12998TIP3   OH260408   1.475   0.495   5.424  0.0464 -0.5734  0.3647
12998TIP3    H160409   1.495   0.450   5.341  0.8950 -0.6272  0.5858
12998TIP3    H260410   1.408   0.441   5.465 -0.4134 -0.5198 -0.3133
12999TIP3   OH260411   3.214   6.225   2.777  0.2830  0.2267 -0.4860
12999TIP3    H160412   3.203   6.133   2.800  0.1350  0.7188  1.6978
12999TIP3    H260413   3.129   6.252   2.742 -0.3965  0.0087  0.9003
13000TIP3   OH260414   2.247   3.492   5.790  0.3786  0.1208 -0.3274
13000TIP3    H160415   2.339   3.499   5.815  0.2253  1.2404 -0.0303
13000TIP3    H260416   2.202   3.559   5.843 -0.4001  0.5316 -1.4716
13001TIP3   OH260417   6.602   1.595   5.506  0.7987 -0.1762 -0.3779
13001TIP3    H160418   6.614   1.674   5.558 -0.3934 -1.7609  2.5193
13001TIP3    H260419   6.690   1.570   5.478  1.7360 -0.0327  2.2309
13002TIP3   OH260420   3.826   2.370  16.160  0.7284  0.1964 -0.1887
13002TIP3    H160421   3.826   2.275  16.148  1.5858 -0.0177  1.2586
13002TIP3    H260422   3.762   2.402  16.097  1.2459 -1.2339 -1.5131
13003TIP3   OH260423   5.862   6.701  13.675  0.3138  0.4617 -0.3689
13003TIP3    H160424   5.871   6.626  13.616 -0.5046  1.1796 -1.4284
13003TIP3    H260425   5.927   6.763  13.644 -1.4389  1.6531 -1.8174
13004TIP3   OH260426   2.823   2.188   1.721 -0.1079 -0.4213  0.1301
13004TIP3    H160427   2.752   2.199   1.657  1.3832 -2.2101 -1.9809
13004TIP3    H260428   2.868   2.272   1.721 -0.3274 -0.2911 -0.9516
13005TIP3   OH260429   4.495   3.715  14.060 -0.5563 -0.0129  0.1310
13005TIP3    H160430   4.524   3.650  13.996 -2.0835 -0.7862  0.1961
13005TIP3    H260431   4.480   3.794  14.008  1.4120  0.3809  0.0672
13006TIP3   OH260432   6.091   5.463  13.062  0.2976  0.0958 -0.5892
13006TIP3    H160433   6.155   5.482  12.994  0.8801  0.8737  0.1514
13006TIP3    H260434   6.130   5.393  13.114  0.1534 -0.0333 -0.6527
13007TIP3   OH260435   0.354   6.104  12.887  0.8177  0.2798  0.2739
13007TIP3    H160436   0.381   6.136  12.801  0.3488  0.6176  0.2469
13007TIP3    H260437   0.265   6.138  12.898  0.4610 -0.6509  0.4304
13008TIP3   OH260438   2.791   3.640  16.895  0.4065 -0.3289  0.1626
13008TIP3    H160439   2.876   3.623  16.854  0.8533  0.4098  0.7669
13008TIP3    H260440   2.796   3.596  16.980 -0.2744 -1.2998 -0.2791
13009TIP3   OH260441   0.501   2.013  16.973  0.1244 -0.1399  0.6247
13009TIP3    H160442   0.502   2.070  16.895  0.1758 -1.5161 -0.4210
13009TIP3    H260443   0.444   1.940  16.948 -1.6676  0.4390  2.6925
13010TIP3   OH260444   0.913   2.317   4.528 -0.0303  0.1095  0.5222
13010TIP3    H160445   0.842   2.352   4.583 -0.7926 -0.1834 -0.2515
13010TIP3    H260446   0.888   2.340   4.439  0.4762 -0.6500  0.1736
13011TIP3   OH260447   5.761   6.304  13.283  0.3068 -0.3794  0.1996
13011TIP3    H160448   5.821   6.236  13.253 -0.0084 -0.6043  0.0870
13011TIP3    H260449   5.787   6.319  13.375  1.3232  0.3728 -0.1873
13012TIP3   OH260450   3.336   1.074  15.974  0.1710 -0.2790 -0.1760
13012TIP3    H160451   3.339   1.136  15.901 -0.9275  0.3650  0.2986
13012TIP3    H260452   3.360   1.127  16.050  0.7327 -0.8087  0.0218
13013TIP3   OH260453   1.196   5.989  10.916 -0.0766 -0.2963 -0.1413
13013TIP3    H160454   1.145   5.956  10.842 -1.8799 -0.3053  1.0546
13013TIP3    H260455   1.147   5.961  10.993  1.8170 -0.3841  1.0766
13014TIP3   OH260456   0.051   0.207  16.466  0.5823 -0.4793  0.0051
13014TIP3    H160457   0.125   0.160  16.428  1.7651  0.2466  1.3183
13014TIP3    H260458   0.063   0.198  16.560 -1.0572 -0.3925  0.2498
13015TIP3   OH260459   3.692   4.166   0.466 -0.3554 -0.5492  0.7163
13015TIP3    H160460   3.598   4.163   0.486 -0.4007  0.2488  0.6394
13015TIP3    H260461   3.705   4.095   0.404 -1.1213  0.0406 -0.1419
13016TIP3   OH260462   5.338   0.085   3.625 -0.3850  0.1059  0.2458
13016TIP3    H160463   5.413   0.119   3.674  0.6230 -2.1991  0.4269
13016TIP3    H260464   5.376   0.054   3.543 -0.7230 -2.6816  1.0312
13017TIP3   OH260465   3.062   0.982  13.257 -0.0993 -0.5015 -0.4976
13017TIP3    H160466   3.076   1.055  13.318 -1.3653 -0.1203 -0.6352
13017TIP3    H260467   3.117   0.912  13.291  0.3041  0.1630  0.2710
13018TIP3   OH260468   4.175   3.894  13.118  0.4451  0.3013 -0.1079
13018TIP3    H160469   4.189   3.800  13.105 -1.5686 -0.0032 -0.4891
13018TIP3    H260470   4.259   3.934  13.098  0.3336 -1.0712 -4.2229
13019TIP3   OH260471   4.017   1.653  13.459  0.4248  0.0773 -0.1844
13019TIP3    H160472   3.964   1.660  13.538 -0.5597 -0.6290 -0.7613
13019TIP3    H260473   4.105   1.679  13.486 -0.0581  0.5421  0.9646
13020TIP3   OH260474   4.517   2.807   6.382 -0.2342 -0.3695  0.1340
13020TIP3    H160475   4.525   2.815   6.287  0.9454 -1.5521  0.0932
13020TIP3    H260476   4.425   2.783   6.396  0.0428 -2.3492 -0.9344
13021TIP3   OH260477   3.829   5.684   1.759  0.4244  0.1103 -0.6514
13021TIP3    H160478   3.921   5.688   1.733  1.2370 -0.6827  1.7905
13021TIP3    H260479   3.783   5.657   1.680  2.4952 -0.9372 -1.5819
13022TIP3   OH260480   6.655   3.336   4.206  0.3420  0.0097 -0.1998
13022TIP3    H160481   6.687   3.315   4.118 -1.2134  2.0316 -1.3157
13022TIP3    H260482   6.601   3.261   4.230  2.4463 -1.5510  0.0126
13023TIP3   OH260483   6.438   0.803   5.565 -0.7006  0.6169  1.0364
13023TIP3    H160484   6.368   0.866   5.548  0.4542  1.2275 -2.0121
13023TIP3    H260485   6.404   0.720   5.532 -0.0683  0.9097 -0.4267
13024TIP3   OH260486   6.534   3.223   5.783 -0.1075  0.0752  0.1605
13024TIP3    H160487   6.537   3.265   5.869 -0.4660 -0.5454  0.4794
13024TIP3    H260488   6.475   3.148   5.795  1.3139 -1.1212 -0.1450
13025TIP3   OH260489   0.228   3.486   3.042 -0.0405 -0.6975 -0.1999
13025TIP3    H160490   0.299   3.496   3.105  0.6713  0.9019 -1.1659
13025TIP3    H260491   0.251   3.547   2.971 -2.1896 -0.4044 -0.7124
13026TIP3   OH260492   2.768   1.332  13.968  0.5344 -0.7755 -0.0586
13026TIP3    H160493   2.775   1.403  13.904  0.5168 -0.7656 -0.0496
13026TIP3    H260494   2.855   1.292  13.969  0.2882 -1.3471 -0.7523
13027TIP3   OH260495   3.191   3.722   6.327 -0.0322  0.2937  0.1829
13027TIP3    H160496   3.225   3.737   6.238 -1.6074  1.6187 -0.2529
13027TIP3    H260497   3.110   3.673   6.314 -0.2074  0.3808  0.8932
13028TIP3   OH260498   1.719   4.443  13.271 -0.0854 -0.4482  0.1682
13028TIP3    H160499   1.751   4.516  13.324 -0.1022 -0.5194  0.2768
13028TIP3    H260500   1.625   4.460  13.261 -0.1794 -0.7023  0.5907
13029TIP3   OH260501   2.199   5.213   1.944 -0.1587 -0.0506 -0.7529
13029TIP3    H160502   2.108   5.240   1.954 -0.4285 -0.6136 -1.5295
13029TIP3    H260503   2.240   5.234   2.027 -0.7084  1.3202 -0.7996
13030TIP3   OH260504   3.795   2.761   4.615 -0.1427 -0.3019 -0.2590
13030TIP3    H160505   3.788   2.780   4.709 -1.5768 -1.5722 -0.0590
13030TIP3    H260506   3.874   2.806   4.587 -0.6117  1.5774  1.1918
13031TIP3   OH260507   2.185   5.117  15.341  0.5524 -0.7489  0.5468
13031TIP3    H160508   2.111   5.160  15.383 -0.1726 -1.2227 -0.2391
13031TIP3    H260509   2.259   5.137  15.399  0.0136  0.5431  0.8188
13032TIP3   OH260510   3.365   4.456   4.242  0.0683 -0.2076 -0.1873
13032TIP3    H160511   3.289   4.399   4.251 -1.1829  1.4220  0.0046
13032TIP3    H260512   3.429   4.421   4.304 -0.2797 -1.9357 -0.7442
13033TIP3   OH260513   6.213   1.908  17.088 -0.1105 -0.3138 -0.1970
13033TIP3    H160514   6.235   1.997  17.116 -0.4442  0.4873 -2.2959
13033TIP3    H260515   6.279   1.853  17.130  1.4796  1.1890 -0.5873
13034TIP3   OH260516   4.024   4.622  10.709 -0.1519  0.2381 -0.0642
13034TIP3    H160517   4.017   4.546  10.767  0.2029  0.1907 -0.0797
13034TIP3    H260518   3.940   4.626  10.663 -0.5662  0.4809  0.7036
13035TIP3   OH260519   1.598   5.459  14.836 -0.0080  0.2834 -0.0236
13035TIP3    H160520   1.688   5.483  14.856 -0.0016 -0.7356  1.3499
13035TIP3    H260521   1.570   5.522  14.770  1.1838  1.6443  0.7087
13036TIP3   OH260522   1.967   0.255  15.852 -0.0500  0.0674 -0.0823
13036TIP3    H160523   2.017   0.327  15.891 -0.9886 -0.1620  1.6905
13036TIP3    H260524   2.028   0.181  15.849  0.3918  0.4362 -0.1597
13037TIP3   OH260525   0.784   4.829   1.664  0.0595  0.2853  0.3413
13037TIP3    H160526   0.864   4.825   1.716  0.2805 -0.3928 -0.0301
13037TIP3    H260527   0.717   4.861   1.724  0.2973 -0.5188  1.0596
13038TIP3   OH260528   4.446   1.448   3.200  0.8580 -0.3551 -0.0885
13038TIP3    H160529   4.434   1.403   3.284 -1.1316 -0.9737 -0.6593
13038TIP3    H260530   4.359   1.479   3.177  1.9475  2.9465 -0.2553
13039TIP3   OH260531   3.891   0.792  15.271 -0.3402 -0.0417  0.4569
13039TIP3    H160532   3.853   0.859  15.215 -0.1578 -0.8241 -0.6399
13039TIP3    H260533   3.963   0.837  15.317 -0.0780  0.4594 -0.4230
13040TIP3   OH260534   4.826   2.143   0.814  0.0116  0.2697 -0.1043
13040TIP3    H160535   4.819   2.235   0.841  1.2324 -0.3601  2.7132
13040TIP3    H260536   4.888   2.104   0.876 -0.2969 -2.4306 -1.3409
13041TIP3   OH260537   5.521   2.391  12.918  0.0769  0.0362  0.0139
13041TIP3    H160538   5.529   2.364  13.010  0.2628 -1.2159 -0.3485
13041TIP3    H260539   5.598   2.354  12.875  0.1215  0.8212 -0.6102
13042TIP3   OH260540   4.353   3.419   1.306  0.2372  0.7138  0.2453
13042TIP3    H160541   4.265   3.411   1.341 -0.3754  0.6344 -1.2156
13042TIP3    H260542   4.381   3.328   1.292  0.9907  0.6966  1.6666
13043TIP3   OH260543   0.461   1.497   1.492  0.4795  0.0904 -0.3663
13043TIP3    H160544   0.473   1.428   1.426  2.7184  0.9445 -0.9219
13043TIP3    H260545   0.442   1.576   1.441 -1.8451  0.0104  0.2588
13044TIP3   OH260546   6.140   4.947   2.660  0.3587 -0.2764 -0.1547
13044TIP3    H160547   6.092   5.016   2.615 -1.5663 -1.3551  0.1144
13044TIP3    H260548   6.147   4.977   2.750  1.4083  0.4723 -0.4678
13045TIP3   OH260549   2.989   4.158   1.029 -0.4387  0.5164 -0.3135
13045TIP3    H160550   3.028   4.167   0.942 -0.6413 -3.4063 -1.0116
13045TIP3    H260551   2.899   4.189   1.018 -0.7912 -0.9114 -1.8807
13046TIP3   OH260552   3.299   6.335   1.585  0.2922 -0.1761  0.2575
13046TIP3    H160553   3.204   6.327   1.570  0.3058  0.0672  0.0339
13046TIP3    H260554   3.307   6.402   1.652  0.2831 -0.5369  0.6216
13047TIP3   OH260555   5.869   2.659   1.703  0.2873  0.3395  0.1767
13047TIP3    H160556   5.849   2.644   1.795 -0.2279  0.2895  0.0628
13047TIP3    H260557   5.939   2.597   1.682 -0.9766 -1.1021  0.0203
13048TIP3   OH260558   5.552   4.165   4.682  0.7643  0.2401  0.6646
13048TIP3    H160559   5.490   4.202   4.620 -1.0943 -1.0364  1.6703
13048TIP3    H260560   5.610   4.110   4.630 -0.0626  0.0668 -0.0819
13049TIP3   OH260561   0.477   4.846   0.716  0.2162  0.2167  0.1889
13049TIP3    H160562   0.384   4.827   0.732  0.6766 -3.2732 -0.3571
13049TIP3    H260563   0.523   4.797   0.785  1.6842  0.8085 -0.3397
13050TIP3   OH260564   1.581   3.759  14.594  0.0350 -0.1576 -0.4531
13050TIP3    H160565   1.564   3.672  14.560  0.6926 -0.8055  0.7872
13050TIP3    H260566   1.552   3.755  14.685  1.8927  0.2714  0.2040
13051TIP3   OH260567   0.403   0.691   2.806 -0.4856  0.5976  0.1132
13051TIP3    H160568   0.470   0.686   2.738  0.8253  0.0828  1.3745
13051TIP3    H260569   0.445   0.742   2.876 -1.9962  1.6035  0.3270
13052TIP3   OH260570   3.614   0.108  14.262  0.1567 -0.5147 -0.1182
13052TIP3    H160571   3.555   0.036  14.283 -1.9431  1.7808  2.7095
13052TIP3    H260572   3.679   0.107  14.332 -1.0098  1.3411  1.0781
13053TIP3   OH260573   4.630   6.745   0.087 -0.1180  0.1151  0.1077
13053TIP3    H160574   4.672   6.778   0.008  2.2384 -0.3550  1.0562
13053TIP3    H260575   4.626   6.822   0.145  2.1343 -0.3923  1.0340
13054TIP3   OH260576   0.616   1.622  16.319  0.6627 -0.0832 -0.2505
13054TIP3    H160577   0.531   1.617  16.365  1.0625  2.2721  0.9217
13054TIP3    H260578   0.600   1.683  16.247  0.9597 -0.9916 -1.1041
13055TIP3   OH260579   4.201   3.523   5.480  0.2147 -0.2528 -0.3217
13055TIP3    H160580   4.215   3.614   5.505 -1.4549 -0.1870  0.5318
13055TIP3    H260581   4.140   3.489   5.546 -0.6641 -1.4347 -1.6791
13056TIP3   OH260582   0.748   6.554   0.532 -0.1258  0.4376  0.0274
13056TIP3    H160583   0.837   6.589   0.540 -0.0885  0.0919  1.4954
13056TIP3    H260584   0.755   6.465   0.567 -1.1146  0.5081  0.4313
13057TIP3   OH260585   3.251   4.973   3.934  0.4216 -0.3339 -0.3887
13057TIP3    H160586   3.340   4.981   3.968  0.7683 -0.1383 -1.3344
13057TIP3    H260587   3.215   4.897   3.980  1.2477 -0.7255 -0.3734
13058TIP3   OH260588   1.570   2.680   3.846  0.7948  0.5660  1.1775
13058TIP3    H160589   1.493   2.713   3.801  1.2477  0.2383  0.1319
13058TIP3    H260590   1.549   2.589   3.866  1.1882  0.2410  0.1887
13059TIP3   OH260591   3.495   5.848  11.960 -0.0585  0.2176 -0.2403
13059TIP3    H160592   3.448   5.914  12.011 -1.0243  0.6145 -1.5911
13059TIP3    H260593   3.427   5.792  11.924  0.4955  0.5509 -1.9089
13060TIP3   OH260594   5.842   0.311  15.419  0.2396 -0.3900 -0.9115
13060TIP3    H160595   5.928   0.308  15.461 -0.2169 -0.0453  0.0852
13060TIP3    H260596   5.780   0.306  15.492 -0.5790  0.9135 -1.4936
13061TIP3   OH260597   4.704   6.279   1.992  0.2265 -0.2817 -0.2426
13061TIP3    H160598   4.713   6.185   1.974 -0.0938 -0.1677 -1.0183
13061TIP3    H260599   4.712   6.321   1.907 -1.5808  0.2517 -0.1944
13062TIP3   OH260600   4.678   6.528   1.252  0.2804 -0.5470  0.3347
13062TIP3    H160601   4.768   6.533   1.283  0.0634  1.9800  0.7983
13062TIP3    H260602   4.625   6.549   1.329 -0.6142 -0.3579 -0.3152
13063TIP3   OH260603   4.714   5.876  12.580  0.1583 -0.9913 -0.1676
13063TIP3    H160604   4.741   5.963  12.550  0.6158 -0.6601  1.1184
13063TIP3    H260605   4.694   5.888  12.673  0.0318 -2.2189 -0.0198
13064TIP3   OH260606   6.077   1.525  11.811 -0.3176  0.3318 -0.0948
13064TIP3    H160607   6.006   1.502  11.752 -1.0316  0.2371  0.7667
13064TIP3    H260608   6.147   1.462  11.792  0.2550  1.5215 -2.1701
13065TIP3   OH260609   4.429   5.776   0.291 -0.2027 -0.2985  0.1400
13065TIP3    H160610   4.476   5.729   0.360  1.0248 -1.9206 -1.7204
13065TIP3    H260611   4.456   5.867   0.301  1.0364 -0.7344  0.9385
13066TIP3   OH260612   0.364   4.676   2.599 -0.4336 -0.2955 -0.5692
13066TIP3    H160613   0.336   4.756   2.642 -0.6388 -0.6851  0.0461
13066TIP3    H260614   0.284   4.641   2.559 -0.4015 -0.3313 -0.6030
13067TIP3   OH260615   3.945   6.137   4.096 -0.1024  0.4682  0.1303
13067TIP3    H160616   4.039   6.130   4.079  0.1277  0.7847  1.2213
13067TIP3    H260617   3.933   6.225   4.130 -0.8270  0.4901 -0.1690
13068TIP3   OH260618   4.785   4.480  12.336  0.2809  0.1308  0.2857
13068TIP3    H160619   4.875   4.448  12.330  0.3333  0.5202 -1.7707
13068TIP3    H260620   4.731   4.401  12.329  0.4195 -0.1421  1.8667
13069TIP3   OH260621   4.945   3.112  15.795 -0.3584 -0.0903 -0.0224
13069TIP3    H160622   4.884   3.137  15.865 -1.7986  0.4404 -1.4030
13069TIP3    H260623   5.011   3.059  15.839 -1.0825  0.4219  1.7783
13070TIP3   OH260624   6.080   5.214  11.137 -0.1529 -0.1680  0.6948
13070TIP3    H160625   6.101   5.291  11.085 -2.6209 -0.4791 -0.9637
13070TIP3    H260626   5.986   5.201  11.123 -0.5505 -1.4727  3.7123
13071TIP3   OH260627   4.644   6.756   1.642 -0.1584  0.5294 -0.3318
13071TIP3    H160628   4.730   6.742   1.603 -0.0994  0.5602 -0.2132
13071TIP3    H260629   4.649   6.843   1.681 -0.1216  0.3878 -0.0128
13072TIP3   OH260630   0.897   3.019  11.220 -0.1510  0.4475 -0.2336
13072TIP3    H160631   0.847   2.985  11.294  0.6977  0.7041  0.4902
13072TIP3    H260632   0.845   2.998  11.143 -0.6529 -0.5885  0.3662
13073TIP3   OH260633   5.101   2.053   4.791 -0.1514  0.1999  0.1424
13073TIP3    H160634   5.141   1.970   4.817  0.1226 -0.1699 -1.3213
13073TIP3    H260635   5.061   2.087   4.870 -1.3943 -1.9690  0.5167
13074TIP3   OH260636   2.753   4.605   4.665  0.1019  0.0018 -0.1440
13074TIP3    H160637   2.755   4.700   4.677 -0.4959  0.1670 -1.1570
13074TIP3    H260638   2.746   4.569   4.753  0.3130  0.8959  0.2500
13075TIP3   OH260639   1.932   4.353  16.961 -0.0965  0.0160 -0.5455
13075TIP3    H160640   2.014   4.402  16.950 -1.5588  2.2864 -2.6180
13075TIP3    H260641   1.940   4.278  16.902  1.1268 -0.8158  0.6258
13076TIP3   OH260642   1.168   1.440  14.431 -0.5270 -0.0915 -0.6068
13076TIP3    H160643   1.117   1.429  14.350 -0.2622  0.9722 -0.9336
13076TIP3    H260644   1.256   1.411  14.408 -0.4094  0.3776 -0.7583
13077TIP3   OH260645   4.597   5.139   4.216  0.2379  0.5120 -0.3590
13077TIP3    H160646   4.562   5.181   4.294  2.6900 -1.2845  1.8516
13077TIP3    H260647   4.540   5.063   4.203  0.8514 -0.1776  0.8145
13078TIP3   OH260648   6.240   4.360   0.833 -0.3879  0.2911 -0.4459
13078TIP3    H160649   6.162   4.394   0.878 -1.1068 -0.6153 -0.9646
13078TIP3    H260650   6.290   4.317   0.902  0.1462  1.6708  0.0713
13079TIP3   OH260651   0.661   4.347  15.514  0.0826 -0.6012 -0.4084
13079TIP3    H160652   0.573   4.375  15.540  0.4116  0.2142 -0.1357
13079TIP3    H260653   0.703   4.427  15.483  0.7004 -1.0063 -0.6249
13080TIP3   OH260654   5.897   0.084   2.059  0.5073  0.1774  0.1970
13080TIP3    H160655   5.923   0.113   2.147  0.6280 -1.5313  0.7714
13080TIP3    H260656   5.947   0.003   2.045 -0.4105 -0.2228 -0.9478
13081TIP3   OH260657   0.386   1.299  14.607 -0.1045 -0.8213  0.0652
13081TIP3    H160658   0.406   1.227  14.546 -1.1624 -1.3247  0.2925
13081TIP3    H260659   0.301   1.332  14.578 -0.1224 -0.3627  0.6222
13082TIP3   OH260660   5.610   4.406  16.095  0.2482  0.4904 -0.1849
13082TIP3    H160661   5.636   4.325  16.051  2.1994  1.1268 -0.2788
13082TIP3    H260662   5.692   4.445  16.125 -0.7964  1.5736  1.4118
13083TIP3   OH260663   5.365   2.217   1.979 -0.0856  0.4164 -0.2724
13083TIP3    H160664   5.428   2.244   2.046 -0.9623  0.1656  0.6772
13083TIP3    H260665   5.323   2.139   2.016  0.3192 -0.4991 -1.6900
13084TIP3   OH260666   3.029   6.014   3.820 -0.4411  0.1784 -0.0435
13084TIP3    H160667   2.975   5.936   3.829  0.4705 -0.2751  2.2335
13084TIP3    H260668   2.975   6.085   3.855 -1.4108  0.7327 -2.4459
13085TIP3   OH260669   1.682   3.120  15.442  0.1459  0.2733  0.8936
13085TIP3    H160670   1.596   3.088  15.416 -0.2703  2.5248 -0.7894
13085TIP3    H260671   1.671   3.150  15.532 -0.5315 -0.3633  1.0337
13086TIP3   OH260672   0.545   5.360  14.906  0.5799 -0.1700 -0.2673
13086TIP3    H160673   0.523   5.334  14.816 -2.6481  0.8533  0.1091
13086TIP3    H260674   0.599   5.288  14.939 -0.5987 -2.0076 -2.0970
13087TIP3   OH260675   5.878   3.948  14.263 -0.4443  0.4753  0.3782
13087TIP3    H160676   5.881   4.029  14.314  0.5124  0.7987 -0.1607
13087TIP3    H260677   5.968   3.915  14.267 -0.6064 -0.0557 -0.2081
13088TIP3   OH260678   1.652   0.098   6.081  0.1689 -0.1574  0.2290
13088TIP3    H160679   1.625   0.036   6.013  2.4688 -0.8873 -0.1337
13088TIP3    H260680   1.679   0.042   6.154 -0.8292  0.5643  1.1621
13089TIP3   OH260681   2.697   4.476   1.470  0.0811 -0.7670 -0.3637
13089TIP3    H160682   2.667   4.559   1.508  2.5968 -0.2365  0.6895
13089TIP3    H260683   2.733   4.500   1.385  2.6636 -0.3403  0.7755
13090TIP3   OH260684   1.110   4.014  16.724 -0.1463  0.0145  0.9423
13090TIP3    H160685   1.173   4.084  16.740  0.7952 -0.7606  0.6956
13090TIP3    H260686   1.162   3.934  16.724 -0.1909 -0.3501 -4.0499
13091TIP3   OH260687   1.943   1.987  17.122 -0.1260  0.8968  0.1194
13091TIP3    H160688   1.883   1.913  17.124  0.6517  0.2629  1.3050
13091TIP3    H260689   1.906   2.050  17.185  0.0088  0.8581  0.2396
13092TIP3   OH260690   5.357   1.086   4.756 -0.4523  0.1588  0.2348
13092TIP3    H160691   5.342   1.039   4.675  0.8592  1.4641 -0.8184
13092TIP3    H260692   5.402   1.024   4.813 -0.6453 -0.5058 -0.3316
13093TIP3   OH260693   1.272   3.691   1.697 -0.0493  0.4029  0.0545
13093TIP3    H160694   1.291   3.759   1.762  0.0378  0.8052 -0.3860
13093TIP3    H260695   1.213   3.733   1.635 -1.3066 -0.4265  0.6563
13094TIP3   OH260696   2.090   2.068  12.636 -0.5050  0.3972  0.3152
13094TIP3    H160697   2.130   2.014  12.703 -1.0086  0.6409  0.8214
13094TIP3    H260698   2.130   2.039  12.554 -2.3324 -2.3235  0.2324
13095TIP3   OH260699   1.670   2.701   1.828 -0.4710  0.1657  0.2423
13095TIP3    H160700   1.666   2.631   1.762  1.7886  0.1834  0.0029
13095TIP3    H260701   1.694   2.656   1.909  0.2520  0.5361  0.2482
13096TIP3   OH260702   1.213   1.157  13.623  0.2892  0.1960 -0.2265
13096TIP3    H160703   1.254   1.150  13.709  0.2117 -1.1813 -0.2742
13096TIP3    H260704   1.127   1.115  13.635  0.3258 -0.1121 -0.9965
13097TIP3   OH260705   2.087   5.572  13.577 -0.5535  0.4900  0.2975
13097TIP3    H160706   2.103   5.643  13.514  0.1671 -0.3178 -0.4549
13097TIP3    H260707   2.012   5.602  13.628  0.8648  2.6446  1.2823
13098TIP3   OH260708   1.975   5.926  14.916  0.1890 -0.7883 -0.2083
13098TIP3    H160709   1.969   6.004  14.972  1.7146 -1.0668  0.3914
13098TIP3    H260710   2.069   5.910  14.908 -0.0333 -1.3707 -2.0218
13099TIP3   OH260711   1.123   0.153  16.142  0.5435 -0.4829  0.3184
13099TIP3    H160712   1.139   0.059  16.137  0.9656 -0.3853 -0.2646
13099TIP3    H260713   1.186   0.192  16.081  0.1088  0.1451  0.2530
13100TIP3   OH260714   2.777   4.378  12.045 -0.5690  0.3721 -0.1170
13100TIP3    H160715   2.730   4.303  12.009 -2.2216  1.2268  0.1037
13100TIP3    H260716   2.807   4.350  12.132 -0.2658 -0.3492 -0.4566
13101TIP3   OH260717   2.559   1.844  16.757  0.0456  0.1374  0.4640
13101TIP3    H160718   2.614   1.906  16.805  1.6756  0.7546 -2.0392
13101TIP3    H260719   2.571   1.760  16.803  1.0960  0.8009  1.4334
13102TIP3   OH260720   4.359   2.829  11.870 -0.1959  0.3157 -0.1349
13102TIP3    H160721   4.374   2.757  11.932  1.0623  1.2657  0.6889
13102TIP3    H260722   4.267   2.853  11.884 -0.8620 -1.5338 -0.9077
13103TIP3   OH260723   6.639   6.211  17.312  0.1331 -0.0169 -0.2351
13103TIP3    H160724   6.569   6.154  17.279  1.0443 -0.9472 -0.6230
13103TIP3    H260725   6.646   6.281  17.247  1.3787 -1.4012 -1.6874
13104TIP3   OH260726   2.005   0.057   1.673  0.0636  0.3948  0.2951
13104TIP3    H160727   1.929   0.114   1.663 -0.4521 -0.1685  0.9275
13104TIP3    H260728   2.075   0.102   1.626 -0.8853  0.4724 -1.1168
13105TIP3   OH260729   3.954   4.667   2.853  0.1612 -0.8414  0.4525
13105TIP3    H160730   3.965   4.761   2.867  0.0804 -0.7365 -0.1663
13105TIP3    H260731   4.033   4.627   2.889 -0.5748 -0.6968  2.3179
13106TIP3   OH260732   3.697   5.233  16.367  0.4864 -0.4347  0.5081
13106TIP3    H160733   3.789   5.252  16.385  0.8635 -3.0101  1.6441
13106TIP3    H260734   3.697   5.191  16.281 -0.1101  2.5100 -1.0555
13107TIP3   OH260735   3.598   0.983   3.922 -0.4164 -0.2936  0.3766
13107TIP3    H160736   3.549   0.932   3.985 -0.0820 -1.1200 -0.0110
13107TIP3    H260737   3.577   0.943   3.837  0.5053 -0.3393  0.1576
13108TIP3   OH260738   2.508   1.308  11.777  0.0895 -0.2660 -0.0418
13108TIP3    H160739   2.577   1.342  11.720  0.4286  1.0445  1.0976
13108TIP3    H260740   2.552   1.246  11.834  0.0004 -0.6101 -0.3406
13109TIP3   OH260741   4.354   3.944  13.323  0.4000 -0.0088  0.8918
13109TIP3    H160742   4.353   3.941  13.418  0.9006  1.0094  0.9416
13109TIP3    H260743   4.382   4.033  13.302 -0.4136  0.0094 -0.2145
13110TIP3   OH260744   2.645   2.197  14.388  0.4082 -0.1689  0.4236
13110TIP3    H160745   2.571   2.173  14.445  1.0691 -0.8903  0.9987
13110TIP3    H260746   2.619   2.281  14.350 -1.0077 -0.7277  0.0850
13111TIP3   OH260747   4.112   5.771  10.649  0.0464  0.0881 -0.3204
13111TIP3    H160748   4.193   5.727  10.675 -0.5894 -0.3116  1.0938
13111TIP3    H260749   4.082   5.722  10.573  2.8071  2.2784 -3.0374
13112TIP3   OH260750   4.434   3.949   3.969 -0.6350 -0.0146  0.0746
13112TIP3    H160751   4.361   3.935   3.909 -1.7032  1.3045  1.0086
13112TIP3    H260752   4.412   3.895   4.046 -1.0358  0.9689  0.6657
13113TIP3   OH260753   5.370   3.712  10.818  0.1106  0.2060 -0.6889
13113TIP3    H160754   5.389   3.796  10.860  1.0908  0.2493 -1.1922
13113TIP3    H260755   5.450   3.662  10.828 -0.1460 -0.3249 -1.2273
13114TIP3   OH260756   4.008   6.198  16.019 -0.7041  0.1335 -0.2432
13114TIP3    H160757   3.994   6.261  16.090 -1.3308 -1.4176  1.0591
13114TIP3    H260758   4.005   6.251  15.939  2.1492  2.3199  0.8975
13115TIP3   OH260759   0.056   6.685  14.746 -0.1707 -0.4482  0.0826
13115TIP3    H160760   0.048   6.732  14.663 -1.1727 -0.4034  0.1948
13115TIP3    H260761   0.118   6.738  14.797  0.2857 -0.3618 -0.5466
13116TIP3   OH260762   4.086   1.819  12.703  0.2616 -0.0399  0.3537
13116TIP3    H160763   4.007   1.836  12.653  0.6867 -1.2814 -0.8238
13116TIP3    H260764   4.139   1.898  12.693  0.3977 -0.3114 -1.3312
13117TIP3   OH260765   3.074   6.103  13.386  0.1512 -0.0134  0.6157
13117TIP3    H160766   3.021   6.106  13.306  0.9684  1.7882  0.0991
13117TIP3    H260767   3.123   6.021  13.378  2.5187  1.4472 -2.3629
13118TIP3   OH260768   0.417   6.572   0.237  0.0004 -0.6968 -0.2773
13118TIP3    H160769   0.501   6.618   0.237 -0.1225 -0.4638  0.5097
13118TIP3    H260770   0.382   6.586   0.324 -1.5711  0.4812 -1.0660
13119TIP3   OH260771   4.125   5.281  15.622 -0.0732 -0.6040  0.2167
13119TIP3    H160772   4.050   5.235  15.661  0.0689 -0.9147  0.1285
13119TIP3    H260773   4.087   5.335  15.552 -0.2760 -0.3698  0.5070
13120TIP3   OH260774   0.861   3.606   0.135  0.4203  0.1572  0.3974
13120TIP3    H160775   0.883   3.530   0.082 -0.0403  1.1008 -1.2028
13120TIP3    H260776   0.938   3.621   0.189  1.8953  0.6194 -1.7442
13121TIP3   OH260777   0.497   2.756  13.182 -0.3740  0.0052 -0.0274
13121TIP3    H160778   0.543   2.814  13.242 -0.2914  1.9555 -1.8510
13121TIP3    H260779   0.428   2.810  13.144 -1.3268 -1.5718 -0.6371
13122TIP3   OH260780   5.911   5.251   0.102  0.5163  0.2448 -0.6880
13122TIP3    H160781   5.870   5.270   0.186 -0.3067 -2.3040 -0.4113
13122TIP3    H260782   5.900   5.331   0.051  1.3063  1.9512  1.6926
13123TIP3   OH260783   3.983   0.683   4.219  1.0981 -0.1801  0.7649
13123TIP3    H160784   3.943   0.599   4.196  0.5613  0.0059  0.9857
13123TIP3    H260785   3.908   0.739   4.243  1.4145  0.4779  0.2584
13124TIP3   OH260786   6.009   4.900  16.648 -0.2271 -0.6952 -0.0135
13124TIP3    H160787   5.960   4.929  16.724 -0.6343  2.7143 -1.4298
13124TIP3    H260788   5.945   4.854  16.593 -0.2670 -1.8502  0.9661
13125TIP3   OH260789   3.391   5.500  12.589  0.0736 -0.2440  0.6577
13125TIP3    H160790   3.403   5.545  12.506 -0.7050 -0.2602  0.5315
13125TIP3    H260791   3.341   5.561  12.643 -0.2405 -0.6042  0.7824
13126TIP3   OH260792   4.847   5.431   5.496 -0.0893 -0.2885 -0.1058
13126TIP3    H160793   4.781   5.476   5.549  0.5325  0.7284 -0.1473
13126TIP3    H260794   4.893   5.502   5.451  0.0410 -1.0742 -1.2457
13127TIP3   OH260795   0.906   1.147  14.218 -0.2520 -0.1960 -0.0685
13127TIP3    H160796   0.872   1.075  14.271  0.1010 -0.3676 -0.0693
13127TIP3    H260797   0.832   1.176  14.165 -0.1646 -1.2024 -0.7820
13128TIP3   OH260798   2.378   5.755   6.111 -0.3022 -0.0465 -0.4742
13128TIP3    H160799   2.444   5.701   6.155  1.4640 -0.5570 -3.4550
13128TIP3    H260800   2.340   5.698   6.045 -1.3042  1.2551 -1.0656
13129TIP3   OH260801   4.076   4.144  14.431 -0.1969 -0.7469  0.1213
13129TIP3    H160802   4.143   4.169  14.495 -0.5374  1.2765 -0.2489
13129TIP3    H260803   4.093   4.051  14.415  1.9075 -0.5458  0.7608
13130TIP3   OH260804   3.532   4.716  12.724 -0.5918  0.1313  0.1737
13130TIP3    H160805   3.592   4.791  12.729  0.2486 -0.4368 -0.9110
13130TIP3    H260806   3.453   4.752  12.682  0.0039  0.3189 -0.8335
13131TIP3   OH260807   3.425   5.939   2.396  0.1361 -0.4981  0.0662
13131TIP3    H160808   3.408   5.929   2.302 -0.0711 -2.9501  0.2968
13131TIP3    H260809   3.363   6.007   2.424 -0.9259 -0.8389 -1.2982
13132TIP3   OH260810   3.704   3.703  15.753 -0.0562  0.3284  0.2475
13132TIP3    H160811   3.694   3.609  15.766 -0.9239  0.1755 -1.2653
13132TIP3    H260812   3.789   3.712  15.708 -0.5162  0.1365 -0.6807
13133TIP3   OH260813   2.243   1.800   4.225  0.1346  0.3694  0.6974
13133TIP3    H160814   2.316   1.856   4.251  0.3063 -0.4992  2.1610
13133TIP3    H260815   2.231   1.820   4.132  0.2550  2.7187  1.1155
13134TIP3   OH260816   3.540   5.210  17.158 -0.5020 -0.3618 -0.2834
13134TIP3    H160817   3.608   5.151  17.190 -0.6330 -0.8412 -0.8654
13134TIP3    H260818   3.548   5.205  17.062 -0.7809  0.2526 -0.3388
13135TIP3   OH260819   4.167   1.582   3.091 -0.0845  0.0116  0.3629
13135TIP3    H160820   4.084   1.538   3.110 -0.9317  1.4885  0.2301
13135TIP3    H260821   4.163   1.662   3.143  1.6679 -0.3136  1.0489
13136TIP3   OH260822   4.108   1.325   0.038 -0.4897  0.7862 -0.2557
13136TIP3    H160823   4.178   1.284   0.089  0.0939 -0.1197 -1.7148
13136TIP3    H260824   4.141   1.324  -0.052 -1.7749  1.6898 -0.7585
13137TIP3   OH260825   4.335   6.538  14.461 -0.2851  0.1372 -0.5874
13137TIP3    H160826   4.263   6.558  14.522  0.2272  1.3835 -0.3627
13137TIP3    H260827   4.384   6.468  14.503 -0.6133  0.1868 -0.1195
13138TIP3   OH260828   2.289   6.230  14.104 -0.1089 -0.1928 -0.3593
13138TIP3    H160829   2.251   6.221  14.017  2.5876 -1.1288 -1.5684
13138TIP3    H260830   2.316   6.321  14.109 -3.8971  1.0456  1.2880
13139TIP3   OH260831   4.976   2.255  11.675  0.0489 -0.6732  0.4270
13139TIP3    H160832   5.033   2.196  11.725  0.6384 -0.0706  0.4678
13139TIP3    H260833   5.009   2.342  11.693 -0.1940 -0.3914 -0.4299
13140TIP3   OH260834   0.858   3.770   2.620 -0.1986  0.5899 -0.7473
13140TIP3    H160835   0.763   3.783   2.613 -0.3986  0.1650  0.8166
13140TIP3    H260836   0.882   3.726   2.538 -1.7416 -1.2967 -0.2766
13141TIP3   OH260837   5.311   2.116  10.356  0.0442 -0.3674 -0.2164
13141TIP3    H160838   5.246   2.064  10.402  0.7315 -0.2359  0.9545
13141TIP3    H260839   5.267   2.145  10.276 -1.2423 -0.4783  0.4271
13142TIP3   OH260840   0.664   4.198   6.195 -0.2855 -0.1555 -0.0359
13142TIP3    H160841   0.626   4.245   6.121 -0.9614 -1.0468 -0.2643
13142TIP3    H260842   0.757   4.192   6.175 -0.0941  1.4386  0.1993
13143TIP3   OH260843   1.489   2.253  11.724 -0.5522  0.3809  0.3683
13143TIP3    H160844   1.410   2.240  11.671 -0.8580 -1.7946  1.2777
13143TIP3    H260845   1.455   2.269  11.813  0.0282  0.2801  0.6075
13144TIP3   OH260846   3.580   4.591  11.541 -0.4696  0.2751  0.1661
13144TIP3    H160847   3.582   4.687  11.541  0.3960  0.2748  0.8851
13144TIP3    H260848   3.489   4.569  11.520 -0.7303  1.2584  0.2051
13145TIP3   OH260849   6.620   5.915   3.455  0.2226  0.3456  0.5195
13145TIP3    H160850   6.528   5.942   3.453  0.2060  0.3277  0.9653
13145TIP3    H260851   6.667   5.994   3.481  0.9751  2.0175 -4.8136
13146TIP3   OH260852   3.174   2.797   0.293  0.0284 -0.6303  0.5755
13146TIP3    H160853   3.149   2.715   0.337 -0.1843 -0.5131  0.6726
13146TIP3    H260854   3.265   2.811   0.321  0.0035 -0.7317  0.7127
13147TIP3   OH260855   4.646   4.537   1.197  0.0085  0.6231  0.0907
13147TIP3    H160856   4.564   4.499   1.165  1.0049 -1.8808  0.2408
13147TIP3    H260857   4.630   4.553   1.290  0.0312 -1.1000  0.4332
13148TIP3   OH260858   5.899   3.188   4.701 -0.2322  0.1019 -0.0055
13148TIP3    H160859   5.987   3.150   4.692  0.2478  1.4866 -1.6023
13148TIP3    H260860   5.870   3.202   4.612 -0.9166  2.2629  0.5026
13149TIP3   OH260861   1.695   0.801  16.784  0.0351 -1.0366  0.2436
13149TIP3    H160862   1.784   0.766  16.789  1.0731  1.1588 -1.2749
13149TIP3    H260863   1.693   0.874  16.846 -0.3139 -0.3536 -0.5422
13150TIP3   OH260864   1.321   4.930   3.878  0.0348 -0.3834 -0.8783
13150TIP3    H160865   1.271   4.978   3.812  0.3377  0.5088 -0.4699
13150TIP3    H260866   1.255   4.887   3.932 -0.2964  0.6306 -0.4604
13151TIP3   OH260867   2.902   6.111   6.652  0.2998 -0.1123 -0.0565
13151TIP3    H160868   2.995   6.099   6.673  1.3675 -0.0831 -3.9880
13151TIP3    H260869   2.890   6.206   6.650 -0.5278 -0.0652  2.5575
13152TIP3   OH260870   4.088   6.566   5.342  0.1198 -0.4252 -0.2154
13152TIP3    H160871   4.121   6.527   5.423 -2.3267 -0.7652  0.7093
13152TIP3    H260872   4.106   6.500   5.275  0.2910 -1.0672  0.4472
13153TIP3   OH260873   6.396   2.111  15.692 -0.0726 -0.0293  0.1082
13153TIP3    H160874   6.430   2.190  15.734 -0.8997 -0.1895  1.1190
13153TIP3    H260875   6.309   2.098  15.731 -0.3627 -0.8808 -0.7690
13154TIP3   OH260876   4.691   0.713   1.651 -0.2580  0.5136  0.3625
13154TIP3    H160877   4.732   0.797   1.628  0.9550 -0.5305 -1.5764
13154TIP3    H260878   4.641   0.732   1.730  0.2855  2.9692  0.2095
13155TIP3   OH260879   0.588   4.415   4.166  0.0177  0.5972  0.0426
13155TIP3    H160880   0.507   4.444   4.208  0.1059 -1.1056  1.5176
13155TIP3    H260881   0.564   4.334   4.120  0.7603  0.3537  0.0601
13156TIP3   OH260882   0.019   2.251   1.594 -0.0257  0.3565 -0.1579
13156TIP3    H160883   0.065   2.224   1.515 -0.0011 -0.8786  0.2500
13156TIP3    H260884   0.049   2.190   1.661 -1.1480  0.4415  0.4498
13157TIP3   OH260885   4.399   0.713  12.542 -0.2947 -0.1186  0.5055
13157TIP3    H160886   4.311   0.674  12.543 -0.6446  0.5702 -1.0630
13157TIP3    H260887   4.432   0.699  12.631 -1.0655 -2.4730  0.5009
13158TIP3   OH260888   5.926   5.337  14.459  0.5575  0.3156 -0.3823
13158TIP3    H160889   5.921   5.272  14.388  0.9868 -0.2295  0.0783
13158TIP3    H260890   5.913   5.421  14.414 -0.6835 -0.1152 -0.8889
13159TIP3   OH260891   4.565   0.724  14.032  0.4003 -0.9688  0.2000
13159TIP3    H160892   4.654   0.755  14.015  0.3276 -0.7691  0.1820
13159TIP3    H260893   4.510   0.772  13.971  0.2630 -0.9975  0.2991
13160TIP3   OH260894   3.394   5.340  14.319 -0.8480  0.4522 -0.0601
13160TIP3    H160895   3.315   5.288  14.305 -0.6135 -0.3489  1.4988
13160TIP3    H260896   3.363   5.419  14.365 -0.7004 -0.0563  0.9294
13161TIP3   OH260897   1.946   0.985  17.271 -0.4240 -0.2522 -0.0177
13161TIP3    H160898   1.898   1.058  17.233 -0.4508  0.9950  2.2415
13161TIP3    H260899   2.038   1.004  17.250 -0.2530  1.3955  1.9277
13162TIP3   OH260900   5.346   3.582  12.252  0.0769 -0.1706  0.4427
13162TIP3    H160901   5.396   3.557  12.330 -0.1841 -1.4811  0.2093
13162TIP3    H260902   5.321   3.499  12.211 -1.2527  0.4684 -0.1118
13163TIP3   OH260903   6.105   1.663   1.408 -0.4337  0.5372  0.7424
13163TIP3    H160904   6.168   1.627   1.470  0.4966  0.9149  0.0376
13163TIP3    H260905   6.041   1.709   1.462 -0.3773 -0.2535  1.4954
13164TIP3   OH260906   2.530   4.842   2.444 -0.7872 -0.1261  0.3517
13164TIP3    H160907   2.610   4.872   2.487  0.3141 -1.5264 -0.6289
13164TIP3    H260908   2.465   4.838   2.514  0.1914  0.3292  1.3180
13165TIP3   OH260909   2.509   6.216  11.927  0.6522  0.2758 -0.6107
13165TIP3    H160910   2.525   6.262  11.845  1.7920  1.5074  0.2663
13165TIP3    H260911   2.520   6.123  11.905  0.2129  0.5236 -1.9813
13166TIP3   OH260912   3.648   2.332   4.379  0.0187 -0.3415  0.0868
13166TIP3    H160913   3.729   2.352   4.333 -0.1594  1.4010  0.4667
13166TIP3    H260914   3.579   2.350   4.315 -0.1560  0.5854  0.5136
13167TIP3   OH260915   1.391   3.436  10.778 -0.6088 -0.2585  0.5474
13167TIP3    H160916   1.299   3.462  10.768 -0.3812 -0.0233 -1.4871
13167TIP3    H260917   1.435   3.515  10.808 -0.7620  0.2342 -0.4825
13168TIP3   OH260918   2.488   5.153  11.125  0.3332 -0.0408  0.5301
13168TIP3    H160919   2.566   5.206  11.109  0.6667 -0.1888  1.5925
13168TIP3    H260920   2.414   5.212  11.108  0.6652  0.0995 -0.4832
13169TIP3   OH260921   4.871   0.377  13.140  0.3108 -0.4897  0.1734
13169TIP3    H160922   4.886   0.295  13.189 -1.2458  0.2605  2.0381
13169TIP3    H260923   4.792   0.414  13.179 -0.0889  1.0030 -1.9018
13170TIP3   OH260924   4.295   4.599   1.857 -0.0967  0.0923 -0.6510
13170TIP3    H160925   4.241   4.642   1.791 -0.3089 -1.3474 -1.4635
13170TIP3    H260926   4.292   4.506   1.833  2.5880 -0.0797 -0.6341
13171TIP3   OH260927   5.500   4.119  15.700 -0.4853  0.3103 -1.0298
13171TIP3    H160928   5.413   4.109  15.738  0.1872 -0.1293  0.5029
13171TIP3    H260929   5.490   4.187  15.634 -1.7995  0.9209 -0.2413
13172TIP3   OH260930   2.998   1.774  12.657 -0.9546 -0.2752 -0.2317
13172TIP3    H160931   3.000   1.861  12.695 -0.4525  0.5679 -2.0514
13172TIP3    H260932   2.944   1.783  12.578  0.5842 -1.1230 -1.4497
13173TIP3   OH260933   3.070   3.428   3.123 -0.2670  0.1491 -0.7235
13173TIP3    H160934   3.072   3.380   3.206 -0.4101 -0.0182 -0.8189
13173TIP3    H260935   3.127   3.379   3.064 -1.8313 -0.9249 -1.3851
13174TIP3   OH260936   0.233   2.751   4.815  0.1809 -0.0729 -0.5080
13174TIP3    H160937   0.297   2.718   4.752  0.8623  0.6715 -0.2291
13174TIP3    H260938   0.285   2.777   4.891 -0.7851 -2.7075  1.2038
13175TIP3   OH260939   1.729   3.253   2.790  0.5528 -0.2190  0.1047
13175TIP3    H160940   1.688   3.270   2.875  1.0197 -0.1164  0.3115
13175TIP3    H260941   1.802   3.194   2.809  0.9889  0.2299 -0.1431
13176TIP3   OH260942   5.468   5.668  13.960 -0.3848 -0.4009  0.2552
13176TIP3    H160943   5.481   5.641  13.869 -0.7190 -3.0751  0.9168
13176TIP3    H260944   5.375   5.654  13.977 -0.2423 -0.3357  1.1395
13177TIP3   OH260945   3.194   4.902  10.770  0.6439 -0.6655  1.1187
13177TIP3    H160946   3.140   4.976  10.741  1.0250 -0.5561  0.6797
13177TIP3    H260947   3.151   4.872  10.850  1.0272  0.6384  1.8373
13178TIP3   OH260948   3.688   0.726   0.464 -0.1005 -0.2210  0.5293
13178TIP3    H160949   3.649   0.672   0.534 -0.2581  0.0810  0.6737
13178TIP3    H260950   3.620   0.790   0.442 -0.7701 -1.4544 -1.1997
13179TIP3   OH260951   4.262   2.794  12.953  0.6107  0.1212 -0.1033
13179TIP3    H160952   4.267   2.711  12.905 -0.2484  0.2613 -0.4693
13179TIP3    H260953   4.298   2.775  13.039  2.0072 -0.1905 -0.7236
13180TIP3   OH260954   1.273   1.562   1.148  0.1082  0.0491 -0.0415
13180TIP3    H160955   1.319   1.608   1.218 -0.1433 -1.8776  1.4636
13180TIP3    H260956   1.334   1.563   1.074  0.4382  1.9885  0.2078
13181TIP3   OH260957   1.149   3.504  13.668  0.1792 -0.2471 -0.2748
13181TIP3    H160958   1.193   3.576  13.713  1.4122 -1.9146  1.3598
13181TIP3    H260959   1.219   3.457  13.622 -0.2499 -1.4893  0.2862
13182TIP3   OH260960   0.446   5.660  11.019  0.3021 -0.2400 -0.5122
13182TIP3    H160961   0.466   5.585  11.075  1.2757  0.0406 -0.4778
13182TIP3    H260962   0.495   5.733  11.056  0.0405  0.2216 -1.0472
13183TIP3   OH260963   4.289   5.363  14.852 -0.4307 -0.0987  0.2939
13183TIP3    H160964   4.243   5.431  14.803 -1.2646 -1.2236 -0.5189
13183TIP3    H260965   4.315   5.299  14.786  0.6422 -0.4188  0.9980
13184TIP3   OH260966   6.196   4.980   0.019  0.1525  0.3119  0.1416
13184TIP3    H160967   6.265   4.913   0.023 -0.5265 -0.5425 -1.4846
13184TIP3    H260968   6.165   4.987   0.109  0.9537 -0.8126  0.5389
13185TIP3   OH260969   2.092   3.046   0.729  0.8097 -0.2235 -0.0950
13185TIP3    H160970   2.056   3.097   0.656  1.1019  1.1810  0.7009
13185TIP3    H260971   2.175   3.090   0.749  0.7604 -0.6287  1.0432
13186TIP3   OH260972   3.586   5.264   4.402 -0.2465 -0.1749  0.0892
13186TIP3    H160973   3.511   5.311   4.366 -0.8014 -1.6455 -0.7976
13186TIP3    H260974   3.653   5.268   4.333 -0.6999 -1.5574 -0.4782
13187TIP3   OH260975   1.081   2.754  11.676 -0.1550  0.3099  0.1707
13187TIP3    H160976   1.013   2.757  11.744 -1.4677  2.8800 -1.1015
13187TIP3    H260977   1.094   2.661  11.660 -3.6658 -0.3573  0.2724
13188TIP3   OH260978   4.159   4.471   0.967 -0.2920  0.9084  0.6932
13188TIP3    H160979   4.073   4.472   1.009 -0.4374 -0.5162  0.4812
13188TIP3    H260980   4.145   4.423   0.885  0.8323  0.0332  0.9960
13189TIP3   OH260981   3.758   0.885  12.112 -0.0401 -0.4851 -0.0943
13189TIP3    H160982   3.794   0.948  12.050 -1.4381 -0.8631 -1.3613
13189TIP3    H260983   3.776   0.922  12.198  3.4094 -0.7039 -0.5745
13190TIP3   OH260984   2.485   0.274   2.467 -0.2086 -0.3594 -0.0741
13190TIP3    H160985   2.554   0.243   2.526  0.1278  0.4009 -0.0655
13190TIP3    H260986   2.432   0.334   2.520 -0.5300 -0.4786 -0.2510
13191TIP3   OH260987   0.486   1.005   2.851 -0.1488 -0.3072  0.0124
13191TIP3    H160988   0.470   1.096   2.826 -0.1704  0.0072  1.1218
13191TIP3    H260989   0.476   0.956   2.770 -2.4494  0.3822 -0.1849
13192TIP3   OH260990   0.928   5.268   3.352 -0.0747 -0.0073 -0.6498
13192TIP3    H160991   0.843   5.313   3.350 -0.1291 -0.0636 -3.3540
13192TIP3    H260992   0.991   5.334   3.323  0.5942 -0.3965 -0.1237
13193TIP3   OH260993   3.088   5.914   4.334  0.4519  0.1626  0.0961
13193TIP3    H160994   3.031   5.895   4.409  0.6478  0.5561  0.3472
13193TIP3    H260995   3.175   5.926   4.373  0.9112 -1.3399 -0.3644
13194TIP3   OH260996   1.808   1.967   5.102 -0.0035 -0.6278  0.6934
13194TIP3    H160997   1.735   2.002   5.154 -1.2020  1.3327 -2.0873
13194TIP3    H260998   1.826   2.034   5.037  1.0963 -3.0841 -1.7279
13195TIP3   OH260999   1.114   3.107   5.357 -0.2465  0.0549  0.1502
13195TIP3    H161000   1.086   3.053   5.431 -1.0650  2.2721  1.6044
13195TIP3    H261001   1.209   3.112   5.366  0.0893 -2.5168 -1.1174
13196TIP3   OH261002   4.103   0.735  17.010 -0.3021 -0.5043 -0.1339
13196TIP3    H161003   4.037   0.691  17.062 -1.3960 -0.1739 -1.2029
13196TIP3    H261004   4.058   0.809  16.970  0.3800 -0.9178 -1.7987
13197TIP3   OH261005   6.774   3.253  14.056 -0.5260 -0.2207  0.4131
13197TIP3    H161006   6.694   3.271  14.106 -0.7210  0.0941 -0.0033
13197TIP3    H261007   6.778   3.158  14.050 -0.4695 -0.2606  1.0761
13198TIP3   OH261008   4.114   1.835  13.701  0.0492  0.0693 -0.0778
13198TIP3    H161009   4.127   1.923  13.664 -0.8003 -0.0233 -0.6449
13198TIP3    H261010   4.030   1.841  13.747 -0.3987 -0.6349 -0.7656
13199TIP3   OH261011   1.264   2.039  11.854  1.2786 -0.5719 -0.1802
13199TIP3    H161012   1.224   1.954  11.874  1.3416 -0.5092  0.2184
13199TIP3    H261013   1.358   2.021  11.851  1.2661 -0.5934 -0.4908
13200TIP3   OH261014   0.819   2.485  16.476 -0.4015 -0.0076 -0.0427
13200TIP3    H161015   0.784   2.524  16.396 -0.3368 -1.5570 -0.8537
13200TIP3    H261016   0.914   2.502  16.472 -0.5094  0.7038  0.1818
13201TIP3   OH261017   2.054   5.722  11.632  0.1930  0.3823  0.2182
13201TIP3    H161018   2.052   5.629  11.612  3.0665  0.6958 -2.3737
13201TIP3    H261019   2.090   5.727  11.720 -1.1402 -0.9332  0.8698
13202TIP3   OH261020   3.257   4.467  16.831  0.8659  0.2233 -0.0069
13202TIP3    H161021   3.187   4.413  16.868  0.5245  1.4703  1.2303
13202TIP3    H261022   3.307   4.406  16.776  1.8909 -1.9934  3.0655
13203TIP3   OH261023   1.471   6.009  16.236 -0.0578  0.6070 -0.2853
13203TIP3    H161024   1.417   6.073  16.282 -0.0193  0.4555 -0.0318
13203TIP3    H261025   1.439   6.012  16.146 -0.7436  0.2486 -0.0577
13204TIP3   OH261026   0.905   1.812   5.406 -0.0836 -0.0548 -0.1783
13204TIP3    H161027   0.875   1.764   5.483  2.2873  0.6193  1.2400
13204TIP3    H261028   0.871   1.761   5.332  0.7446 -2.9170  1.2755
13205TIP3   OH261029   2.164   3.726  15.348 -0.2117  0.4054  0.3464
13205TIP3    H161030   2.136   3.766  15.265  0.3127  0.2597  0.0943
13205TIP3    H261031   2.090   3.739  15.407 -1.1106 -0.6335 -0.5171
13206TIP3   OH261032   1.202   2.178   3.688 -0.3226 -1.1029  0.2416
13206TIP3    H161033   1.277   2.123   3.711  0.6422 -0.7035 -1.7047
13206TIP3    H261034   1.167   2.138   3.608 -2.3230 -1.3666  1.1784
13207TIP3   OH261035   4.187   3.858   3.834 -0.5172  0.3907 -0.7541
13207TIP3    H161036   4.197   3.766   3.807 -0.5786  0.4140 -0.8568
13207TIP3    H261037   4.105   3.886   3.794 -1.3217  0.0216  0.5934
13208TIP3   OH261038   3.816   6.259   3.217 -0.6008  0.1645 -0.0673
13208TIP3    H161039   3.857   6.335   3.175 -2.5403  1.4313  0.1937
13208TIP3    H261040   3.744   6.235   3.158 -1.2321 -0.2083  0.8263
13209TIP3   OH261041   1.969   3.122   1.161  0.2338 -0.1186 -0.3091
13209TIP3    H161042   2.060   3.107   1.185  0.4451  0.5239 -0.6906
13209TIP3    H261043   1.960   3.084   1.074  0.6864  1.5720 -1.1408
13210TIP3   OH261044   3.278   6.692   3.567  0.2177  0.4771 -0.1576
13210TIP3    H161045   3.326   6.611   3.547  1.2506  0.9303  0.4094
13210TIP3    H261046   3.308   6.717   3.654 -2.7459 -0.4159  1.2479
13211TIP3   OH261047   0.430   0.969  10.921 -0.6501 -0.1762  0.2013
13211TIP3    H161048   0.430   0.925  10.836  0.1971 -0.0904  0.1410
13211TIP3    H261049   0.341   0.960  10.954 -0.8082 -0.8057 -0.3917
13212TIP3   OH261050   1.128   3.189   0.181  0.4534  0.2350  0.3885
13212TIP3    H161051   1.222   3.205   0.190  0.5375  1.0838 -1.5288
13212TIP3    H261052   1.096   3.260   0.126 -0.7072 -1.6921 -1.6008
13213TIP3   OH261053   2.651   5.552  16.874 -0.1802  0.1924  0.2321
13213TIP3    H161054   2.562   5.585  16.879 -0.1655  0.2442  0.1517
13213TIP3    H261055   2.657   5.511  16.787 -0.3347 -0.4101  0.5036
13214TIP3   OH261056   3.800   4.494  13.320  0.5541 -0.2088 -0.4700
13214TIP3    H161057   3.749   4.552  13.378 -0.0373 -1.2453  0.0760
13214TIP3    H261058   3.843   4.433  13.380  0.6577 -0.7350 -1.0718
13215TIP3   OH261059   2.514   1.471   2.365  0.8479 -0.6539 -0.7395
13215TIP3    H161060   2.570   1.394   2.376  0.2949 -0.8274  1.1946
13215TIP3    H261061   2.428   1.443   2.397  0.4170  0.5039 -0.8382
13216TIP3   OH261062   0.754   4.785  14.001  0.2750  0.0056 -0.3963
13216TIP3    H161063   0.814   4.765  13.929 -0.5192  1.4028 -1.5120
13216TIP3    H261064   0.794   4.861  14.044 -0.6090  0.9328 -1.1341
13217TIP3   OH261065   1.004   5.811  14.827  0.4232  0.2691 -0.2776
13217TIP3    H161066   0.961   5.786  14.909  1.7936 -1.0317  0.0980
13217TIP3    H261067   1.066   5.879  14.852  0.0905  0.6297 -0.4316
13218TIP3   OH261068   3.168   5.804  15.873 -0.1591  0.3287 -0.5472
13218TIP3    H161069   3.206   5.755  15.801  0.8948 -0.8696  0.7579
13218TIP3    H261070   3.079   5.769  15.882 -0.1741  0.2381 -1.0237
13219TIP3   OH261071   3.777   3.621   0.223 -0.0900 -0.0091 -0.3004
13219TIP3    H161072   3.774   3.554   0.292  0.3917  1.2508  1.0004
13219TIP3    H261073   3.692   3.665   0.229  1.0038  2.0657  1.6144
13220TIP3   OH261074   4.227   3.070  12.900 -0.2107 -0.2510  0.2711
13220TIP3    H161075   4.283   2.992  12.900  1.8557  1.0455  3.0392
13220TIP3    H261076   4.206   3.083  12.992 -1.3739  1.8736 -0.2552
13221TIP3   OH261077   5.369   4.891   4.992 -0.3164  0.0807  0.1636
13221TIP3    H161078   5.368   4.987   4.994 -2.5206  0.1019  1.5501
13221TIP3    H261079   5.279   4.866   5.014  0.6209 -2.3234  1.6374
13222TIP3   OH261080   4.602   6.403   4.426 -0.3458 -0.1206 -0.3159
13222TIP3    H161081   4.654   6.340   4.376  0.2549  1.5819 -1.9344
13222TIP3    H261082   4.574   6.354   4.504  2.6154 -1.4733  0.0373
13223TIP3   OH261083   6.088   0.141  12.087  0.2921  0.3628  0.1847
13223TIP3    H161084   5.994   0.129  12.074 -0.1667  2.9368  0.7367
13223TIP3    H261085   6.109   0.222  12.042  2.0447  0.4095  1.0013
13224TIP3   OH261086   6.271   4.784  12.210  0.7832 -0.2363  0.0639
13224TIP3    H161087   6.363   4.760  12.221  1.1269  1.2037  0.5090
13224TIP3    H261088   6.257   4.786  12.115  1.6374  1.0195 -0.0545
13225TIP3   OH261089   6.482   2.126  13.595 -0.6467 -0.1149  0.5168
13225TIP3    H161090   6.575   2.121  13.574 -0.3197  0.1837  1.7827
13225TIP3    H261091   6.441   2.057  13.542  0.0974  0.5730 -0.9935
13226TIP3   OH261092   0.143   2.182  15.729 -0.2696  0.0404  0.3451
13226TIP3    H161093   0.219   2.186  15.786  0.2596  0.4642 -0.3787
13226TIP3    H261094   0.073   2.224  15.779  0.4931  1.4956  0.2104
13227TIP3   OH261095   1.211   3.152   2.495 -0.1884 -0.3780  0.0609
13227TIP3    H161096   1.208   3.247   2.482 -1.1698 -0.3787  0.1857
13227TIP3    H261097   1.122   3.128   2.520 -0.9426 -1.7833 -3.3251
13228TIP3   OH261098   0.798   6.154   4.465  0.4933 -0.1091 -0.0417
13228TIP3    H161099   0.790   6.238   4.509  0.4156 -0.4524  0.6247
13228TIP3    H261100   0.838   6.097   4.531  1.3234 -0.3749 -0.7644
13229TIP3   OH261101   6.599   6.741   1.081 -0.4784 -0.4617  0.0768
13229TIP3    H161102   6.616   6.803   1.010  1.5586 -0.9248  0.1166
13229TIP3    H261103   6.611   6.793   1.161 -0.3161 -0.5323  0.0982
13230TIP3   OH261104   0.706   0.193  12.253 -0.4299 -0.4692  0.0956
13230TIP3    H161105   0.739   0.186  12.343 -2.3130  1.6384  1.0383
13230TIP3    H261106   0.781   0.224  12.202  0.8223 -2.2328  0.7742
13231TIP3   OH261107   2.727   4.409   2.423  0.1148  0.3660 -0.4424
13231TIP3    H161108   2.806   4.355   2.418 -0.5653 -0.6537 -0.4932
13231TIP3    H261109   2.747   4.486   2.369  0.9424 -0.0407 -0.7310
13232TIP3   OH261110   3.566   0.438   6.650 -0.2546  0.0106  0.3710
13232TIP3    H161111   3.587   0.518   6.698  1.2006 -0.6732  0.9247
13232TIP3    H261112   3.604   0.367   6.702  1.0557 -0.7944 -1.5662
13233TIP3   OH261113   4.080   4.064  16.571 -0.2978 -0.8005 -0.1925
13233TIP3    H161114   4.006   4.037  16.516 -0.8506 -0.0039  0.1336
13233TIP3    H261115   4.131   3.984  16.584 -1.2375 -1.4228 -0.2274
13234TIP3   OH261116   1.008   3.198  13.816  0.3381  0.0818 -0.0575
13234TIP3    H161117   0.927   3.198  13.765 -1.0560  0.2021  2.0259
13234TIP3    H261118   0.999   3.123  13.875  0.6785  1.3679  1.7211
13235TIP3   OH261119   3.872   4.622   1.443 -0.1513 -0.0201 -1.1526
13235TIP3    H161120   3.944   4.601   1.382  2.2833  4.4334 -0.2596
13235TIP3    H261121   3.837   4.705   1.411 -1.1311  0.7234  1.5751
13236TIP3   OH261122   0.547   5.742   4.133  0.5566  0.5223  0.0151
13236TIP3    H161123   0.525   5.819   4.187 -2.4416  0.0321 -0.3768
13236TIP3    H261124   0.499   5.670   4.173 -0.5996 -0.1602 -2.4393
13237TIP3   OH261125   5.404   6.063   5.098 -0.6825 -0.2203 -0.2082
13237TIP3    H161126   5.437   5.995   5.039 -0.2325  0.0511 -0.2728
13237TIP3    H261127   5.482   6.099   5.140 -0.9084  0.3087 -0.2313
13238TIP3   OH261128   5.260   4.702   0.505 -0.2020  0.5740  0.0171
13238TIP3    H161129   5.337   4.651   0.481 -0.7701 -0.5924  0.5989
13238TIP3    H261130   5.188   4.662   0.456 -0.3767  1.9955 -0.9532
13239TIP3   OH261131   6.279   3.915  12.299  0.4953  0.1620 -0.1364
13239TIP3    H161132   6.199   3.967  12.284 -0.2147 -0.4787  1.2177
13239TIP3    H261133   6.283   3.856  12.224  0.8510  1.5699 -1.2690
13240TIP3   OH261134   1.902   4.672   0.111  0.0348  0.0657 -0.3888
13240TIP3    H161135   1.967   4.685   0.041  2.7278  2.0798  2.2514
13240TIP3    H261136   1.893   4.758   0.152 -0.8120 -1.1707  2.2391
13241TIP3   OH261137   2.170   1.684  16.450 -0.2147  0.4922 -0.2558
13241TIP3    H161138   2.103   1.649  16.509  0.4582 -0.9568 -0.3159
13241TIP3    H261139   2.177   1.619  16.380 -0.7829  2.0327 -1.8223
13242TIP3   OH261140   5.399   1.837  15.689 -0.6532  0.0776 -0.5781
13242TIP3    H161141   5.447   1.776  15.745 -3.5341 -2.6330 -0.7648
13242TIP3    H261142   5.363   1.902  15.749 -0.5007 -0.5309  0.1860
13243TIP3   OH261143   6.060   5.054  15.286 -0.4854 -0.6533 -0.0626
13243TIP3    H161144   6.085   5.130  15.233 -1.0390  0.2384  0.9253
13243TIP3    H261145   6.121   4.986  15.259  1.0892  0.6061  0.1504
13244TIP3   OH261146   1.206   2.777  16.549 -0.0427 -0.1444  0.6345
13244TIP3    H161147   1.284   2.800  16.497  0.1094 -1.4486  0.2433
13244TIP3    H261148   1.240   2.760  16.636 -0.0645  0.4034  0.7573
13245TIP3   OH261149   4.838   4.740   4.013  0.1756 -0.0319 -0.0125
13245TIP3    H161150   4.774   4.670   4.002 -0.6419  0.4379  1.5618
13245TIP3    H261151   4.886   4.716   4.092  0.2512  0.9075  0.2382
13246TIP3   OH261152   1.185   3.540  11.989  0.0303  0.3904  0.6045
13246TIP3    H161153   1.153   3.599  12.057 -0.6643  0.0608  0.5703
13246TIP3    H261154   1.158   3.580  11.907 -0.5125 -0.0109  0.5842
13247TIP3   OH261155   1.808   2.386  13.909  0.1442  0.0857 -0.0032
13247TIP3    H161156   1.784   2.453  13.972 -0.2875 -0.1313  0.0694
13247TIP3    H261157   1.740   2.390  13.842 -0.6212 -1.1343  0.6565
13248TIP3   OH261158   5.282   3.064  15.454 -0.2262  0.0796 -0.2345
13248TIP3    H161159   5.224   3.086  15.381  0.2600  1.7061 -0.1526
13248TIP3    H261160   5.287   3.143  15.507 -0.4235 -1.0033  1.5072
13249TIP3   OH261161   6.593   3.954   3.201  0.4531  0.1010  0.1326
13249TIP3    H161162   6.603   4.045   3.228  2.6394 -0.6594  2.1898
13249TIP3    H261163   6.676   3.932   3.159 -0.1010 -0.9211 -0.4677
13250TIP3   OH261164   5.090   3.432   5.338 -0.0964 -0.6423  0.1953
13250TIP3    H161165   5.156   3.496   5.311  0.3810 -0.1935  2.2354
13250TIP3    H261166   5.137   3.349   5.343  0.6703 -0.1487  2.6207
13251TIP3   OH261167   4.353   0.377  11.272 -0.0675  0.0346  0.1206
13251TIP3    H161168   4.333   0.287  11.245 -0.8710  0.3040 -0.2365
13251TIP3    H261169   4.428   0.402  11.218  0.4641 -0.5762  0.5632
13252TIP3   OH261170   4.001   1.414   5.837 -0.0843  0.2766 -0.0961
13252TIP3    H161171   4.050   1.379   5.762 -0.7209  0.5603 -0.6544
13252TIP3    H261172   3.987   1.506   5.815 -2.9427 -0.2909 -1.1191
13253TIP3   OH261173   6.431   3.399  12.553  0.8638  0.4804  0.7489
13253TIP3    H161174   6.503   3.428  12.497  0.4229 -0.4519 -0.3249
13253TIP3    H261175   6.374   3.347  12.496  0.9017 -1.3490  2.2724
13254TIP3   OH261176   4.028   4.620  15.648 -0.1668  0.5658  0.2825
13254TIP3    H161177   4.040   4.561  15.574  0.8668  2.1635 -0.9117
13254TIP3    H261178   4.067   4.574  15.723  0.1522 -0.4503 -0.4924
13255TIP3   OH261179   5.337   5.548   0.296 -0.1832 -0.0138 -0.3751
13255TIP3    H161180   5.251   5.523   0.264  0.6186 -2.7413 -0.6092
13255TIP3    H261181   5.398   5.518   0.228  1.0089  1.4211  0.0097
13256TIP3   OH261182   5.546   2.208  13.932 -0.3044 -0.5591  0.0971
13256TIP3    H161183   5.551   2.301  13.952 -0.7434 -0.7018  0.9218
13256TIP3    H261184   5.533   2.166  14.017  0.1130 -1.3912 -0.2390
13257TIP3   OH261185   5.188   3.572   4.140 -0.2394  0.0125  0.0026
13257TIP3    H161186   5.152   3.484   4.158  0.3982 -0.7898 -2.3126
13257TIP3    H261187   5.150   3.627   4.208 -1.3192 -1.9000  1.0485
13258TIP3   OH261188   2.558   6.077   6.338  0.6328  0.0207 -0.0068
13258TIP3    H161189   2.594   6.004   6.388  1.2197  0.7697  0.7040
13258TIP3    H261190   2.495   6.118   6.398 -1.3165 -1.1434 -1.1506
13259TIP3   OH261191   1.220   0.600  13.954 -0.0794 -0.1170 -0.1909
13259TIP3    H161192   1.187   0.676  14.000 -1.4275 -0.3398 -0.7502
13259TIP3    H261193   1.284   0.561  14.014  0.1688  1.0782  0.3506
13260TIP3   OH261194   5.960   3.099  13.153 -0.8442 -0.1604  0.1282
13260TIP3    H161195   6.038   3.045  13.163  0.1013  0.9895 -0.7920
13260TIP3    H261196   5.891   3.050  13.198  0.2616 -1.4864  0.4366
13261TIP3   OH261197   0.283   4.634   0.396  0.2962 -0.1440 -0.2788
13261TIP3    H161198   0.231   4.714   0.404 -0.3612 -0.6382  0.6579
13261TIP3    H261199   0.256   4.597   0.312 -0.3038  0.0128 -0.1657
13262TIP3   OH261200   1.509   2.233  13.812 -0.4477 -0.2333 -0.6364
13262TIP3    H161201   1.486   2.208  13.723  2.1692  0.1544 -1.5123
13262TIP3    H261202   1.532   2.151  13.856  1.2569 -0.1645 -1.3241
13263TIP3   OH261203   0.169   5.032   4.560 -0.0692 -0.4882 -0.2083
13263TIP3    H161204   0.116   5.062   4.486 -0.3058 -0.7985 -0.1674
13263TIP3    H261205   0.178   5.109   4.616  0.6535 -0.0854 -0.8722
13264TIP3   OH261206   4.326   4.791   1.434 -0.4412 -0.3621 -0.0142
13264TIP3    H161207   4.276   4.855   1.484  0.0488 -0.9946  1.3557
13264TIP3    H261208   4.373   4.843   1.369 -0.4320  0.6257  0.7460
13265TIP3   OH261209   0.097   3.714   3.269 -0.3269 -0.0045  0.2679
13265TIP3    H161210   0.107   3.779   3.339 -0.6036 -0.2673  0.5578
13265TIP3    H261211   0.187   3.689   3.247 -0.2468 -0.8535  1.4276
13266TIP3   OH261212   2.852   4.153   1.546  0.3149  0.1511  0.1433
13266TIP3    H161213   2.913   4.104   1.602  0.3496 -3.0458 -2.4281
13266TIP3    H261214   2.903   4.173   1.467 -0.5460  2.0385  0.0152
13267TIP3   OH261215   6.338   0.888   1.383 -0.1316  0.0860 -0.6029
13267TIP3    H161216   6.341   0.829   1.459  0.1685  0.7967 -0.0469
13267TIP3    H261217   6.403   0.854   1.323 -0.6114 -0.6874 -0.6920
13268TIP3   OH261218   4.587   4.566  14.854 -0.0145 -0.3941  0.3502
13268TIP3    H161219   4.598   4.617  14.934 -0.0816  1.0153 -0.4963
13268TIP3    H261220   4.676   4.552  14.822  0.0039  2.9534 -1.6106
13269TIP3   OH261221   0.860   0.880  12.959 -0.2030 -0.3542  0.6416
13269TIP3    H161222   0.834   0.792  12.929  0.9584 -1.0617  1.5956
13269TIP3    H261223   0.946   0.867  12.997  0.9765  1.6444 -1.1710
13270TIP3   OH261224   3.553   5.260  15.170  0.1981 -0.4544 -0.2380
13270TIP3    H161225   3.532   5.353  15.156  0.7830 -0.3787 -0.6772
13270TIP3    H261226   3.476   5.224  15.214 -1.0066 -0.2625 -2.0675
13271TIP3   OH261227   2.952   4.109   1.842  0.0262 -0.5120  0.2569
13271TIP3    H161228   3.028   4.100   1.785  1.7390 -0.7777  2.4537
13271TIP3    H261229   2.987   4.141   1.925 -2.4560  0.6273  0.9629
13272TIP3   OH261230   0.087   4.935   5.483 -0.2403  0.8333  0.5623
13272TIP3    H161231   0.157   4.976   5.432 -1.6115  2.6517  0.0013
13272TIP3    H261232   0.048   5.008   5.531 -1.5407 -0.1809  1.0936
13273TIP3   OH261233   6.241   5.575  11.839 -0.3254 -0.3064 -0.8185
13273TIP3    H161234   6.233   5.535  11.925 -0.3427 -1.9129 -1.5393
13273TIP3    H261235   6.287   5.510  11.786  1.4000  1.4194 -1.5466
13274TIP3   OH261236   2.952   5.872   6.332  0.2382 -0.1878 -0.5527
13274TIP3    H161237   3.012   5.944   6.315  1.4428 -1.2331 -0.9130
13274TIP3    H261238   2.940   5.873   6.427 -0.5477  1.0713 -0.6488
13275TIP3   OH261239   5.111   1.158   3.148 -0.7068 -0.3878 -0.1289
13275TIP3    H161240   5.133   1.128   3.060 -0.6552  1.7593 -0.8861
13275TIP3    H261241   5.149   1.245   3.154 -1.6005 -0.0820  1.6612
13276TIP3   OH261242   0.430   1.744   1.342  0.5981  0.2985  0.9993
13276TIP3    H161243   0.447   1.734   1.248  0.3829  0.6813  0.9123
13276TIP3    H261244   0.495   1.808   1.371 -1.3403  2.7297  0.4050
13277TIP3   OH261245   5.203   1.785   0.126  0.4298 -0.2538 -0.4016
13277TIP3    H161246   5.165   1.871   0.139 -2.5629 -1.6369  0.7930
13277TIP3    H261247   5.133   1.732   0.088  1.3997 -2.7322  0.9700
13278TIP3   OH261248   0.795   5.725  16.257  0.1221 -0.0980 -0.1537
13278TIP3    H161249   0.705   5.746  16.283  0.4967  0.8886  0.4135
13278TIP3    H261250   0.810   5.782  16.181 -0.0127 -0.8934 -0.7867
13279TIP3   OH261251   6.654   2.747  14.244  0.6887 -0.0102 -0.9859
13279TIP3    H161252   6.653   2.652  14.233 -1.6881 -0.2620  0.6081
13279TIP3    H261253   6.562   2.773  14.240  1.1649  2.0489 -0.0648
13280TIP3   OH261254   4.567   2.347   5.677 -0.0134 -0.1625  0.3683
13280TIP3    H161255   4.489   2.377   5.631  1.4132  0.6664 -1.6592
13280TIP3    H261256   4.536   2.276   5.733 -2.1089 -0.2598 -0.8005
13281TIP3   OH261257   5.973   2.518   5.182  0.8084 -0.1478 -1.0206
13281TIP3    H161258   6.056   2.558   5.154 -1.2084  2.9593 -3.1473
13281TIP3    H261259   5.983   2.505   5.276  3.8955 -0.5413 -1.2864
13282TIP3   OH261260   2.234   6.702   5.247 -0.2691 -0.2218  0.4654
13282TIP3    H161261   2.289   6.778   5.226  2.5398 -2.1330  0.4560
13282TIP3    H261262   2.250   6.686   5.340 -1.1258 -0.6358  0.5539
13283TIP3   OH261263   0.881   6.476  15.954 -0.3069  0.0535 -0.5970
13283TIP3    H161264   0.844   6.494  16.041 -0.1120  1.8909 -0.8450
13283TIP3    H261265   0.963   6.526  15.952  0.0009 -0.4605 -1.6205
13284TIP3   OH261266   6.744   3.919   4.301  0.1670 -0.0531  0.5268
13284TIP3    H161267   6.721   3.904   4.392  0.2521  0.6532  0.6703
13284TIP3    H261268   6.700   4.000   4.278  1.4707  0.6526  0.4389
13285TIP3   OH261269   0.823   2.553   0.495 -0.0178 -0.0911  0.4096
13285TIP3    H161270   0.800   2.644   0.477 -0.0986  0.2283  1.9560
13285TIP3    H261271   0.907   2.558   0.541 -1.6538 -0.4454  3.7122
13286TIP3   OH261272   4.795   4.874   2.514 -0.0777  0.2759  0.2274
13286TIP3    H161273   4.861   4.828   2.461  0.6447  1.4487  0.0678
13286TIP3    H261274   4.842   4.897   2.595 -0.6575  0.0526  0.6285
13287TIP3   OH261275   2.353   5.902  12.021 -0.0774 -0.2319  0.3281
13287TIP3    H161276   2.427   5.917  11.962 -0.8415  0.5825 -0.4678
13287TIP3    H261277   2.392   5.899  12.108  1.1613 -2.0372 -0.2220
13288TIP3   OH261278   3.536   1.405  14.425 -0.0222 -0.4701  0.1681
13288TIP3    H161279   3.611   1.462  14.439 -0.7081  0.3623  0.5753
13288TIP3    H261280   3.498   1.392  14.512 -2.1622  1.7330 -0.3191
13289TIP3   OH261281   6.616   1.468  13.196 -0.1706  0.2041 -0.4389
13289TIP3    H161282   6.665   1.508  13.125 -1.7113  1.3136 -0.9165
13289TIP3    H261283   6.599   1.539  13.258 -1.4696 -0.0531 -0.4674
13290TIP3   OH261284   6.372   1.612   0.484 -0.4403 -0.1271  0.1875
13290TIP3    H161285   6.404   1.660   0.560 -1.0684  0.0870  0.3231
13290TIP3    H261286   6.432   1.636   0.413 -1.7979  2.4018 -0.2376
13291TIP3   OH261287   5.913   2.710  16.264 -0.4916  0.0619 -0.2875
13291TIP3    H161288   5.821   2.710  16.290  0.0173 -0.4131  1.6594
13291TIP3    H261289   5.957   2.660  16.332  0.9999 -1.1594 -2.0822
13292TIP3   OH261290   1.405   2.491   6.673 -0.1007  0.0873  0.6096
13292TIP3    H161291   1.357   2.450   6.745 -0.3866 -0.6530  0.0063
13292TIP3    H261292   1.344   2.490   6.600  0.3891  0.3221  0.1935
13293TIP3   OH261293   4.627   1.752  14.193 -0.4585 -0.0830  0.1576
13293TIP3    H161294   4.634   1.755  14.288 -1.1685  0.3392  0.1994
13293TIP3    H261295   4.617   1.659  14.173 -0.7757 -0.1291  0.5267
13294TIP3   OH261296   0.103   4.407  15.066 -0.3900  0.0871  0.3815
13294TIP3    H161297   0.065   4.450  15.143 -0.7196  0.6787 -0.1097
13294TIP3    H261298   0.053   4.325  15.058 -1.1982  0.5964  0.0754
13295TIP3   OH261299   4.184   0.685   2.789 -0.0950 -0.5467 -0.2412
13295TIP3    H161300   4.108   0.649   2.742 -0.8868  0.7856 -0.0304
13295TIP3    H261301   4.166   0.779   2.797  0.3792 -0.5716  2.0162
13296TIP3   OH261302   5.130   0.194  11.737  0.2782 -0.6412 -0.2292
13296TIP3    H161303   5.055   0.156  11.692 -0.0643 -0.0689 -0.1491
13296TIP3    H261304   5.204   0.140  11.710 -0.1130 -1.0278 -0.5412
13297TIP3   OH261305   4.718   5.904   4.326  0.6607  0.2682  0.0378
13297TIP3    H161306   4.663   5.926   4.401  2.2187  0.1638  1.2586
13297TIP3    H261307   4.684   5.958   4.254 -0.8826  0.3396  0.8053
13298TIP3   OH261308   3.509   6.623  14.304  0.5077  0.2887  0.3178
13298TIP3    H161309   3.419   6.641  14.276  0.3852  0.0823  0.5749
13298TIP3    H261310   3.503   6.615  14.399  0.7273 -0.1455  0.2962
13299TIP3   OH261311   6.118   4.457  13.642  0.4857 -0.2157 -0.0682
13299TIP3    H161312   6.074   4.386  13.688 -1.2236  0.5771 -0.3935
13299TIP3    H261313   6.163   4.506  13.710  0.5668 -0.8424  0.3329
13300TIP3   OH261314   1.030   0.924   4.385  0.7150 -0.2434 -0.1080
13300TIP3    H161315   1.036   0.899   4.293  0.7346 -0.8296  0.0521
13300TIP3    H261316   0.949   0.883   4.416  0.3491  0.5130 -0.0342
13301TIP3   OH261317   1.609   2.837  12.584 -0.3758 -0.3213  0.7950
13301TIP3    H161318   1.515   2.843  12.600 -0.5556  0.1311 -0.3267
13301TIP3    H261319   1.648   2.829  12.671 -1.3022  1.7705  1.4591
13302TIP3   OH261320   0.309   6.542  15.935 -0.1565 -0.2764 -0.3942
13302TIP3    H161321   0.357   6.521  15.854  1.4715  0.1137  0.4290
13302TIP3    H261322   0.275   6.458  15.965 -0.8115 -0.4261 -1.4738
13303TIP3   OH261323   3.825   3.290  14.482  0.1003 -0.0251  0.3303
13303TIP3    H161324   3.915   3.298  14.514 -0.1683 -1.1965  1.4929
13303TIP3    H261325   3.820   3.349  14.408  1.7263  0.3383  0.4775
13304TIP3   OH261326   4.868   5.361   5.163  0.1034 -0.1801 -0.1902
13304TIP3    H161327   4.802   5.360   5.232 -1.1971 -0.0329 -1.3780
13304TIP3    H261328   4.928   5.290   5.185 -1.2641 -1.2545  0.1842
13305TIP3   OH261329   3.257   2.596   0.454  0.1566 -0.2306  0.7577
13305TIP3    H161330   3.351   2.613   0.469 -0.0978  0.4176  1.7070
13305TIP3    H261331   3.215   2.622   0.536 -1.2290  2.6529 -0.7346
13306TIP3   OH261332   6.154   0.539   2.015 -0.1513 -0.0765  0.7521
13306TIP3    H161333   6.241   0.580   2.016 -1.2262  2.9815 -3.3684
13306TIP3    H261334   6.156   0.481   1.938 -0.7066 -3.0984  2.8513
13307TIP3   OH261335   6.554   3.128   4.514 -0.2916 -0.3165  0.4058
13307TIP3    H161336   6.493   3.122   4.440 -0.3197 -0.7043  0.4583
13307TIP3    H261337   6.619   3.060   4.496 -1.2864 -1.6850  1.6464
13308TIP3   OH261338   3.372   0.713   2.861 -0.6667  0.3518  0.1815
13308TIP3    H161339   3.421   0.785   2.901 -0.4164  0.8248 -0.9594
13308TIP3    H261340   3.285   0.749   2.844 -0.7828  0.1409  0.3210
13309TIP3   OH261341   2.611   3.386   3.661  0.6491 -0.4652  0.4739
13309TIP3    H161342   2.559   3.335   3.599 -0.0207 -0.8868  1.3588
13309TIP3    H261343   2.618   3.330   3.739 -0.7299  1.0438  1.7532
13310TIP3   OH261344   1.256   1.456  15.387  0.7968  0.5963 -0.2277
13310TIP3    H161345   1.185   1.455  15.323  0.5175 -0.9820  0.0531
13310TIP3    H261346   1.294   1.543  15.380 -0.3978  1.0629 -1.2376
13311TIP3   OH261347   1.555   6.121  12.511 -0.0183  0.3181  0.3826
13311TIP3    H161348   1.641   6.164  12.512 -0.8299  2.0334 -0.0362
13311TIP3    H261349   1.563   6.052  12.577  1.7800  0.2090  0.1212
13312TIP3   OH261350   0.518   5.391   6.011 -0.2854 -0.3910 -0.2384
13312TIP3    H161351   0.570   5.369   6.088 -2.7970 -1.2096  1.3696
13312TIP3    H261352   0.527   5.314   5.954  0.7595 -0.2371 -0.2882
13313TIP3   OH261353   1.296   4.783   2.371  0.0553 -0.3154 -0.1465
13313TIP3    H161354   1.257   4.780   2.458 -0.5974  0.7291 -0.4001
13313TIP3    H261355   1.339   4.868   2.366 -0.0201 -0.3146 -0.9000
13314TIP3   OH261356   4.202   3.201   4.315 -0.0323 -0.1400  0.0365
13314TIP3    H161357   4.267   3.271   4.323  0.7898 -0.8325 -0.3571
13314TIP3    H261358   4.250   3.129   4.275 -0.8093 -0.9975  0.6066
13315TIP3   OH261359   6.353   6.652   2.997  0.3322 -0.2112 -0.1748
13315TIP3    H161360   6.315   6.658   2.909 -1.2678 -0.0347  0.5020
13315TIP3    H261361   6.407   6.574   2.994  1.0602  0.3034 -1.5847
13316TIP3   OH261362   2.180   1.834  13.922  0.1027 -0.0305 -0.7157
13316TIP3    H161363   2.126   1.891  13.977 -1.4592 -2.2046  0.1312
13316TIP3    H261364   2.133   1.750  13.921  2.4727 -1.4329 -1.6054
13317TIP3   OH261365   3.825   4.700  11.120  0.4389  0.4873  0.3827
13317TIP3    H161366   3.811   4.659  11.205 -0.0999 -0.1200  0.0163
13317TIP3    H261367   3.746   4.752  11.105  0.3192  0.2176  0.0527
13318TIP3   OH261368   5.313   0.457   3.067 -0.0752  0.2568 -0.2832
13318TIP3    H161369   5.253   0.531   3.056 -2.6157 -1.6864 -0.6368
13318TIP3    H261370   5.256   0.380   3.060  2.0723 -1.7107  2.1121
13319TIP3   OH261371   6.053   4.663   5.348 -0.4710 -0.1212 -0.9974
13319TIP3    H161372   6.044   4.756   5.366 -1.1734 -0.5721  1.3586
13319TIP3    H261373   5.964   4.633   5.328 -0.7983 -0.7062  1.0023
13320TIP3   OH261374   5.216   5.429  14.534  0.2213  0.0069  0.2005
13320TIP3    H161375   5.251   5.494  14.474 -1.0678  0.9888  0.4462
13320TIP3    H261376   5.182   5.481  14.608  0.5803 -1.0647  1.1459
13321TIP3   OH261377   0.220   3.775   3.663  0.1006  0.2129 -0.2286
13321TIP3    H161378   0.308   3.755   3.632  0.0211 -2.1671  0.8797
13321TIP3    H261379   0.224   3.867   3.688  1.9536  0.4472 -1.2084
13322TIP3   OH261380   2.505   6.558  15.025  0.2642  0.1313  0.4013
13322TIP3    H161381   2.470   6.512  14.949  1.6340 -1.0140  0.4206
13322TIP3    H261382   2.486   6.500  15.099 -2.5147  1.9704  1.2503
13323TIP3   OH261383   4.555   2.444  10.631  0.3841  0.6511 -0.9890
13323TIP3    H161384   4.582   2.497  10.555  1.8619 -0.0520 -0.9986
13323TIP3    H261385   4.555   2.354  10.597  2.4013  0.1668  0.1308
13324TIP3   OH261386   4.970   5.750   1.265  0.5358 -0.5539  0.6529
13324TIP3    H161387   4.923   5.702   1.333  1.0796 -2.4905 -0.2757
13324TIP3    H261388   5.005   5.682   1.207  0.5287  1.0135 -1.2793
13325TIP3   OH261389   5.211   0.012  15.281 -0.0779 -0.2830  0.1167
13325TIP3    H161390   5.132  -0.030  15.248  0.3723 -0.6121 -0.5696
13325TIP3    H261391   5.282  -0.034  15.237  0.4940  0.0458  0.6844
13326TIP3   OH261392   3.937   4.825  14.847 -0.5390  0.2516  0.0468
13326TIP3    H161393   3.881   4.791  14.777  0.7321 -0.8906 -0.4720
13326TIP3    H261394   4.017   4.852  14.801 -1.3279  3.7519  0.4744
13327TIP3   OH261395   2.132   3.048   2.249 -0.2366  0.1495 -0.0359
13327TIP3    H161396   2.171   3.130   2.277  0.7514 -0.6446  1.0046
13327TIP3    H261397   2.057   3.074   2.195 -0.7834  1.7340  1.4138
13328TIP3   OH261398   5.059   4.444  15.898 -0.0127 -0.3355  0.3403
13328TIP3    H161399   4.993   4.414  15.836  0.1412 -0.6899  0.3451
13328TIP3    H261400   5.079   4.534  15.871 -0.6101 -0.1719  0.4386
13329TIP3   OH261401   5.249   2.150   1.435  0.4959 -0.6248 -0.4907
13329TIP3    H161402   5.317   2.203   1.393  0.2434 -1.4241 -1.9685
13329TIP3    H261403   5.295   2.101   1.503  1.2359 -0.5050 -0.8939
13330TIP3   OH261404   4.098   4.405   3.022  0.1577 -0.3202 -0.1757
13330TIP3    H161405   4.149   4.326   3.038 -0.9187 -1.0657 -0.2536
13330TIP3    H261406   4.024   4.398   3.083  0.3354  0.9065  0.1954
13331TIP3   OH261407   2.899   2.754   1.972  0.4645  0.0218 -0.0209
13331TIP3    H161408   2.971   2.735   1.911  0.4599  1.7695 -0.6275
13331TIP3    H261409   2.942   2.776   2.054  0.6752  1.3513 -0.4633
13332TIP3   OH261410   1.243   6.637   2.240 -0.0662  0.0257  0.0958
13332TIP3    H161411   1.161   6.615   2.284 -1.2757 -0.6263 -2.3197
13332TIP3    H261412   1.220   6.709   2.181  1.2108  0.1023 -0.3491
13333TIP3   OH261413   5.310   5.439   4.769 -0.0300 -0.0546  0.2520
13333TIP3    H161414   5.319   5.411   4.678 -0.4854  0.4091  0.0539
13333TIP3    H261415   5.394   5.479   4.791 -0.1734  0.5140 -0.2141
13334TIP3   OH261416   2.930   5.846  14.269  0.0403 -0.3722 -1.1084
13334TIP3    H161417   3.005   5.815  14.219  1.4416  1.8945 -0.5458
13334TIP3    H261418   2.936   5.801  14.353 -0.3484 -1.5985 -1.7136
13335TIP3   OH261419   1.099   6.153  17.184 -0.7188  0.4172 -0.3332
13335TIP3    H161420   1.179   6.203  17.203 -0.2604 -0.9408  1.6146
13335TIP3    H261421   1.029   6.210  17.216 -0.2944  0.3859  0.7050
13336TIP3   OH261422   1.559   1.400   4.599  0.3597  0.2616  0.2579
13336TIP3    H161423   1.651   1.409   4.623  0.3466 -0.5526  0.6147
13336TIP3    H261424   1.559   1.397   4.503  0.5000  2.4542  0.1365
13337TIP3   OH261425   1.011   1.819   1.484  0.5333  0.7258  0.2846
13337TIP3    H161426   0.989   1.797   1.394 -0.2611 -1.5947  0.9733
13337TIP3    H261427   1.084   1.762   1.506  0.0940  0.5523  1.3767
13338TIP3   OH261428   0.434   1.306   2.756 -0.5266 -0.0944 -0.0008
13338TIP3    H161429   0.488   1.366   2.807  0.0579 -1.0557  0.5392
13338TIP3    H261430   0.350   1.351   2.746  0.2537  1.2804 -0.5731
13339TIP3   OH261431   2.903   1.157   0.531 -0.0742 -0.3526 -0.3293
13339TIP3    H161432   2.980   1.165   0.587 -0.5876 -0.8238  0.4604
13339TIP3    H261433   2.885   1.063   0.528  0.0640 -0.3641 -1.4654
13340TIP3   OH261434   5.097   2.441   2.271 -0.2085  0.5917 -0.1015
13340TIP3    H161435   5.053   2.362   2.239  2.4234 -0.1977 -2.0989
13340TIP3    H261436   5.190   2.418   2.272  0.6989  3.7114 -0.9901
13341TIP3   OH261437   1.959   3.062  15.531  0.0830  0.0501  0.2505
13341TIP3    H161438   1.892   2.996  15.516  0.4511 -0.0706 -0.9238
13341TIP3    H261439   1.956   3.118  15.453 -0.5886  1.7636  1.4395
13342TIP3   OH261440   5.269   3.783  12.072  0.2760  0.0309  0.2201
13342TIP3    H161441   5.327   3.724  12.119  0.8195 -0.4663 -1.0461
13342TIP3    H261442   5.183   3.741  12.078  0.0181  0.7290  2.0251
13343TIP3   OH261443   1.712   0.511   6.297 -0.2949 -0.0658 -0.2817
13343TIP3    H161444   1.793   0.523   6.248  0.3470  0.2860  0.8305
13343TIP3    H261445   1.736   0.455   6.370 -1.3557 -1.0188 -0.6308
13344TIP3   OH261446   6.366   6.182   0.239  0.1279  0.0017  0.1710
13344TIP3    H161447   6.458   6.207   0.243  0.1645  0.1024 -0.9917
13344TIP3    H261448   6.345   6.181   0.145 -1.5351  1.7188  0.4639
13345TIP3   OH261449   2.923   4.233  10.734 -0.2038  0.2557 -0.3642
13345TIP3    H161450   2.855   4.178  10.695 -0.5267 -1.1917  2.0252
13345TIP3    H261451   2.970   4.271  10.660 -0.7808 -2.2471 -2.1056
13346TIP3   OH261452   3.337   4.113   5.860 -0.0446 -0.3712  0.1220
13346TIP3    H161453   3.310   4.197   5.898  1.0681 -0.4489  1.1376
13346TIP3    H261454   3.262   4.055   5.876 -0.6900  0.3363 -0.2924
13347TIP3   OH261455   1.646   2.592   2.100 -0.2960  0.3844  0.6086
13347TIP3    H161456   1.680   2.511   2.140 -0.2335  0.9897  1.8290
13347TIP3    H261457   1.699   2.661   2.139  0.5298  0.9470 -1.3931
13348TIP3   OH261458   4.052   0.116  10.803 -0.0801  0.4763 -0.3504
13348TIP3    H161459   4.039   0.047  10.737 -0.2979 -0.3470  0.5204
13348TIP3    H261460   4.060   0.197  10.753  0.8686 -0.2676 -1.4437
13349TIP3   OH261461   4.915   4.292  14.055  0.4880  0.0851  0.3426
13349TIP3    H161462   4.988   4.276  13.996 -0.4752 -2.3656 -0.3264
13349TIP3    H261463   4.839   4.301  13.998 -0.1427 -0.1673  1.1105
13350TIP3   OH261464   2.605   4.483   5.692 -0.0611  0.0654  0.2172
13350TIP3    H161465   2.668   4.503   5.623 -0.1094  0.5446  0.3047
13350TIP3    H261466   2.579   4.569   5.725 -0.0624 -0.1610  0.8088
13351TIP3   OH261467   0.829   3.441   4.232 -0.3031  0.2557  0.4279
13351TIP3    H161468   0.892   3.509   4.257  0.1852  0.7399 -1.8635
13351TIP3    H261469   0.752   3.489   4.203 -0.7894 -0.2582  0.8579
13352TIP3   OH261470   5.556   1.814   4.116  0.2125  0.2546 -0.3932
13352TIP3    H161471   5.540   1.883   4.181  0.5040 -1.6301  1.8032
13352TIP3    H261472   5.650   1.798   4.121 -0.1077 -1.5988  0.5949
13353TIP3   OH261473   2.333   2.013   0.984  0.1006 -0.2495  0.1968
13353TIP3    H161474   2.260   2.074   0.971  0.6637  0.9208  2.1097
13353TIP3    H261475   2.292   1.926   0.985 -0.9928  0.2322 -0.5603
13354TIP3   OH261476   0.570   6.064  13.104 -0.2690  0.2418  0.1206
13354TIP3    H161477   0.522   5.997  13.154  0.5473 -0.7866 -0.4477
13354TIP3    H261478   0.520   6.073  13.023 -0.0384 -0.1282 -0.0629
13355TIP3   OH261479   3.235   4.287   0.778  0.3925 -0.2576  0.8702
13355TIP3    H161480   3.162   4.342   0.751  2.3540  1.2290 -1.8875
13355TIP3    H261481   3.213   4.199   0.747 -0.2766  0.1335  0.2226
13356TIP3   OH261482   4.733   3.741   3.799  0.0629  0.8168  0.2477
13356TIP3    H161483   4.651   3.775   3.832 -0.6796 -0.0236 -0.6658
13356TIP3    H261484   4.723   3.742   3.704  1.0760  0.6242  0.1250
13357TIP3   OH261485   5.998   3.733   5.676  0.1712 -0.3428 -0.0546
13357TIP3    H161486   6.044   3.656   5.710 -0.9983 -0.8041  0.5042
13357TIP3    H261487   5.912   3.731   5.717 -0.4298  0.4189 -1.2088
13358TIP3   OH261488   3.826   0.877  13.640  0.0395 -0.5618  0.4169
13358TIP3    H161489   3.836   0.846  13.730 -1.6668 -2.3313  0.0812
13358TIP3    H261490   3.735   0.908  13.636  0.9021  2.1595 -0.0079
13359TIP3   OH261491   5.266   6.159   1.850 -0.8119  0.2035 -0.4223
13359TIP3    H161492   5.269   6.253   1.833 -0.6126  0.1062 -0.9344
13359TIP3    H261493   5.327   6.145   1.922 -0.1812  0.3420 -0.9285
13360TIP3   OH261494   3.926   6.155  12.853  0.2679 -0.1569  0.3502
13360TIP3    H161495   3.904   6.248  12.860 -1.8010 -0.6540  1.3023
13360TIP3    H261496   3.847   6.115  12.816  0.1007 -1.8666  2.3545
13361TIP3   OH261497   0.381   2.891   2.052  0.1311  0.1617 -0.0273
13361TIP3    H161498   0.405   2.821   2.113  0.9752 -0.9814 -1.5574
13361TIP3    H261499   0.442   2.879   1.979 -1.9742  0.3013 -1.9059
13362TIP3   OH261500   0.894   5.785   5.274  0.2101 -0.3878  0.2363
13362TIP3    H161501   0.839   5.710   5.297  0.2605 -0.5977 -0.3085
13362TIP3    H261502   0.948   5.800   5.351 -0.2868 -0.4762  0.6025
13363TIP3   OH261503   6.612   2.379   3.356 -0.1639  0.2171  0.2102
13363TIP3    H161504   6.688   2.386   3.298 -1.2013 -0.4687 -1.2965
13363TIP3    H261505   6.617   2.458   3.410  0.9393  0.8094 -0.6897
13364TIP3   OH261506   6.109   6.570  15.850 -0.3291 -0.8761 -0.1612
13364TIP3    H161507   6.059   6.488  15.856 -0.3678 -0.8419  0.0031
13364TIP3    H261508   6.047   6.637  15.879  0.2133 -0.9948  1.3885
13365TIP3   OH261509   0.019   2.912   4.829 -0.1868  0.0669 -0.1942
13365TIP3    H161510   0.049   2.989   4.782 -1.4559 -1.2498 -3.3915
13365TIP3    H261511   0.090   2.849   4.821 -0.4767 -0.2248 -0.5012
13366TIP3   OH261512   4.397   2.154   1.643  0.3278 -0.1192 -0.3306
13366TIP3    H161513   4.473   2.170   1.699 -0.1168 -1.2486  0.6362
13366TIP3    H261514   4.413   2.068   1.604 -0.7839 -0.7155  0.4825
13367TIP3   OH261515   1.458   4.048   2.466 -0.5571  0.4278  0.2851
13367TIP3    H161516   1.463   3.955   2.491  0.2257  0.4137  0.1134
13367TIP3    H261517   1.398   4.050   2.392  1.7178 -0.4141 -1.7127
13368TIP3   OH261518   1.641   3.696  12.201  0.5301 -0.4335 -0.3149
13368TIP3    H161519   1.673   3.626  12.144 -0.3774 -0.7902 -0.4027
13368TIP3    H261520   1.613   3.651  12.281  1.7635  0.0598  0.4248
13369TIP3   OH261521   1.747   1.800   4.648 -0.0895 -0.4860 -0.4895
13369TIP3    H161522   1.728   1.767   4.560 -2.6600  0.2664 -0.3166
13369TIP3    H261523   1.746   1.721   4.703 -1.2317 -0.7048 -0.7871
13370TIP3   OH261524   1.234   5.654  17.100  0.2203  0.3987 -0.1096
13370TIP3    H161525   1.324   5.631  17.077  0.6773  0.7936  1.1994
13370TIP3    H261526   1.225   5.627  17.192 -1.1750 -0.1490 -0.3881
13371TIP3   OH261527   5.696   0.404  16.781 -0.5127 -0.4308 -0.7264
13371TIP3    H161528   5.789   0.418  16.768  0.0243 -0.5264  2.2615
13371TIP3    H261529   5.672   0.337  16.717  0.1554  3.1079 -5.1422
13372TIP3   OH261530   1.387   2.367   0.362  0.0960  0.1691  0.3305
13372TIP3    H161531   1.346   2.316   0.292 -0.0265 -0.3806  0.7984
13372TIP3    H261532   1.458   2.414   0.318  0.3251 -0.5421 -0.0781
13373TIP3   OH261533   2.799   3.086   6.064  0.2054 -0.1013 -0.0564
13373TIP3    H161534   2.838   3.035   6.135 -1.8598  0.4958  1.6180
13373TIP3    H261535   2.773   3.168   6.105  2.9456  2.2626 -2.5341
13374TIP3   OH261536   4.084   1.288  15.614  0.5248 -0.1329  0.5010
13374TIP3    H161537   4.005   1.262  15.660  0.1116 -0.9312 -0.6000
13374TIP3    H261538   4.071   1.380  15.592 -1.3899 -0.8994 -2.0791
13375TIP3   OH261539   6.392   6.681   4.053  0.1063 -0.3105 -0.6545
13375TIP3    H161540   6.421   6.635   4.132  0.9972 -0.9450 -1.3342
13375TIP3    H261541   6.417   6.772   4.067 -0.0577 -0.3526 -0.0612
13376TIP3   OH261542   1.406   6.041   3.261 -0.0337 -0.1941  0.1063
13376TIP3    H161543   1.331   6.094   3.231 -0.0585  0.6067  1.4892
13376TIP3    H261544   1.384   6.018   3.351  1.5518  0.3834  0.6764
13377TIP3   OH261545   4.357   2.636  15.824  0.0423  0.2952  0.3656
13377TIP3    H161546   4.269   2.627  15.862 -1.5343  1.7938 -2.5172
13377TIP3    H261547   4.385   2.546  15.806 -0.9862 -0.2106  1.1954
13378TIP3   OH261548   5.858   0.631   5.749  0.0954 -0.1126 -0.5494
13378TIP3    H161549   5.832   0.689   5.677 -0.4385 -0.8554 -0.9747
13378TIP3    H261550   5.915   0.685   5.804 -1.0144  1.0571 -0.4972
13379TIP3   OH261551   5.178   2.333   5.155 -0.6918  0.7051 -0.4918
13379TIP3    H161552   5.139   2.418   5.175 -0.5595  0.6798 -0.1117
13379TIP3    H261553   5.272   2.350   5.153 -0.7187  0.8040 -1.5876
13380TIP3   OH261554   2.915   4.804   0.720  0.1740  0.2308 -0.1442
13380TIP3    H161555   2.925   4.728   0.662  0.3091 -1.1557  1.5937
13380TIP3    H261556   2.820   4.818   0.725  0.1513  0.2143 -0.5298
13381TIP3   OH261557   1.457   5.045   0.230 -0.5462 -0.0659  0.6553
13381TIP3    H161558   1.542   5.089   0.223 -0.9113  0.5038 -0.4605
13381TIP3    H261559   1.409   5.098   0.294 -1.2810  1.7487 -1.2859
13382TIP3   OH261560   1.054   0.122   0.392  0.0982  0.0393 -0.4207
13382TIP3    H161561   1.140   0.161   0.403  0.1852 -0.4187  0.6044
13382TIP3    H261562   1.043   0.114   0.297  1.3265 -0.2391 -0.5496
13383TIP3   OH261563   3.452   5.961   4.178  0.4959  0.2510  1.1243
13383TIP3    H161564   3.452   6.043   4.127  2.5009  0.4380  1.3717
13383TIP3    H261565   3.396   5.902   4.127  1.6293  0.7526 -0.8247
13384TIP3   OH261566   1.129   1.189  11.299  0.5180  0.3309 -0.4572
13384TIP3    H161567   1.197   1.144  11.349  0.3244 -1.5948 -1.8162
13384TIP3    H261568   1.124   1.140  11.217 -1.2906  1.5063 -1.0887
13385TIP3   OH261569   1.639   2.024  15.681 -0.3456  0.1094  0.0745
13385TIP3    H161570   1.630   2.034  15.586  0.0673  2.0777  0.1962
13385TIP3    H261571   1.564   1.970  15.707 -1.3679  0.8649 -1.1789
13386TIP3   OH261572   3.251   2.312  16.197  0.0272 -0.0787 -0.0699
13386TIP3    H161573   3.285   2.225  16.176 -1.3384 -0.2405 -1.8699
13386TIP3    H261574   3.322   2.371  16.175  0.1868 -0.6042 -1.0188
13387TIP3   OH261575   4.501   5.850  15.742 -0.0938  0.4067  0.3092
13387TIP3    H161576   4.455   5.931  15.765  0.5809  1.0098 -0.3923
13387TIP3    H261577   4.451   5.781  15.786  0.6922  1.3936  2.9334
13388TIP3   OH261578   0.930   5.083  16.343  0.0619  0.5051  0.3183
13388TIP3    H161579   1.011   5.035  16.362  0.8932  1.4905 -0.5954
13388TIP3    H261580   0.860   5.019  16.359  1.1255 -1.1109 -1.0862
13389TIP3   OH261581   2.041   5.680   4.086  0.3165  0.3924  0.3208
13389TIP3    H161582   1.961   5.643   4.047  0.2332  0.3477  0.5308
13389TIP3    H261583   2.066   5.751   4.028  0.6451 -0.1868 -0.2592
13390TIP3   OH261584   5.688   1.767   1.016  0.2619 -0.1415  0.6264
13390TIP3    H161585   5.762   1.791   1.073  2.0678 -2.3402 -0.6174
13390TIP3    H261586   5.720   1.783   0.927 -0.7340 -1.2092  0.0488
13391TIP3   OH261587   4.430   0.860  17.104  0.6318  0.0725  0.4519
13391TIP3    H161588   4.454   0.897  17.189  1.4433 -0.1416  0.3206
13391TIP3    H261589   4.469   0.919  17.040  0.8381 -0.2902  0.2353
13392TIP3   OH261590   2.731   0.219   2.594  0.2715 -0.5534 -0.0897
13392TIP3    H161591   2.766   0.200   2.507  1.6371  1.0928  0.0554
13392TIP3    H261592   2.800   0.194   2.655 -0.5447 -1.3841  0.5231
13393TIP3   OH261593   3.218   2.753   4.012 -0.2669  0.0313  0.0497
13393TIP3    H161594   3.128   2.724   3.997  0.5877 -1.8300 -2.2324
13393TIP3    H261595   3.233   2.821   3.947 -0.1751  0.7820  0.8363
13394TIP3   OH261596   3.642   5.090  12.316  0.4171 -0.6545 -0.4067
13394TIP3    H161597   3.645   5.180  12.349  0.9413 -1.0794  0.7483
13394TIP3    H261598   3.577   5.046  12.371 -0.1092 -0.8967 -1.2069
13395TIP3   OH261599   2.234   5.548  16.439 -0.2794 -0.5855 -0.2890
13395TIP3    H161600   2.150   5.544  16.391  0.8945 -1.9780 -2.4199
13395TIP3    H261601   2.268   5.458  16.433  1.1699 -0.1378  0.9128
13396TIP3   OH261602   0.430   3.536   6.086  0.1773 -0.3897  0.7155
13396TIP3    H161603   0.417   3.586   6.006  1.6214  1.0919  1.3425
13396TIP3    H261604   0.409   3.598   6.157  1.7835 -0.6924  1.5059
13397TIP3   OH261605   1.736   4.243  16.610  0.4493 -0.4884  0.2485
13397TIP3    H161606   1.820   4.232  16.654  0.6988 -1.6746 -0.5028
13397TIP3    H261607   1.756   4.236  16.517 -0.4074 -0.2071  0.0335
13398TIP3   OH261608   2.788   5.748  12.550  0.2635 -0.5880  0.0294
13398TIP3    H161609   2.830   5.720  12.469  0.7386  2.1985 -0.7787
13398TIP3    H261610   2.696   5.722  12.540  0.6425 -1.7742 -0.6181
13399TIP3   OH261611   2.229   6.750  16.208  0.2454  0.2273 -0.0420
13399TIP3    H161612   2.145   6.790  16.231 -0.3531 -0.7152 -0.5119
13399TIP3    H261613   2.272   6.815  16.152 -1.5063 -0.4450 -2.3317
13400TIP3   OH261614   0.132   4.454  16.764  0.1338  0.1012  0.2559
13400TIP3    H161615   0.134   4.543  16.729 -1.3009 -0.4012 -1.2479
13400TIP3    H261616   0.061   4.454  16.828 -0.2343 -0.0905 -0.1506
13401TIP3   OH261617   3.700   5.696  16.702 -0.1664  0.0446 -0.5118
13401TIP3    H161618   3.661   5.781  16.721 -0.3383 -0.3905  1.3138
13401TIP3    H261619   3.791   5.704  16.732 -0.8843 -1.1842  2.3535
13402TIP3   OH261620   1.837   6.024   2.428  0.5870 -0.1150  0.4721
13402TIP3    H161621   1.816   6.056   2.340  1.5668 -0.7282 -0.0023
13402TIP3    H261622   1.882   6.097   2.470  0.3755  0.0766  0.3706
13403TIP3   OH261623   1.930   5.928   1.397 -0.3389  0.0234  0.2979
13403TIP3    H161624   1.860   5.881   1.442  0.3519  0.7664  2.2357
13403TIP3    H261625   1.899   6.018   1.391  0.3615  0.3180  1.0002
13404TIP3   OH261626   1.127   6.006   4.899 -0.6310 -0.5820  0.1007
13404TIP3    H161627   1.156   6.094   4.923 -0.0615 -0.8249  0.3160
13404TIP3    H261628   1.048   6.020   4.847  1.1924  0.2571 -2.6722
13405TIP3   OH261629   4.219   4.803  16.595  0.7563  0.3473 -1.1587
13405TIP3    H161630   4.230   4.714  16.628  1.7082  0.9403  0.1971
13405TIP3    H261631   4.201   4.792  16.502  0.5214 -1.2709 -0.9479
13406TIP3   OH261632   1.378   1.798   0.298 -0.4497 -0.1277  0.1033
13406TIP3    H161633   1.459   1.849   0.304 -1.6391  2.0048 -1.1660
13406TIP3    H261634   1.336   1.828   0.218 -3.0085 -0.4573  1.2286
13407TIP3   OH261635   2.013   4.870  11.006 -0.4137  0.0268  0.1156
13407TIP3    H161636   1.992   4.962  10.993 -1.7343 -0.2224  0.3771
13407TIP3    H261637   1.931   4.830  11.036  0.2663 -1.1345  0.4935
13408TIP3   OH261638   4.646   5.819   3.570  0.3945 -0.3213  0.0977
13408TIP3    H161639   4.595   5.769   3.634 -0.3174 -0.1587 -0.3354
13408TIP3    H261640   4.629   5.911   3.592 -1.4089 -0.2201 -1.4853
13409TIP3   OH261641   5.199   5.430  12.139  0.4484  0.2914  0.0288
13409TIP3    H161642   5.166   5.476  12.216  1.2051  1.4378 -0.3061
13409TIP3    H261643   5.198   5.495  12.069  0.2999 -0.5786 -0.7952
13410TIP3   OH261644   6.641   4.756  13.212  0.5399 -0.0744 -0.1582
13410TIP3    H161645   6.648   4.783  13.303 -3.2673 -1.4962  0.7744
13410TIP3    H261646   6.640   4.838  13.162  1.9668  0.7442  1.1013
13411TIP3   OH261647   5.199   2.283  14.063 -0.1688  0.4694 -0.0916
13411TIP3    H161648   5.119   2.334  14.051 -0.6393 -0.5025 -1.3623
13411TIP3    H261649   5.254   2.337  14.119 -1.7951  1.0660  1.0076
13412TIP3   OH261650   2.145   3.718  11.062 -0.0036 -0.3868 -0.1653
13412TIP3    H161651   2.211   3.784  11.042 -0.0917 -0.0597  0.5968
13412TIP3    H261652   2.123   3.732  11.154 -1.5320 -0.1174 -0.5330
13413TIP3   OH261653   6.242   4.985   6.629 -0.0056 -0.1201  0.7816
13413TIP3    H161654   6.201   4.912   6.582  0.5891 -0.0024  0.0552
13413TIP3    H261655   6.169   5.030   6.671 -0.3187 -1.5730  1.9014
13414TIP3   OH261656   0.714   2.465   2.541  0.0204  0.3794  0.3036
13414TIP3    H161657   0.806   2.494   2.542  0.6884 -1.6179  1.3568
13414TIP3    H261658   0.665   2.543   2.568  1.5807  0.9899  1.5817
13415TIP3   OH261659   3.703   1.137  10.540  0.1492  0.0118  0.5215
13415TIP3    H161660   3.652   1.108  10.615 -0.2793  1.7705  0.9582
13415TIP3    H261661   3.726   1.228  10.560 -0.2568  0.6378 -1.6038
13416TIP3   OH261662   2.440   5.682   1.981  0.0638 -0.0099  0.7293
13416TIP3    H161663   2.451   5.776   1.970 -0.4127  0.3185  2.6445
13416TIP3    H261664   2.382   5.656   1.910  1.2264  0.8695 -0.6074
13417TIP3   OH261665   2.153   2.221  16.644  0.1492  0.0227  0.1914
13417TIP3    H161666   2.126   2.307  16.676 -0.3666 -0.5553  1.3783
13417TIP3    H261667   2.098   2.160  16.692  1.1135 -1.0134  0.0007
13418TIP3   OH261668   4.660   6.120  14.596  0.5788  0.2556 -0.2305
13418TIP3    H161669   4.745   6.113  14.554 -0.1413  1.6939 -2.0696
13418TIP3    H261670   4.640   6.031  14.626  3.0982  0.0619  1.1333
13419TIP3   OH261671   5.788   5.577   3.275 -0.3722  0.1403  0.1757
13419TIP3    H161672   5.774   5.494   3.229 -0.2112  0.8567 -1.2145
13419TIP3    H261673   5.700   5.610   3.293 -0.4821  0.6909 -1.2264
13420TIP3   OH261674   4.483   4.645  17.059  0.1734 -0.1453  0.9327
13420TIP3    H161675   4.445   4.589  16.992 -1.0355  1.9015 -0.1824
13420TIP3    H261676   4.513   4.585  17.127 -2.5879 -2.0289  0.6048
13421TIP3   OH261677   0.689   1.075   2.355 -0.0858  0.9112  0.2586
13421TIP3    H161678   0.657   1.164   2.347 -0.0147  1.1543  2.1797
13421TIP3    H261679   0.617   1.027   2.396 -0.1368  0.0555 -0.7844
13422TIP3   OH261680   5.561   0.069  12.055 -0.3261  0.3521 -0.0805
13422TIP3    H161681   5.488   0.017  12.088 -0.1298 -0.8815 -1.5071
13422TIP3    H261682   5.522   0.155  12.035 -1.4101 -0.3134 -0.8970
13423TIP3   OH261683   6.586   1.677  15.206 -0.3645 -0.4919 -0.2450
13423TIP3    H161684   6.508   1.731  15.217 -0.1803  0.1779 -2.0084
13423TIP3    H261685   6.653   1.720  15.259 -0.5804  0.2635 -0.5762
13424TIP3   OH261686   6.118   0.657  17.118  0.0052 -0.0426  0.4288
13424TIP3    H161687   6.185   0.655  17.185  0.2894  1.6168  0.2338
13424TIP3    H261688   6.056   0.588  17.143  0.8851 -0.4467  1.5384
13425TIP3   OH261689   5.142   1.052  14.696 -0.3654 -0.6755  0.0903
13425TIP3    H161690   5.235   1.028  14.694 -0.1368  0.1832 -1.3532
13425TIP3    H261691   5.129   1.092  14.782 -0.0493 -3.1333  1.3557
13426TIP3   OH261692   1.317   6.450   1.977  0.2888 -0.4375 -0.1739
13426TIP3    H161693   1.333   6.543   1.996  3.1218 -1.0825  1.1453
13426TIP3    H261694   1.394   6.422   1.927 -0.5997 -2.0608 -0.7169
13427TIP3   OH261695   5.455   1.517  12.046  0.1051  0.4548  0.2454
13427TIP3    H161696   5.460   1.465  12.127  0.0016  2.5566  1.6830
13427TIP3    H261697   5.395   1.468  11.990  0.7550 -1.4474  1.1182
13428TIP3   OH261698   1.125   3.881   3.490 -0.7247  0.7361  0.3221
13428TIP3    H161699   1.095   3.949   3.551 -1.7600 -0.2435  0.9504
13428TIP3    H261700   1.146   3.806   3.545  0.3555  0.5083 -0.3665
13429TIP3   OH261701   2.130   2.661  12.567  0.2444  0.0759  0.1879
13429TIP3    H161702   2.160   2.695  12.651 -0.1389 -0.6876  0.6366
13429TIP3    H261703   2.122   2.567  12.580  4.2498 -0.7784 -1.8736
13430TIP3   OH261704   4.296   5.935   4.458 -0.0068 -0.2901  0.7065
13430TIP3    H161705   4.239   5.908   4.386  2.1639 -1.7556 -0.5669
13430TIP3    H261706   4.237   5.943   4.533 -1.7197 -3.4020 -0.1220
13431TIP3   OH261707   6.322   1.228  15.126 -0.8753 -0.1730 -0.0528
13431TIP3    H161708   6.257   1.258  15.190 -1.1545  2.4616 -1.4031
13431TIP3    H261709   6.406   1.237  15.171 -1.2389 -1.3001  0.9065
13432TIP3   OH261710   0.899   4.521   6.663 -0.1528 -0.3102 -0.0890
13432TIP3    H161711   0.809   4.515   6.632 -0.3354  1.7900 -0.1291
13432TIP3    H261712   0.942   4.581   6.602  1.9527 -2.9401 -1.4013
13433TIP3   OH261713   4.273   4.999   2.503  0.6963  0.1793 -0.2508
13433TIP3    H161714   4.235   5.018   2.417  1.6548 -1.4573 -1.0673
13433TIP3    H261715   4.197   4.987   2.560  0.0248  0.1104 -1.1334
13434TIP3   OH261716   5.590   4.621  13.394 -0.0364  0.2640 -0.2837
13434TIP3    H161717   5.583   4.555  13.326  0.5460 -1.6451  1.4203
13434TIP3    H261718   5.501   4.631  13.428 -0.0552  0.0705 -0.2784
13435TIP3   OH261719   0.082   6.162  16.992  0.3446  0.1282 -0.5174
13435TIP3    H161720  -0.012   6.177  16.977  0.1748 -1.4565 -1.2480
13435TIP3    H261721   0.122   6.174  16.906  0.4654 -1.4245 -0.7097
13436TIP3   OH261722   1.317   6.549   1.637 -0.0509  0.0026 -0.1407
13436TIP3    H161723   1.380   6.621   1.627  0.0676  0.1583  1.4633
13436TIP3    H261724   1.243   6.575   1.583  0.4050  0.8397 -0.3940
13437TIP3   OH261725   3.990   6.490  15.846 -0.4878 -0.0289 -0.2103
13437TIP3    H161726   4.057   6.557  15.832  2.8114 -2.8389  0.6022
13437TIP3    H261727   3.987   6.442  15.764 -0.0021 -1.0932  0.3732
13438TIP3   OH261728   3.658   2.426  15.957 -0.1081  0.1768 -0.1666
13438TIP3    H161729   3.615   2.506  15.929  1.1919  1.0065  0.1214
13438TIP3    H261730   3.702   2.393  15.878 -1.5119 -0.8577 -0.5467
13439TIP3   OH261731   5.022   1.920  13.981 -0.4881  0.4619 -0.0433
13439TIP3    H161732   5.100   1.942  13.929 -0.5651 -0.8053 -0.7309
13439TIP3    H261733   5.049   1.936  14.072  0.9102 -0.8013 -0.1900
13440TIP3   OH261734   5.690   0.721   0.357  0.2781 -0.0210 -0.3675
13440TIP3    H161735   5.707   0.803   0.311  0.0800  0.2855  0.1094
13440TIP3    H261736   5.595   0.714   0.360  0.2921 -0.1072 -0.1189
13441TIP3   OH261737   6.265   0.200  13.240 -0.1612 -0.1526 -0.2014
13441TIP3    H161738   6.348   0.243  13.221  0.0797  0.8151  2.5825
13441TIP3    H261739   6.203   0.235  13.176  1.2397  0.1901 -1.3998
13442TIP3   OH261740   3.174   1.739   0.551 -0.1857 -0.2655 -0.1298
13442TIP3    H161741   3.180   1.741   0.647  1.5316 -0.6654 -0.1967
13442TIP3    H261742   3.245   1.795   0.521  1.1221 -2.3345 -1.1628
13443TIP3   OH261743   2.922   2.725  11.207 -0.2739  0.4291 -0.6315
13443TIP3    H161744   2.848   2.783  11.187 -0.2519  0.3748 -0.8714
13443TIP3    H261745   2.988   2.748  11.142 -0.3916 -0.1042 -0.9434
13444TIP3   OH261746   0.894   4.131  14.740  0.5700  0.5640 -0.4197
13444TIP3    H161747   0.821   4.091  14.787  1.4379 -1.2020 -0.4645
13444TIP3    H261748   0.901   4.220  14.775  0.2205 -0.1832  1.6910
13445TIP3   OH261749   5.048   4.289   5.072 -0.0695 -0.0719 -0.7277
13445TIP3    H161750   4.957   4.289   5.042  0.0841  1.0688 -1.2420
13445TIP3    H261751   5.080   4.377   5.051  0.8718 -0.1516  0.3036
13446TIP3   OH261752   6.251   2.819  13.241 -0.6527  0.1252  0.1296
13446TIP3    H161753   6.342   2.795  13.226 -0.0760  2.1822  0.1179
13446TIP3    H261754   6.234   2.792  13.332  0.5723  1.4409  0.7752
13447TIP3   OH261755   2.058   5.265   3.043  0.0438  0.0452  1.0992
13447TIP3    H161756   2.133   5.260   2.983 -0.4424 -0.5853  0.5171
13447TIP3    H261757   1.987   5.301   2.989  0.1531  1.5328  1.8931
13448TIP3   OH261758   2.535   2.064  15.535  0.2720  0.4456 -0.0179
13448TIP3    H161759   2.446   2.102  15.533  0.8921  1.9659 -1.0101
13448TIP3    H261760   2.535   2.006  15.611 -1.4836  0.6470  0.1777
13449TIP3   OH261761   6.438   5.408   1.432  0.2672  0.2769  0.0577
13449TIP3    H161762   6.378   5.334   1.433 -0.0478  0.5235  1.4468
13449TIP3    H261763   6.387   5.481   1.469  1.6393  0.2768  2.1407
13450TIP3   OH261764   2.209   1.661   1.849 -0.7841  0.6072 -0.3273
13450TIP3    H161765   2.159   1.582   1.870  1.5504 -0.8327  0.3065
13450TIP3    H261766   2.258   1.637   1.770  0.3756  1.1680  0.1891
13451TIP3   OH261767   0.483   1.349  15.912 -0.0257  0.8329  0.0645
13451TIP3    H161768   0.463   1.339  15.819  1.7688  0.8530 -0.3601
13451TIP3    H261769   0.450   1.436  15.934 -1.9291  0.1990 -0.1010
13452TIP3   OH261770   3.371   4.184  15.494 -0.5427 -0.0313  0.4045
13452TIP3    H161771   3.337   4.208  15.407  1.9386 -0.1347 -0.6752
13452TIP3    H261772   3.401   4.267  15.531  1.9240 -0.4158 -0.5324
13453TIP3   OH261773   0.414   2.372   0.838  0.4387 -0.2159 -0.1726
13453TIP3    H161774   0.403   2.386   0.744  0.6906  0.1261 -0.1525
13453TIP3    H261775   0.386   2.282   0.852 -0.0936 -0.1081 -0.4941
13454TIP3   OH261776   0.188   5.477  15.865  0.1276  0.5848  0.1256
13454TIP3    H161777   0.095   5.499  15.870  0.2438  1.1590 -0.0961
13454TIP3    H261778   0.190   5.382  15.854 -0.3629  0.2366  2.5450
13455TIP3   OH261779   1.821   0.560   0.780  0.0792  0.1328  0.1876
13455TIP3    H161780   1.822   0.636   0.722 -3.2494  1.5808  1.7421
13455TIP3    H261781   1.839   0.596   0.867 -0.2230 -1.0788  0.7711
13456TIP3   OH261782   0.261   3.441   0.191  0.0103  0.0151 -0.3418
13456TIP3    H161783   0.168   3.441   0.165  0.3444 -1.3776 -1.6433
13456TIP3    H261784   0.299   3.366   0.146  1.8888  0.8140 -0.1757
13457TIP3   OH261785   2.562   0.398   5.162  0.2133  0.8662  0.0100
13457TIP3    H161786   2.651   0.380   5.192 -0.5081 -0.1558  1.6571
13457TIP3    H261787   2.574   0.433   5.073  2.1969 -0.0447 -0.1500
13458TIP3   OH261788   2.021   3.195  15.768 -0.3026  0.4160 -0.1010
13458TIP3    H161789   2.020   3.129  15.837  1.1595  0.5470  0.0875
13458TIP3    H261790   1.984   3.150  15.692  1.0924 -0.8145 -0.1084
13459TIP3   OH261791   3.347   6.249  11.644  0.3371  0.0375  0.2486
13459TIP3    H161792   3.353   6.259  11.549  0.2032  1.0157  0.3380
13459TIP3    H261793   3.281   6.313  11.671  0.3057 -0.2986  0.9900
13460TIP3   OH261794   1.290   6.748   2.758 -0.1925 -0.2641 -0.7420
13460TIP3    H161795   1.198   6.762   2.781 -0.4480  0.1634 -1.9439
13460TIP3    H261796   1.293   6.659   2.723  0.0078 -0.5537 -0.0102
13461TIP3   OH261797   3.150   2.987  13.749 -0.0760  0.1196 -0.3221
13461TIP3    H161798   3.079   2.968  13.809  0.7636 -1.3084  0.2592
13461TIP3    H261799   3.214   2.917  13.764  1.2256  1.0791 -1.1759
13462TIP3   OH261800   2.165   5.981  12.420  0.6753  0.7601  0.2689
13462TIP3    H161801   2.176   5.936  12.504 -0.0590  0.3610  0.1620
13462TIP3    H261802   2.252   6.013  12.398  1.0575  0.0663  0.7331
13463TIP3   OH261803   0.515   6.185  11.657 -0.1022 -0.2885 -0.0073
13463TIP3    H161804   0.521   6.104  11.708 -0.8326 -0.2837  0.0940
13463TIP3    H261805   0.603   6.221  11.661 -0.3961  0.3538  2.3484
13464TIP3   OH261806   1.893   1.934  11.675 -0.2842  0.1432 -0.0109
13464TIP3    H161807   1.812   1.973  11.641  0.7941  2.4606 -0.1185
13464TIP3    H261808   1.955   1.941  11.603 -0.1090 -2.2836 -0.1732
13465TIP3   OH261809   0.768   2.064  15.725 -0.0198 -0.6774  0.0641
13465TIP3    H161810   0.732   2.082  15.812 -0.0312 -1.4006  0.2126
13465TIP3    H261811   0.840   2.003  15.741  1.3306  0.7728 -0.2260
13466TIP3   OH261812   2.150   1.572   1.204 -0.3827 -0.0844  0.1363
13466TIP3    H161813   2.085   1.614   1.147 -0.9420 -0.4821  0.4814
13466TIP3    H261814   2.177   1.494   1.155 -1.7978 -1.1268  0.9381
13467TIP3   OH261815   6.615   1.992   6.565 -0.1927 -0.3734 -0.2328
13467TIP3    H161816   6.690   1.950   6.606 -1.1136  0.0530  2.0344
13467TIP3    H261817   6.550   1.922   6.556  0.7963 -1.0548 -3.3762
13468TIP3   OH261818   3.644   2.825  16.103 -0.0677 -0.1519  0.5880
13468TIP3    H161819   3.664   2.752  16.162  0.2300  0.5993  1.4453
13468TIP3    H261820   3.712   2.821  16.036 -0.0751 -0.6843  0.6080
13469TIP3   OH261821   2.042   4.269  15.582 -0.4067  0.5024 -0.2041
13469TIP3    H161822   2.050   4.223  15.499 -1.3478 -0.2965  0.1300
13469TIP3    H261823   2.131   4.297  15.602  0.0800 -0.5531 -0.7794
13470TIP3   OH261824   3.107   6.744  12.326 -0.0426  0.3070 -0.0492
13470TIP3    H161825   3.140   6.657  12.349 -2.1952 -0.9088 -1.2530
13470TIP3    H261826   3.176   6.804  12.355  2.3845 -1.8968 -0.8575
13471TIP3   OH261827   6.257   1.502  14.714 -0.8000 -0.6223 -0.2415
13471TIP3    H161828   6.338   1.508  14.663 -1.7002 -0.9242 -1.8033
13471TIP3    H261829   6.234   1.409  14.712 -1.2625 -0.5195  0.0463
13472TIP3   OH261830   0.695   4.888   6.169  0.0534 -0.0539 -0.8066
13472TIP3    H161831   0.603   4.908   6.150 -0.1243 -1.1233 -1.1247
13472TIP3    H261832   0.697   4.794   6.182  0.9424  0.0959  0.2265
13473TIP3   OH261833   6.147   4.419   2.795  0.4277 -0.2276 -0.4991
13473TIP3    H161834   6.195   4.366   2.858  0.6771  0.9814  0.3727
13473TIP3    H261835   6.212   4.479   2.759 -0.2509  0.9754  0.2017
13474TIP3   OH261836   2.764   4.880   5.261 -0.0183  0.0428 -0.0498
13474TIP3    H161837   2.711   4.869   5.340 -0.1240  0.1689 -0.1027
13474TIP3    H261838   2.839   4.933   5.290 -0.7194  1.2162 -0.3155
13475TIP3   OH261839   1.540   3.008   5.995 -0.5128  0.0321  0.2491
13475TIP3    H161840   1.523   2.968   6.080  2.2010 -1.1073  0.3647
13475TIP3    H261841   1.515   2.940   5.932  0.2538 -0.2973  0.2864
13476TIP3   OH261842   4.846   0.609   4.281  0.3939 -0.3286  0.2150
13476TIP3    H161843   4.777   0.563   4.233 -0.6440  0.0843  1.2598
13476TIP3    H261844   4.904   0.644   4.213 -0.9296  0.0811 -0.7428
13477TIP3   OH261845   0.119   4.028   0.573 -0.2206 -0.7083  0.0022
13477TIP3    H161846   0.106   4.011   0.667  1.4250 -0.0536  0.3889
13477TIP3    H261847   0.066   4.106   0.556 -0.8646 -1.0786  0.2861
13478TIP3   OH261848   4.723   5.070   5.525 -0.1076  0.1980 -0.2192
13478TIP3    H161849   4.640   5.103   5.491 -0.1771 -0.4448 -0.6855
13478TIP3    H261850   4.768   5.034   5.449  0.4459  0.2267  0.0895
13479TIP3   OH261851   4.759   1.655   2.214  0.0422  0.4191 -0.0557
13479TIP3    H161852   4.716   1.571   2.197 -0.1343  0.6353 -0.7162
13479TIP3    H261853   4.691   1.720   2.194  0.7682  0.7776 -1.5126
13480TIP3   OH261854   4.763   1.801   0.275 -0.0226 -0.1162  0.0887
13480TIP3    H161855   4.695   1.784   0.341  0.1467  0.7481  0.5021
13480TIP3    H261856   4.832   1.848   0.323  2.1341 -3.2379  0.3444
13481TIP3   OH261857   1.047   0.859  12.615  0.4746 -0.2357 -0.0529
13481TIP3    H161858   0.968   0.811  12.591  0.7008 -0.9732  0.6324
13481TIP3    H261859   1.100   0.796  12.663 -0.6565  1.5457  3.8867
13482TIP3   OH261860   2.293   2.214   1.271 -0.2251 -0.0939 -0.3055
13482TIP3    H161861   2.353   2.222   1.345 -0.2934 -0.9307 -0.1497
13482TIP3    H261862   2.332   2.146   1.215 -1.1013 -0.7764 -0.1167
13483TIP3   OH261863   4.181   5.304  10.874 -0.2616  0.1637 -0.5897
13483TIP3    H161864   4.184   5.319  10.780  1.4994  1.8161 -0.3276
13483TIP3    H261865   4.273   5.300  10.901 -0.7174  0.8909  1.2188
13484TIP3   OH261866   1.840   4.140   3.940  0.8051  0.4546 -0.3523
13484TIP3    H161867   1.880   4.218   3.979  0.5084  1.7316 -2.4661
13484TIP3    H261868   1.757   4.130   3.985  0.1410  2.3179 -1.0759
13485TIP3   OH261869   2.872   5.106   1.415 -0.0897  0.8769  0.4039
13485TIP3    H161870   2.834   5.020   1.432 -0.0926  1.1213  1.7584
13485TIP3    H261871   2.941   5.115   1.482  1.5818  0.9215 -1.2486
13486TIP3   OH261872   0.303   6.349   3.032  0.5104  0.7589 -0.3975
13486TIP3    H161873   0.210   6.370   3.030  0.4092  0.2701 -1.4500
13486TIP3    H261874   0.344   6.416   2.976  0.7830  0.9184 -0.0129
13487TIP3   OH261875   6.753   1.844  16.840 -0.3295  0.1396 -0.2302
13487TIP3    H161876   6.686   1.781  16.868 -0.0569 -0.0186  0.0728
13487TIP3    H261877   6.788   1.808  16.759 -0.2280 -0.0648 -0.0989
13488TIP3   OH261878   2.594   5.339   0.924  0.8440 -0.4323 -0.6208
13488TIP3    H161879   2.643   5.304   0.999  0.8707 -0.4288 -0.6363
13488TIP3    H261880   2.626   5.429   0.916 -0.2175  0.0457  0.2699
13489TIP3   OH261881   6.690   1.251  15.842  0.0721  0.0470 -0.7562
13489TIP3    H161882   6.661   1.313  15.909 -0.2625  0.0773 -0.9271
13489TIP3    H261883   6.637   1.173  15.857  0.9266 -0.4384 -0.1396
13490TIP3   OH261884   1.540   3.352   1.328 -0.4294 -0.3507 -0.1095
13490TIP3    H161885   1.536   3.443   1.356 -1.2440 -0.8066  1.3904
13490TIP3    H261886   1.630   3.325   1.347 -1.0461 -0.7772  2.7990
13491TIP3   OH261887   6.740   0.148   5.076  0.4541 -0.3816 -0.2118
13491TIP3    H161888   6.780   0.234   5.058  0.6468 -0.4879 -0.2938
13491TIP3    H261889   6.695   0.161   5.160  0.3208 -0.1462 -0.3170
13492TIP3   OH261890   1.662   5.559   0.740 -0.0986 -0.2230  0.9520
13492TIP3    H161891   1.732   5.569   0.804  1.4943 -1.3671 -0.5340
13492TIP3    H261892   1.640   5.466   0.743 -0.3622 -0.1935  0.2021
13493TIP3   OH261893   1.032   2.244  13.096 -0.7815  0.6733 -0.2211
13493TIP3    H161894   1.122   2.218  13.076 -1.0542 -1.2908  0.8971
13493TIP3    H261895   1.040   2.298  13.175 -0.5767  0.6638 -0.2343
13494TIP3   OH261896   3.032   2.178  10.459  0.2212  0.1226  0.5909
13494TIP3    H161897   3.032   2.237  10.384 -2.7069 -1.1865 -0.5870
13494TIP3    H261898   3.095   2.109  10.435 -1.2190 -0.6808 -1.1154
13495TIP3   OH261899   2.857   6.404  15.034  0.0563 -0.2831 -0.2306
13495TIP3    H161900   2.783   6.351  15.004 -0.5893 -0.6106  1.7859
13495TIP3    H261901   2.819   6.491  15.049 -0.6282 -0.9824  3.0331
13496TIP3   OH261902   3.938   1.409  15.212 -0.0454 -0.5314  0.2234
13496TIP3    H161903   3.948   1.337  15.274 -0.6619  0.0294  1.0054
13496TIP3    H261904   3.902   1.368  15.133 -1.3468 -0.9446  1.0008
13497TIP3   OH261905   0.520   5.741  16.400  0.4588  0.2770 -0.2625
13497TIP3    H161906   0.468   5.820  16.416  1.1492  0.2159  2.8724
13497TIP3    H261907   0.455   5.674  16.378 -0.2272  1.4390 -1.9466
13498TIP3   OH261908   2.005   5.988  13.118  0.3561  0.3288  0.0361
13498TIP3    H161909   2.079   6.048  13.110  1.4292 -0.9517  0.0373
13498TIP3    H261910   1.983   5.989  13.211  0.9412  0.0845  0.1842
13499TIP3   OH261911   3.329   0.635   1.858 -0.1729  0.1987 -0.7182
13499TIP3    H161912   3.386   0.558   1.865 -0.2932  0.2690  2.5247
13499TIP3    H261913   3.247   0.608   1.900 -1.1243  1.3600 -1.7577
13500TIP3   OH261914   0.456   1.688  13.075  0.5245  0.6648 -0.2448
13500TIP3    H161915   0.410   1.681  12.992 -0.7966  1.7962  0.3615
13500TIP3    H261916   0.485   1.779  13.080 -0.5928  0.9789  1.1016
13501TIP3   OH261917   0.353   5.027   4.270  0.5811  0.2327 -0.2034
13501TIP3    H161918   0.311   5.103   4.229  2.2529  0.6733 -1.1764
13501TIP3    H261919   0.437   5.019   4.225  0.2459 -2.5143 -0.5015
13502TIP3   OH261920   5.493   2.099  13.685 -0.4208 -0.0918  0.0216
13502TIP3    H161921   5.510   2.169  13.747  1.1867 -0.9771  0.6490
13502TIP3    H261922   5.498   2.141  13.599  0.4022  0.6060  0.3942
13503TIP3   OH261923   5.441   3.236   2.010 -0.0979 -0.0134  0.4046
13503TIP3    H161924   5.531   3.211   2.030  0.1061 -1.2134 -1.6868
13503TIP3    H261925   5.388   3.188   2.074  0.7464  1.8944  2.6540
13504TIP3   OH261926   1.357   0.062  13.928 -0.4082 -0.4631 -0.7492
13504TIP3    H161927   1.351   0.036  14.020 -2.1477 -3.2508 -1.5322
13504TIP3    H261928   1.449   0.045  13.904 -0.6535 -2.8467 -0.2703
13505TIP3   OH261929   5.291   1.500   2.800  0.0767  0.3150  0.3048
13505TIP3    H161930   5.249   1.557   2.864 -1.2768  0.0464 -0.3026
13505TIP3    H261931   5.316   1.557   2.728 -1.7873  0.1202 -0.5558
13506TIP3   OH261932   3.846   0.533   1.625  0.6477  0.0696 -0.2113
13506TIP3    H161933   3.864   0.571   1.539  1.6133  0.5418  0.1873
13506TIP3    H261934   3.836   0.439   1.607 -2.6259  0.5152 -1.3311
13507TIP3   OH261935   5.791   1.521   4.410  0.0273 -0.2182  0.1030
13507TIP3    H161936   5.695   1.514   4.407  0.0871 -0.8477 -1.6125
13507TIP3    H261937   5.818   1.511   4.318  1.7913 -0.8075  0.6549
13508TIP3   OH261938   4.958   6.377   4.080  0.0385  1.0554  0.5526
13508TIP3    H161939   4.937   6.446   4.016 -1.4490  0.1073 -0.0253
13508TIP3    H261940   4.925   6.296   4.040  0.7099  0.1661  1.7336
13509TIP3   OH261941   6.422   3.595  10.803 -0.4769 -0.1492 -0.3981
13509TIP3    H161942   6.496   3.639  10.845 -0.1653 -2.0202  1.1971
13509TIP3    H261943   6.438   3.604  10.709  1.7711 -0.4510 -0.0976
13510TIP3   OH261944   2.662   2.688   4.909  0.1794 -0.4138 -0.3105
13510TIP3    H161945   2.569   2.698   4.888  0.4174  0.7909 -0.9113
13510TIP3    H261946   2.707   2.702   4.826  0.8550 -2.6702 -0.3855
13511TIP3   OH261947   4.196   2.054  15.766  0.2668 -0.0148 -0.0900
13511TIP3    H161948   4.265   2.087  15.824 -0.4829 -0.5780  1.1491
13511TIP3    H261949   4.213   2.097  15.682  1.0546  1.2413  0.6811
13512TIP3   OH261950   6.508   2.473   4.387 -0.1596  0.7503 -0.3330
13512TIP3    H161951   6.507   2.401   4.450 -2.8121  0.2629 -0.8223
13512TIP3    H261952   6.528   2.551   4.440 -0.3662  0.0831  0.7540
13513TIP3   OH261953   1.132   0.554  11.700 -0.2713 -0.0721  0.2672
13513TIP3    H161954   1.191   0.618  11.740 -0.8700  0.3287  0.5260
13513TIP3    H261955   1.154   0.556  11.607 -0.0240  0.2339  0.3290
13514TIP3   OH261956   3.216   4.419   1.871  0.2102  0.1458 -0.5282
13514TIP3    H161957   3.278   4.358   1.912 -0.9164 -0.0823  0.9306
13514TIP3    H261958   3.249   4.431   1.782  0.8198 -2.0986 -0.6580
13515TIP3   OH261959   2.465   3.090   1.811  0.1949 -0.1230 -0.4065
13515TIP3    H161960   2.545   3.040   1.828 -0.0525 -0.4710 -0.2537
13515TIP3    H261961   2.411   3.077   1.889  0.5269  1.1902  0.0634
13516TIP3   OH261962   5.496   2.303   4.085 -0.3179  0.1063 -0.5758
13516TIP3    H161963   5.514   2.341   3.999 -1.1011  0.3319 -0.6563
13516TIP3    H261964   5.437   2.366   4.127  0.8186  0.4806  0.5230
13517TIP3   OH261965   3.187   2.161   5.507  0.3606  0.0774 -0.0006
13517TIP3    H161966   3.100   2.190   5.533 -0.2944 -2.9679  1.7349
13517TIP3    H261967   3.172   2.102   5.433  0.9734 -0.2366  0.1183
13518TIP3   OH261968   2.291   5.492   5.899 -0.2000 -0.0677  0.7199
13518TIP3    H161969   2.204   5.515   5.866  0.1010  3.2361  1.8507
13518TIP3    H261970   2.351   5.520   5.829  0.0638 -3.4557 -0.6038
13519TIP3   OH261971   5.025   5.156   2.251 -0.0890  0.1758 -0.1473
13519TIP3    H161972   4.999   5.133   2.162  0.3588  0.0197 -0.2400
13519TIP3    H261973   5.085   5.230   2.240  0.2882 -0.1055 -0.0076
13520TIP3   OH261974   4.979   1.153   5.017  0.5791  0.5844  0.0286
13520TIP3    H161975   4.943   1.080   4.965  1.0364 -0.4234  1.0780
13520TIP3    H261976   5.069   1.162   4.987  0.2240  1.4253 -0.8248
13521TIP3   OH261977   0.224   5.049   5.970  0.3361  0.1383 -0.0805
13521TIP3    H161978   0.186   4.979   5.916  0.1507  0.5818 -0.5347
13521TIP3    H261979   0.263   5.109   5.906  0.4476  0.4747  0.3035
13522TIP3   OH261980   3.665   5.088   5.074 -0.2669 -0.2681  0.8212
13522TIP3    H161981   3.705   5.174   5.065  0.1677 -0.5930 -0.6740
13522TIP3    H261982   3.577   5.106   5.106  0.1993  0.6399  1.6386
13523TIP3   OH261983   2.046   0.233   1.902 -0.2254  0.0051  0.1182
13523TIP3    H161984   2.055   0.179   1.824 -0.9716  2.6253 -1.9518
13523TIP3    H261985   2.135   0.247   1.933  0.2550  0.4223 -1.4073
13524TIP3   OH261986   4.791   4.475   3.901 -0.0650 -0.1081 -0.4813
13524TIP3    H161987   4.871   4.449   3.856  0.6577 -0.1582  0.7856
13524TIP3    H261988   4.811   4.463   3.994 -1.0018  1.3479 -0.0583
13525TIP3   OH261989   2.453   4.617   6.080 -0.7812  0.4915  0.4039
13525TIP3    H161990   2.514   4.545   6.066  0.7389  1.5406  1.3754
13525TIP3    H261991   2.374   4.575   6.115 -0.4746 -0.8404 -0.4522
13526TIP3   OH261992   0.308   0.052   0.187  0.1284  0.9496  0.2269
13526TIP3    H161993   0.391   0.097   0.204  0.0562  0.5136  1.8486
13526TIP3    H261994   0.333  -0.037   0.166  0.0975  0.9579  0.1530
13527TIP3   OH261995   2.987   6.506  14.131  0.3961  0.1672  0.1858
13527TIP3    H161996   3.003   6.433  14.191  1.3736  0.3513  0.1675
13527TIP3    H261997   2.892   6.517  14.131  0.4171  0.7404  2.3826
13528TIP3   OH261998   0.321   4.936   3.019  0.0178 -0.2602 -0.3308
13528TIP3    H161999   0.328   4.909   3.111  0.2193 -0.0772 -0.2930
13528TIP3    H262000   0.308   5.030   3.022  0.1681 -0.2339 -0.4963
13529TIP3   OH262001   1.624   4.065  17.116 -0.0110  0.0399  0.3339
13529TIP3    H162002   1.619   4.154  17.151  0.8762  0.7451 -1.2135
13529TIP3    H262003   1.576   4.011  17.179  1.0995  1.2861  2.3633
13530TIP3   OH262004   2.694   5.225   1.164  0.0894 -0.3903 -1.0214
13530TIP3    H162005   2.723   5.311   1.193 -1.7951  0.6249 -1.9691
13530TIP3    H262006   2.774   5.171   1.165  1.3862  1.4533 -0.7854
13531TIP3   OH262007   2.510   5.084   2.743  0.0857  0.0654 -0.0473
13531TIP3    H162008   2.576   5.054   2.805 -0.9449 -1.8177  0.2069
13531TIP3    H262009   2.517   5.023   2.669  0.1903  1.2760 -1.0638
13532TIP3   OH262010   2.376   4.087   2.340  0.3750 -0.2034 -0.0485
13532TIP3    H162011   2.374   4.021   2.409  2.1102 -2.5358 -2.0311
13532TIP3    H262012   2.296   4.073   2.289 -0.1455  0.4836  0.5610
13533TIP3   OH262013   5.737   0.029   3.222 -0.2808  0.0930  0.0958
13533TIP3    H162014   5.699  -0.052   3.188  0.9619 -0.0515 -0.9993
13533TIP3    H262015   5.819   0.002   3.263 -0.0367  0.7540  0.0558
13534TIP3   OH262016   6.259   5.680   3.405  0.1916  0.5464 -0.4500
13534TIP3    H162017   6.350   5.655   3.388  0.5238  0.0976  1.7275
13534TIP3    H262018   6.265   5.756   3.463 -0.8160  0.2269  0.1032
13535TIP3   OH262019   4.174   3.108   6.331  0.3024 -0.7510 -0.1832
13535TIP3    H162020   4.092   3.091   6.285 -1.5837 -0.6938  2.8682
13535TIP3    H262021   4.159   3.191   6.376  2.7511  0.1563 -0.8904
13536TIP3   OH262022   0.214   0.297  14.694 -0.0525  0.4345 -0.4120
13536TIP3    H162023   0.132   0.273  14.737  0.4147  2.2509  1.6684
13536TIP3    H262024   0.198   0.385  14.660  0.5981  0.2260 -1.2821
13537TIP3   OH262025   5.964   6.483   3.887  0.3035 -0.0904 -0.1568
13537TIP3    H162026   6.048   6.528   3.879 -0.7775  2.1388  0.2152
13537TIP3    H262027   5.916   6.508   3.808 -0.4933 -0.2152  0.2789
13538TIP3   OH262028   3.517   3.801   6.385  0.4022  0.5556 -0.3267
13538TIP3    H162029   3.440   3.772   6.433  0.6041  0.8282  0.1639
13538TIP3    H262030   3.483   3.859   6.317  0.2349  1.2352  0.3280
13539TIP3   OH262031   3.462   4.618   1.160 -0.3498 -0.5092  0.2147
13539TIP3    H162032   3.420   4.703   1.166  0.3704 -0.2132  1.3675
13539TIP3    H262033   3.395   4.560   1.124 -0.6829  0.6402 -1.1243
13540TIP3   OH262034   4.765   3.824  15.945  0.5847 -0.6404  0.0558
13540TIP3    H162035   4.852   3.820  15.906  1.1039 -0.8680  1.2002
13540TIP3    H262036   4.709   3.860  15.876  1.5053 -0.8547 -0.8202
13541TIP3   OH262037   4.640   0.036  14.338  0.4296 -0.2615 -0.6353
13541TIP3    H162038   4.678   0.065  14.421 -0.8479 -2.1878  0.7013
13541TIP3    H262039   4.709   0.051  14.273  1.9608  0.0262  0.9946
13542TIP3   OH262040   5.709   1.328   3.795 -0.5720  0.0366 -0.3162
13542TIP3    H162041   5.660   1.274   3.857 -1.2770 -0.6926 -1.4797
13542TIP3    H262042   5.799   1.293   3.798 -0.6262 -0.0650  0.2023
13543TIP3   OH262043   0.378   2.761  16.887 -0.6765  0.3446 -0.1151
13543TIP3    H162044   0.313   2.819  16.924 -0.8818  1.2678 -1.8085
13543TIP3    H262045   0.462   2.801  16.910 -0.8197  1.5294 -1.5098
13544TIP3   OH262046   2.775   4.704  14.723  1.0185  0.4871 -0.0375
13544TIP3    H162047   2.820   4.622  14.707 -1.9714 -1.0480 -1.4032
13544TIP3    H262048   2.740   4.730  14.637 -0.0910  1.9260  0.7916
13545TIP3   OH262049   0.940   5.773   3.370 -0.2317  0.8016  0.5082
13545TIP3    H162050   0.866   5.784   3.430 -0.1641 -0.0676  0.7690
13545TIP3    H262051   0.905   5.792   3.283 -1.1844 -1.0937  0.4282
13546TIP3   OH262052   6.169   2.774   5.230 -0.0195 -0.5335  0.1065
13546TIP3    H162053   6.233   2.799   5.164  0.3429  0.2795  0.7590
13546TIP3    H262054   6.215   2.711   5.286  0.3091  0.2376  0.7236
13547TIP3   OH262055   3.500   0.456   5.442 -0.1998  0.5623  0.3088
13547TIP3    H162056   3.529   0.459   5.533 -0.6613  1.9376  0.4366
13547TIP3    H262057   3.579   0.473   5.390  0.3897 -1.7254  0.3257
13548TIP3   OH262058   0.913   5.648  17.249 -0.0280  0.3603  0.1183
13548TIP3    H162059   0.910   5.590  17.172 -0.4345  0.1742  0.2746
13548TIP3    H262060   0.976   5.606  17.307 -1.2808 -0.6455  0.7947
13549TIP3   OH262061   1.197   0.547  16.217 -0.1037  0.1591 -0.0132
13549TIP3    H162062   1.152   0.630  16.227  1.7028  1.4716 -1.8295
13549TIP3    H262063   1.225   0.523  16.306 -0.1985  1.7883  0.4845
13550TIP3   OH262064   4.791   3.232  12.582 -0.0133 -0.1808 -0.1527
13550TIP3    H162065   4.804   3.225  12.676  0.2650  2.6456  0.0795
13550TIP3    H262066   4.704   3.195  12.568 -0.7488  0.8433  1.4580
13551TIP3   OH262067   3.280   4.249   1.257  0.5961 -0.2360 -0.0368
13551TIP3    H162068   3.292   4.253   1.352  0.9260 -1.9051  0.0290
13551TIP3    H262069   3.271   4.340   1.230  2.2031  0.4023  1.3857
13552TIP3   OH262070   0.291   4.074   6.314 -0.3039 -0.2463  0.4393
13552TIP3    H162071   0.248   4.049   6.396  1.6767 -0.1337  1.5822
13552TIP3    H262072   0.262   4.164   6.298  0.7049  0.4263  2.0894
13553TIP3   OH262073   5.152   4.969   3.584 -0.3776 -0.0663 -0.4025
13553TIP3    H162074   5.231   4.917   3.569  0.7271  1.2372  0.6479
13553TIP3    H262075   5.093   4.943   3.513  1.4755 -0.1295 -2.0018
13554TIP3   OH262076   5.210   1.943   2.606  0.1133 -0.7197  0.2254
13554TIP3    H162077   5.190   2.011   2.541 -1.1877 -0.1899  1.1347
13554TIP3    H262078   5.298   1.914   2.584 -0.0660 -0.1348 -1.4082
13555TIP3   OH262079   1.312   5.724   3.413 -0.3655  0.0719 -0.1110
13555TIP3    H162080   1.236   5.757   3.363  0.4119 -0.6904 -1.8638
13555TIP3    H262081   1.348   5.802   3.455 -0.3658  0.9715 -1.7071
13556TIP3   OH262082   0.540   0.515   2.984 -0.2474 -0.0980 -0.6930
13556TIP3    H162083   0.627   0.520   3.026 -0.2313  0.5155 -0.7900
13556TIP3    H262084   0.557   0.477   2.898  0.1636  1.4430 -1.3298
13557TIP3   OH262085   2.706   3.164  12.978  0.4827 -0.2678 -0.2457
13557TIP3    H162086   2.685   3.257  12.976  1.9160  0.0902  0.2151
13557TIP3    H262087   2.624   3.120  12.957 -0.1303  1.1078 -0.8189
13558TIP3   OH262088   1.089   1.565  15.927 -0.1166  0.2061 -0.7293
13558TIP3    H162089   1.018   1.608  15.974 -1.2168  0.0469 -2.1703
13558TIP3    H262090   1.162   1.627  15.932 -0.4624  0.5483  0.4359
13559TIP3   OH262091   5.010   1.666   1.020 -0.1958 -0.4220 -0.4728
13559TIP3    H162092   4.943   1.734   1.015  1.1450  0.9257 -1.1249
13559TIP3    H262093   5.000   1.617   0.939  0.8844  1.1045 -1.5973
13560TIP3   OH262094   4.388   1.397   1.848  0.5493  0.6328 -0.2740
13560TIP3    H162095   4.483   1.403   1.859  0.6119 -2.0481  1.5913
13560TIP3    H262096   4.352   1.419   1.934 -0.4513  0.4464 -0.6357
13561TIP3   OH262097   2.212   2.124  13.798  0.4774 -0.4183 -1.0487
13561TIP3    H162098   2.208   2.044  13.851  3.0354 -0.2884 -0.5254
13561TIP3    H262099   2.157   2.186  13.844  2.1208 -0.5096  1.2063
13562TIP3   OH262100   1.148   4.088   5.432  0.4895  0.4813 -0.5096
13562TIP3    H162101   1.225   4.138   5.457  1.7716 -1.6293 -0.0218
13562TIP3    H262102   1.142   4.017   5.496  0.5402 -1.7442 -2.7881
13563TIP3   OH262103   3.630   4.372   0.221  0.2126 -0.3168 -0.1127
13563TIP3    H162104   3.661   4.434   0.287 -0.2978 -0.3287  0.1464
13563TIP3    H262105   3.545   4.407   0.194  0.2051 -0.5686 -0.4174
13564TIP3   OH262106   5.814   2.696   6.621  0.9033  0.4130  0.4763
13564TIP3    H162107   5.743   2.759   6.621  0.2755 -0.2842 -0.1965
13564TIP3    H262108   5.884   2.739   6.570 -0.0379  0.0164 -1.2274
13565TIP3   OH262109   6.587   4.204   5.438  0.1072 -0.5201 -0.4965
13565TIP3    H162110   6.569   4.180   5.347  0.9878 -2.1432 -0.2885
13565TIP3    H262111   6.667   4.156   5.460 -0.6072 -0.9306  1.4212
13566TIP3   OH262112   5.730   5.011  13.011  0.0913  0.6414 -0.0655
13566TIP3    H162113   5.767   5.053  13.089  0.8126  0.2924 -0.2161
13566TIP3    H262114   5.719   4.919  13.036 -1.2614  0.8475  0.1817
13567TIP3   OH262115   6.375   5.045  15.375 -0.4323  0.6450  0.3990
13567TIP3    H162116   6.432   5.040  15.299  0.6907  0.2080  1.2315
13567TIP3    H262117   6.394   5.130  15.414 -0.1614  0.3961  0.8172
13568TIP3   OH262118   6.330   4.277  16.847 -0.2815  0.2986 -0.1565
13568TIP3    H162119   6.285   4.274  16.932 -0.1622 -0.0709 -0.1057
13568TIP3    H262120   6.274   4.333  16.793 -0.9324 -0.3470 -0.1621
13569TIP3   OH262121   0.419   4.977   0.283  0.6066  0.3273  0.4855
13569TIP3    H162122   0.483   4.962   0.352  0.7684 -3.3196 -0.2457
13569TIP3    H262123   0.452   4.928   0.207 -2.2723 -0.5778 -0.3470
13570TIP3   OH262124   1.768   4.130   0.663  0.0833 -0.4930 -0.0267
13570TIP3    H162125   1.808   4.195   0.605  2.8835 -1.0295  1.1346
13570TIP3    H262126   1.709   4.080   0.606  0.0195  1.2291 -1.5633
13571TIP3   OH262127   0.494   1.487  14.788  0.1043  0.2986 -0.1641
13571TIP3    H162128   0.579   1.451  14.764 -0.0925 -0.2291 -0.0898
13571TIP3    H262129   0.431   1.439  14.733 -0.1989  0.1992  0.2615
13572TIP3   OH262130   6.569   2.938   0.941  0.7283  0.5019 -0.1748
13572TIP3    H162131   6.476   2.959   0.931  0.6926  0.9879  1.0159
13572TIP3    H262132   6.612   2.987   0.871  0.0376 -0.2658 -1.1650
13573TIP3   OH262133   3.213   1.683  12.399 -0.0876 -0.1677  0.0241
13573TIP3    H162134   3.187   1.629  12.473  1.1636  0.5264  1.0003
13573TIP3    H262135   3.245   1.764  12.438 -0.4896  0.6943 -1.3373
13574TIP3   OH262136   1.769   1.834   3.497  0.5093 -0.0202 -0.5231
13574TIP3    H162137   1.823   1.785   3.559  1.6573  0.2882 -1.2401
13574TIP3    H262138   1.734   1.768   3.437  1.0311 -0.1044 -0.7381
13575TIP3   OH262139   0.706   2.912   4.607 -0.2533  0.8679  0.3332
13575TIP3    H162140   0.726   3.005   4.599 -1.1815  1.1130  0.8447
13575TIP3    H262141   0.698   2.896   4.701 -2.5546  0.8168  0.1716
13576TIP3   OH262142   1.843   3.014   4.062 -0.2275  0.0654 -1.2694
13576TIP3    H162143   1.867   3.089   4.007  0.5765 -0.6403 -1.9186
13576TIP3    H262144   1.766   2.976   4.019 -0.0222 -0.0698 -1.5237
13577TIP3   OH262145   2.725   5.889   3.342 -0.3825 -0.1412  0.0958
13577TIP3    H162146   2.727   5.797   3.370  1.4873  0.1745  1.1462
13577TIP3    H262147   2.792   5.932   3.395 -1.6517  1.9953  0.0803
13578TIP3   OH262148   3.134   4.707  15.636  1.1436 -0.4718  0.3258
13578TIP3    H162149   3.139   4.783  15.694  0.4327 -0.8223  0.8616
13578TIP3    H262150   3.225   4.688  15.614  1.2863  1.4275 -1.0218
13579TIP3   OH262151   4.899   2.368  12.292  0.3686 -0.1686  0.1743
13579TIP3    H162152   4.916   2.354  12.385  2.6558 -2.1690 -0.4294
13579TIP3    H262153   4.855   2.289  12.263  1.8336 -0.6550 -0.8572
13580TIP3   OH262154   5.519   2.550  12.103  0.4007 -0.2425 -0.0542
13580TIP3    H162155   5.587   2.585  12.160 -0.5552  1.1100  0.2891
13580TIP3    H262156   5.558   2.554  12.015  1.3069 -0.9189  0.2912
13581TIP3   OH262157   6.080   2.854   4.907  0.2514  0.1667 -0.4590
13581TIP3    H162158   6.153   2.811   4.952 -0.7272 -0.3423  0.6683
13581TIP3    H262159   6.007   2.793   4.914 -0.9049  1.5631  0.3462
13582TIP3   OH262160   1.078   4.395   1.132  0.4678  0.1641 -0.1190
13582TIP3    H162161   1.010   4.397   1.065 -0.1502 -0.3942  0.4696
13582TIP3    H262162   1.032   4.413   1.214  1.3844  2.0238  0.0617
13583TIP3   OH262163   5.698   0.374   4.566 -0.0415 -0.1862  0.1800
13583TIP3    H162164   5.608   0.353   4.541 -0.0243  0.7029 -0.6956
13583TIP3    H262165   5.735   0.416   4.489  1.4408 -1.3902  0.1834
13584TIP3   OH262166   0.368   4.534  17.301  0.4510  0.3686  0.9383
13584TIP3    H162167   0.433   4.499  17.362  0.2186 -0.4956  0.6962
13584TIP3    H262168   0.378   4.481  17.222  1.6739  2.3326 -0.2899
13585TIP3   OH262169   0.696   1.901  13.426 -0.0053  0.0186 -0.5030
13585TIP3    H162170   0.764   1.968  13.411 -0.2161  0.6405  1.0997
13585TIP3    H262171   0.720   1.862  13.510 -0.8745 -0.7121 -0.5886
13586TIP3   OH262172   6.282   0.693   2.994 -0.4774 -0.5326 -0.2496
13586TIP3    H162173   6.376   0.682   3.000 -0.4496 -0.0069  0.5335
13586TIP3    H262174   6.259   0.667   2.905  0.7402  1.7045 -1.2935
13587TIP3   OH262175   6.073   6.103   3.094  0.3969 -0.1302  0.3030
13587TIP3    H162176   6.047   6.104   3.186 -0.4001 -0.8325  0.0938
13587TIP3    H262177   6.011   6.162   3.051  0.7696  0.1972  0.2063
13588TIP3   OH262178   5.499   0.853  14.622 -0.3306 -0.4539 -0.1272
13588TIP3    H162179   5.502   0.889  14.533 -2.0258  0.4712  0.1529
13588TIP3    H262180   5.589   0.823  14.638  0.1878  0.0104 -1.8700
13589TIP3   OH262181   2.621   5.635   0.818 -0.3380  0.0347 -0.6738
13589TIP3    H162182   2.575   5.604   0.740 -1.7230  1.0973 -0.3082
13589TIP3    H262183   2.576   5.716   0.843  0.8518  0.3705  0.5285
13590TIP3   OH262184   2.532   0.079  13.353  0.3309  0.1794 -0.4154
13590TIP3    H162185   2.588   0.149  13.386  1.3602  0.0018 -1.7114
13590TIP3    H262186   2.454   0.124  13.320  1.0515  0.7680 -1.3839
13591TIP3   OH262187   5.835   3.203   4.436 -0.0833 -0.3377 -0.2756
13591TIP3    H162188   5.790   3.150   4.370  0.9674 -0.8055 -0.6585
13591TIP3    H262189   5.910   3.239   4.389  0.0564  0.2389  0.3861
13592TIP3   OH262190   1.815   4.956  13.136 -0.5288  0.0397 -0.2339
13592TIP3    H162191   1.765   4.998  13.206  1.1738  1.6341  0.0936
13592TIP3    H262192   1.790   4.863  13.142 -1.2669  0.3081  1.7682
13593TIP3   OH262193   2.948   3.167   3.674  0.4921  0.2486 -0.0355
13593TIP3    H162194   2.892   3.095   3.644 -1.8112  1.2897  1.4194
13593TIP3    H262195   2.991   3.198   3.596 -0.9158 -0.7007 -1.2590
13594TIP3   OH262196   1.365   5.277   4.239 -0.6300 -0.0523  0.3005
13594TIP3    H162197   1.307   5.336   4.190 -0.0659  0.7588  0.6038
13594TIP3    H262198   1.423   5.241   4.172 -0.5116  0.2913  0.2136
13595TIP3   OH262199   2.355   3.587  11.380  0.0226 -0.3704 -0.1959
13595TIP3    H162200   2.408   3.510  11.399  1.0906  0.5301  0.6489
13595TIP3    H262201   2.265   3.558  11.392  0.4574 -1.1398  1.5253
13596TIP3   OH262202   0.518   4.207  15.922 -0.2696  0.0032  0.2855
13596TIP3    H162203   0.426   4.204  15.894 -0.4896  1.8956  0.6997
13596TIP3    H262204   0.536   4.118  15.954 -1.8167 -0.5103 -0.1741
13597TIP3   OH262205   4.782   6.232   4.930 -0.4025 -0.0184  0.2487
13597TIP3    H162206   4.850   6.270   4.874  0.1736 -0.7820  0.4325
13597TIP3    H262207   4.702   6.280   4.905  0.0547  0.3919 -0.4641
13598TIP3   OH262208   4.379   0.080  16.866  0.0128 -0.0899  0.5033
13598TIP3    H162209   4.466   0.093  16.902 -0.7667 -0.0929  2.5521
13598TIP3    H262210   4.393   0.064  16.773  2.0140  1.9432  0.3810
13599TIP3   OH262211   4.004   0.093  16.159 -0.3162  0.0691  0.0699
13599TIP3    H162212   3.997   0.089  16.063  0.9094 -1.1701  0.0071
13599TIP3    H262213   3.963   0.013  16.190 -0.4978  0.3554  0.5881
13600TIP3   OH262214   4.469   5.987   2.223 -0.0257 -0.4475  0.7720
13600TIP3    H162215   4.438   6.036   2.147  1.2312 -1.0023 -0.1523
13600TIP3    H262216   4.391   5.950   2.262 -0.6361 -0.8945 -0.7977
13601TIP3   OH262217   3.427   1.556   2.528  0.1659  0.2488  0.1569
13601TIP3    H162218   3.332   1.568   2.523  0.1180  0.3465  1.1535
13601TIP3    H262219   3.445   1.480   2.473 -0.4610  0.3823 -0.2360
13602TIP3   OH262220   3.204   2.543  17.079  0.9444 -0.0284  0.1521
13602TIP3    H162221   3.139   2.500  17.023  1.4526 -0.3850 -0.1709
13602TIP3    H262222   3.175   2.523  17.168  0.1088  0.5742  0.0234
13603TIP3   OH262223   1.629   2.520  11.653 -0.1517  0.2806  0.1979
13603TIP3    H162224   1.598   2.430  11.657 -1.0579  0.4839 -1.4064
13603TIP3    H262225   1.724   2.513  11.643 -0.2094 -0.4843  0.1558
13604TIP3   OH262226   5.916   3.340  14.584  0.5388 -0.1781  0.0218
13604TIP3    H162227   5.865   3.313  14.507  1.4110 -2.7456  0.2526
13604TIP3    H262228   5.861   3.316  14.659  0.2150  1.2024  0.2541
13605TIP3   OH262229   1.130   5.752   4.358 -0.6358 -0.1873 -0.0022
13605TIP3    H162230   1.066   5.687   4.388  0.3827 -1.3508 -0.2648
13605TIP3    H262231   1.077   5.822   4.320 -1.8148 -0.2814  1.3903
13606TIP3   OH262232   5.337   2.691   4.811  0.5409 -0.6533 -0.5562
13606TIP3    H162233   5.275   2.621   4.832 -0.3423  0.6755  1.7337
13606TIP3    H262234   5.378   2.711   4.895  0.3945  1.8611 -1.0160
13607TIP3   OH262235   5.159   0.076   4.780 -0.0977  0.2120  0.4738
13607TIP3    H162236   5.244   0.052   4.819 -0.4070  1.6012  2.1175
13607TIP3    H262237   5.096   0.018   4.823 -0.4178  1.6364  2.0320
13608TIP3   OH262238   0.971   4.883   1.925 -0.3097 -0.4767 -0.0029
13608TIP3    H162239   1.030   4.850   1.993 -1.8195 -0.5571  1.3315
13608TIP3    H262240   1.002   4.973   1.908 -0.0192 -0.3894  0.9276
13609TIP3   OH262241   2.380   6.359  17.273  0.2262  0.0713  0.1455
13609TIP3    H162242   2.391   6.451  17.250  2.0531 -0.1594 -0.0750
13609TIP3    H262243   2.411   6.311  17.197  0.5458 -0.7192  0.7577
13610TIP3   OH262244   2.237   1.796   1.422  0.0432  0.1467 -0.0018
13610TIP3    H162245   2.209   1.735   1.353  0.9713 -1.0639  0.6369
13610TIP3    H262246   2.321   1.830   1.390  0.5603 -0.5490  0.5748
13611TIP3   OH262247   4.998   0.007  16.967 -0.0366 -0.1619  0.4058
13611TIP3    H162248   4.938  -0.018  17.038 -0.7525 -0.0455 -0.1425
13611TIP3    H262249   4.941   0.044  16.900  0.6089 -0.4226 -0.3010
13612TIP3   OH262250   4.734   6.757  15.437 -0.3226  0.5071  0.9044
13612TIP3    H162251   4.712   6.836  15.387 -2.8218  0.7942  2.2933
13612TIP3    H262252   4.818   6.778  15.478  2.6134 -0.2315 -3.9397
13613TIP3   OH262253   3.065   2.067  12.971 -0.7247 -0.2982  0.4318
13613TIP3    H162254   3.050   1.974  12.987 -0.1415 -0.2633  1.2539
13613TIP3    H262255   3.111   2.070  12.887 -0.2352 -0.7984  0.6756
13614TIP3   OH262256   6.706   1.670   4.496 -0.1882 -0.3279  0.0054
13614TIP3    H162257   6.779   1.678   4.558  0.5840  0.6523 -1.0030
13614TIP3    H262258   6.742   1.622   4.422 -0.1966  1.1920 -1.0181
13615TIP3   OH262259   5.065   2.036  14.379  0.1633 -0.5162  0.1430
13615TIP3    H162260   5.098   1.993  14.458  1.0059 -0.3070 -0.0765
13615TIP3    H262261   5.025   2.117  14.411 -1.0949 -1.2691  0.5201
13616TIP3   OH262262   0.479   3.286  11.649  0.5791 -0.8087  0.3512
13616TIP3    H162263   0.571   3.290  11.622  0.4359 -1.5608 -0.2841
13616TIP3    H262264   0.459   3.193  11.653  0.4466 -0.7375  2.6279
13617TIP3   OH262265   3.098   5.116   4.901  0.4012  0.5879 -0.2236
13617TIP3    H162266   3.158   5.190   4.910  0.6186  1.0123 -3.6292
13617TIP3    H262267   3.155   5.042   4.878 -0.1811  0.7696 -2.5086
13618TIP3   OH262268   4.556   5.931   4.574  0.5727  0.7621 -0.0225
13618TIP3    H162269   4.463   5.938   4.552  0.7831  0.5307 -1.0329
13618TIP3    H262270   4.588   6.021   4.575  0.3574  0.8372  0.2613
13619TIP3   OH262271   6.775   2.982   2.342 -0.0917 -0.1437 -0.0388
13619TIP3    H162272   6.834   3.018   2.276 -0.7225  1.3239  0.1489
13619TIP3    H262273   6.722   3.057   2.369 -0.2762 -0.8507  1.6726
13620TIP3   OH262274   0.755   6.451  13.033  0.2111 -0.2537  0.1717
13620TIP3    H162275   0.808   6.392  12.980 -0.2774 -1.2538  0.7631
13620TIP3    H262276   0.691   6.394  13.075 -1.1637  0.8933 -0.3077
13621TIP3   OH262277   5.499   4.794   2.039 -0.2506  0.5708  0.1883
13621TIP3    H162278   5.486   4.704   2.067 -0.3532  0.3290 -0.6138
13621TIP3    H262279   5.588   4.797   2.004 -0.0609  0.9085  0.6968
13622TIP3   OH262280   1.132   2.488  13.878 -0.5335  0.0348 -0.0974
13622TIP3    H162281   1.197   2.483  13.948 -1.5391  2.1352  1.0934
13622TIP3    H262282   1.048   2.498  13.924 -1.3510  0.4442 -1.5970
13623TIP3   OH262283   3.739   1.684   4.528 -0.1552 -0.3399 -0.4631
13623TIP3    H162284   3.804   1.617   4.546 -1.9105 -1.3592  3.0740
13623TIP3    H262285   3.655   1.638   4.533 -1.3640  1.8241  0.6398
13624TIP3   OH262286   4.212   1.039  13.336 -0.2414 -0.0379 -0.4496
13624TIP3    H162287   4.174   0.966  13.289  0.6511  1.2615 -3.4087
13624TIP3    H262288   4.137   1.088  13.370 -0.9006 -1.2055 -0.1741
13625TIP3   OH262289   0.576   5.003   2.310  0.4356  0.4061 -0.1181
13625TIP3    H162290   0.671   5.014   2.306  0.7125 -1.7703 -1.3229
13625TIP3    H262291   0.564   4.920   2.357 -0.9012  0.8436  0.3443
13626TIP3   OH262292   6.776   6.075   4.031 -0.2863  0.5365 -0.1193
13626TIP3    H162293   6.799   6.007   4.095  0.0799 -0.4683 -1.2870
13626TIP3    H262294   6.686   6.056   4.007 -1.0914  2.0659  1.4658
13627TIP3   OH262295   6.285   4.324   4.909  0.1027  0.4521  0.0462
13627TIP3    H162296   6.280   4.409   4.866  2.8345  0.3108 -0.7126
13627TIP3    H262297   6.301   4.262   4.838  1.4462 -0.2185  0.8827
13628TIP3   OH262298   3.536   4.707   0.726  0.1230 -0.4953  0.2705
13628TIP3    H162299   3.541   4.659   0.644 -1.1813  0.4590 -0.4019
13628TIP3    H262300   3.452   4.752   0.723  0.0456 -0.4174  2.1259
13629TIP3   OH262301   3.351   4.045  15.961  0.0108  0.1775  0.0088
13629TIP3    H162302   3.315   4.048  16.049  0.3064 -0.8866  0.1851
13629TIP3    H262303   3.429   3.989  15.968  0.9693  1.3809 -0.6216
13630TIP3   OH262304   5.947   4.935   4.073  0.4011 -0.5159  0.6946
13630TIP3    H162305   6.024   4.987   4.094 -0.2440  0.1047  1.6374
13630TIP3    H262306   5.951   4.921   3.979 -0.5713  3.2472 -0.0645
13631TIP3   OH262307   6.225   1.813   2.163  0.3209  0.1184 -0.4310
13631TIP3    H162308   6.150   1.833   2.107 -1.5296  0.5500  2.0702
13631TIP3    H262309   6.295   1.871   2.131 -1.1512  1.5236 -1.2348
13632TIP3   OH262310   3.725   4.684   0.073  0.5375 -0.2565  0.0999
13632TIP3    H162311   3.787   4.737   0.124  1.4078  1.0829 -2.1751
13632TIP3    H262312   3.781   4.629   0.018 -0.2767  0.2649 -1.3032
13633TIP3   OH262313   2.378   5.259  16.848  0.6436 -0.1529 -0.4572
13633TIP3    H162314   2.330   5.200  16.906  0.7034  1.2550  1.0899
13633TIP3    H262315   2.312   5.293  16.788  0.4778 -1.1848 -0.8891
13634TIP3   OH262316   1.256   1.006   5.640  0.3490 -0.2833  0.3003
13634TIP3    H162317   1.323   1.021   5.707  0.4026 -1.8465  0.6310
13634TIP3    H262318   1.253   0.911   5.630 -1.1429 -0.1862 -0.4128
13635TIP3   OH262319   1.120   2.576   4.583  0.4477  0.3581  0.1679
13635TIP3    H162320   1.121   2.511   4.653  0.4530  1.3978  1.1693
13635TIP3    H262321   1.184   2.544   4.519  1.7820  0.2913  1.5032
13636TIP3   OH262322   3.145   5.401  13.577  0.5468 -0.4883 -0.0407
13636TIP3    H162323   3.222   5.349  13.601  0.9360 -0.2866 -0.8241
13636TIP3    H262324   3.072   5.338  13.582  0.6443 -0.5062  1.3899
13637TIP3   OH262325   2.799   6.714  12.929  0.0193 -0.1955  0.1662
13637TIP3    H162326   2.838   6.750  13.008 -1.3849  1.6928  0.0532
13637TIP3    H262327   2.739   6.646  12.960  0.2072 -0.1427  0.6493
13638TIP3   OH262328   3.767   0.432   0.420  0.6517  0.1140 -0.2385
13638TIP3    H162329   3.850   0.474   0.398  1.0681 -0.9202 -0.7555
13638TIP3    H262330   3.772   0.347   0.376 -0.8669  0.2017 -0.6068
13639TIP3   OH262331   3.191   6.510  11.539 -0.5091 -0.0204  0.2131
13639TIP3    H162332   3.101   6.534  11.564 -0.2264  0.2080  1.0441
13639TIP3    H262333   3.195   6.528  11.445 -1.4891 -0.5213  0.0618
13640TIP3   OH262334   5.789   5.955  11.552  0.2450  0.0757  0.2751
13640TIP3    H162335   5.823   6.036  11.513  0.3862 -0.3553 -0.5199
13640TIP3    H262336   5.694   5.962  11.544  0.2895 -0.2210 -0.5985
13641TIP3   OH262337   5.078   1.918  16.849 -0.2082  0.3017 -0.0129
13641TIP3    H162338   5.067   2.009  16.876  0.1814  0.5092 -0.5506
13641TIP3    H262339   4.992   1.878  16.866  0.0361  0.3869  1.6410
13642TIP3   OH262340   3.438   6.213   3.406 -0.1752  0.2407 -0.0681
13642TIP3    H162341   3.533   6.209   3.421 -0.1450 -1.3351 -0.4624
13642TIP3    H262342   3.419   6.307   3.400  1.4062  0.5889 -0.2828
13643TIP3   OH262343   4.853   4.726   3.584  0.8345 -0.1619  0.1288
13643TIP3    H162344   4.787   4.782   3.625  1.0731  2.6217 -2.8466
13643TIP3    H262345   4.925   4.724   3.646 -0.1429  0.8857  1.3587
13644TIP3   OH262346   3.347   3.765   1.876 -0.3100 -0.2451  0.0969
13644TIP3    H162347   3.399   3.717   1.812  1.2196 -2.2480  2.6029
13644TIP3    H262348   3.390   3.851   1.882  1.1176 -0.9400  0.2330
13645TIP3   OH262349   1.334   3.308   2.233  0.4657 -0.2895 -0.4021
13645TIP3    H162350   1.390   3.275   2.303  0.7395  2.9864  1.1095
13645TIP3    H262351   1.386   3.298   2.153  0.4988 -3.2733 -0.0994
13646TIP3   OH262352   1.307   3.925   1.825  0.2952 -0.8492 -0.0645
13646TIP3    H162353   1.315   3.987   1.898 -0.6619  2.0648 -2.2581
13646TIP3    H262354   1.397   3.898   1.807  1.3292  2.7340 -1.1730
13647TIP3   OH262355   5.619   6.029   3.234 -0.0548 -0.2541  0.1478
13647TIP3    H162356   5.571   6.013   3.153  0.3825 -1.5871  0.1165
13647TIP3    H262357   5.700   5.978   3.224  0.4881  0.4128  0.9846
13648TIP3   OH262358   2.512   1.255  16.735  0.9050 -0.2985  0.8223
13648TIP3    H162359   2.436   1.305  16.764 -0.3334 -1.2222 -0.6432
13648TIP3    H262360   2.578   1.321  16.715 -0.6465  0.8062 -1.0083
13649TIP3   OH262361   5.491   6.246  12.569 -0.0620  0.2348  0.5994
13649TIP3    H162362   5.444   6.189  12.509 -0.8557  0.8001  0.6617
13649TIP3    H262363   5.459   6.223  12.655  0.6296 -0.1602  0.7547
13650TIP3   OH262364   1.732   1.108   0.944 -0.6214 -0.1391  0.4244
13650TIP3    H162365   1.810   1.156   0.917 -0.5400 -0.7284 -0.4215
13650TIP3    H262366   1.682   1.097   0.863 -1.1050 -0.6321  0.7875
13651TIP3   OH262367   3.391   6.602  11.725  0.1665 -0.1860  0.3902
13651TIP3    H162368   3.328   6.602  11.653  3.1014  1.0523 -2.4120
13651TIP3    H262369   3.442   6.521  11.713  1.7222  0.8065  0.0091
13652TIP3   OH262370   5.474   1.467   6.314 -0.3951 -0.4657 -0.3381
13652TIP3    H162371   5.426   1.456   6.232  1.6865  0.2611 -1.7047
13652TIP3    H262372   5.521   1.385   6.327 -0.6112 -0.5303  0.0753
13653TIP3   OH262373   1.713   1.764  11.813 -0.5243 -0.2136 -0.6068
13653TIP3    H162374   1.780   1.832  11.812 -1.9924  1.3207  0.1707
13653TIP3    H262375   1.722   1.719  11.729  1.6685 -0.2972 -0.3829
13654TIP3   OH262376   2.495   2.057  16.960 -0.5757  0.5325 -0.1330
13654TIP3    H162377   2.510   2.134  17.015 -1.1047 -0.3386  1.2730
13654TIP3    H262378   2.473   2.094  16.874 -2.0351  2.0208  0.7945
13655TIP3   OH262379   2.213   0.892   3.777  0.3707 -0.2832  0.0093
13655TIP3    H162380   2.254   0.846   3.851 -0.5113  0.6730  1.1267
13655TIP3    H262381   2.119   0.884   3.793  0.0534  4.1642  1.8701
13656TIP3   OH262382   3.953   4.079   4.932  0.0749 -0.4583  0.3084
13656TIP3    H162383   3.904   3.996   4.929 -1.5582  0.4226  0.9577
13656TIP3    H262384   4.017   4.066   5.002 -0.3959 -1.0649  0.6415
13657TIP3   OH262385   2.935   5.822  15.159  0.6664  0.2813  0.0742
13657TIP3    H162386   2.874   5.749  15.169  0.0900  0.6677 -0.5512
13657TIP3    H262387   2.923   5.851  15.068 -0.1428  2.0633  0.6990
13658TIP3   OH262388   3.827   0.283  13.060  0.5211 -0.2253 -0.1026
13658TIP3    H162389   3.876   0.218  13.110  1.1391 -0.5534 -1.1052
13658TIP3    H262390   3.739   0.245  13.051  0.4533 -0.2356  0.5819
13659TIP3   OH262391   1.576   6.236  13.751  0.4745 -0.2000  0.3500
13659TIP3    H162392   1.636   6.297  13.708  1.4787 -0.2253  1.6480
13659TIP3    H262393   1.493   6.284  13.757  0.9304  0.6063  0.3252
13660TIP3   OH262394   5.449   2.604   1.764  0.0709  0.4992  0.6592
13660TIP3    H162395   5.362   2.639   1.783  0.4638  1.9335 -0.0880
13660TIP3    H262396   5.500   2.679   1.734  0.9302 -0.7012 -1.0794
13661TIP3   OH262397   2.643   3.602   0.872  0.6480 -0.5702 -0.3627
13661TIP3    H162398   2.732   3.637   0.867  0.9223 -1.1364  0.3490
13661TIP3    H262399   2.636   3.545   0.796  0.5538  0.2020 -0.9520
13662TIP3   OH262400   0.323   0.519  12.661  0.4588 -0.1000 -0.0142
13662TIP3    H162401   0.296   0.562  12.580  1.3655  1.2592  0.3669
13662TIP3    H262402   0.381   0.449  12.633  0.5031  0.1490 -0.5529
13663TIP3   OH262403   4.862   6.554  14.215 -0.5284  0.5389 -0.2375
13663TIP3    H162404   4.797   6.546  14.285  0.8467 -1.9244  0.8722
13663TIP3    H262405   4.925   6.619  14.248 -1.3181  1.4324 -0.4427
13664TIP3   OH262406   6.688   3.098   4.068  0.6682  0.8176  0.2386
13664TIP3    H162407   6.683   3.122   3.975  0.7544 -2.0901 -0.6240
13664TIP3    H262408   6.600   3.067   4.090  1.2985 -1.1424  0.2359
13665TIP3   OH262409   5.729   4.437   5.541  0.0268 -0.6562 -0.4087
13665TIP3    H162410   5.666   4.462   5.609 -1.4376 -2.6035 -0.9653
13665TIP3    H262411   5.747   4.519   5.494 -1.2272  0.1658  0.4766
13666TIP3   OH262412   2.523   5.019   5.171  0.3165 -0.2514 -0.1487
13666TIP3    H162413   2.609   4.979   5.160  0.5358  0.7809 -3.2066
13666TIP3    H262414   2.462   4.953   5.139  0.4235  0.5225 -2.1348
13667TIP3   OH262415   5.924   5.471  15.931 -0.0625  0.2155  0.4837
13667TIP3    H162416   5.991   5.417  15.889  0.9193  0.6361  1.4703
13667TIP3    H262417   5.841   5.429  15.907  0.5938 -0.8788  0.0494
13668TIP3   OH262418   4.442   3.972   1.104 -0.7841 -0.1876  0.3186
13668TIP3    H162419   4.459   3.927   1.187  1.5088 -0.6364 -0.3096
13668TIP3    H262420   4.453   4.065   1.124 -2.8714 -0.0599  1.0446
13669TIP3   OH262421   6.426   1.047  16.514 -0.3142 -0.6134  0.1475
13669TIP3    H162422   6.423   0.970  16.458 -1.9822  0.2659 -1.0491
13669TIP3    H262423   6.450   1.012  16.601  1.4888 -2.0932 -0.8689
13670TIP3   OH262424   1.567   5.189  12.055 -0.1079  0.2640  0.4127
13670TIP3    H162425   1.607   5.220  11.974  0.9881  2.6454  1.7300
13670TIP3    H262426   1.512   5.262  12.083 -0.3524 -0.4473  1.8763
13671TIP3   OH262427   6.490   4.071  15.768  0.2006 -0.4814  0.2731
13671TIP3    H162428   6.490   4.150  15.714 -1.9012 -0.5097  0.1745
13671TIP3    H262429   6.399   4.058  15.792  0.9339 -0.9194  3.2054
13672TIP3   OH262430   2.372   3.795   1.455 -0.3269 -0.4112 -0.0721
13672TIP3    H162431   2.332   3.826   1.537 -0.8815  0.3904 -0.6396
13672TIP3    H262432   2.423   3.870   1.423  1.3709 -1.2908  0.4433
13673TIP3   OH262433   4.815   5.262   4.107 -0.5208 -0.0630 -0.2897
13673TIP3    H162434   4.893   5.220   4.144 -0.6817 -1.5671 -1.6064
13673TIP3    H262435   4.741   5.218   4.149 -0.7234  1.1314  0.7007
13674TIP3   OH262436   4.510   0.813  15.663 -0.0975  0.1307 -0.2261
13674TIP3    H162437   4.488   0.721  15.655  1.4621 -0.2783 -0.0895
13674TIP3    H262438   4.460   0.843  15.739 -0.1590 -0.7488  0.0917
13675TIP3   OH262439   5.329   3.176   5.614  0.4371  0.5893 -0.5872
13675TIP3    H162440   5.419   3.188   5.585  0.8390 -0.5590  0.0935
13675TIP3    H262441   5.322   3.226   5.695  1.5927 -2.0576  1.3180
13676TIP3   OH262442   1.205   1.078  14.285 -0.3754  0.3852 -0.2274
13676TIP3    H162443   1.212   1.025  14.364 -0.8945  2.6602  1.4520
13676TIP3    H262444   1.113   1.105  14.282 -0.3387  0.4256 -1.5491
13677TIP3   OH262445   2.734   2.562  16.046  0.1852 -0.3171 -0.1463
13677TIP3    H162446   2.729   2.515  15.962 -1.8179 -0.9402  0.2677
13677TIP3    H262447   2.759   2.495  16.109 -0.2968 -0.2992  0.0647
13678TIP3   OH262448   4.025   0.798   1.630  0.4154 -0.1484 -0.0171
13678TIP3    H162449   4.044   0.881   1.585 -1.3570  1.8248  2.5979
13678TIP3    H262450   4.107   0.775   1.673  1.0591 -0.0357 -1.1396
13679TIP3   OH262451   4.159   1.376  12.786  0.3886 -0.2654  0.3557
13679TIP3    H162452   4.234   1.394  12.843 -0.2865  1.4867  0.7852
13679TIP3    H262453   4.122   1.295  12.820  1.4491 -0.5703  0.8261
13680TIP3   OH262454   4.668   1.744  12.611 -0.3074 -0.5563 -0.1523
13680TIP3    H162455   4.598   1.686  12.642  0.0424 -0.3657  1.0391
13680TIP3    H262456   4.713   1.694  12.543 -0.5764 -1.3193  0.2269
13681TIP3   OH262457   1.195   4.081   0.283  0.3452  0.4743 -0.0119
13681TIP3    H162458   1.229   4.139   0.214 -0.1586  1.0719  0.2270
13681TIP3    H262459   1.267   4.072   0.345  0.7431  0.0747 -0.5295
13682TIP3   OH262460   3.433   3.007   3.733 -0.2585  0.4710 -0.0576
13682TIP3    H162461   3.374   3.080   3.751 -2.1615 -1.2169  0.9880
13682TIP3    H262462   3.379   2.944   3.684  0.8066 -0.9334  0.5130
13683TIP3   OH262463   5.593   5.211   5.863  0.0519 -0.3179 -0.1649
13683TIP3    H162464   5.565   5.227   5.773 -0.7596  0.0728  0.1377
13683TIP3    H262465   5.689   5.215   5.860  0.0067  0.6045 -0.8531
13684TIP3   OH262466   5.921   0.343  15.927  0.0831 -0.3319 -0.1705
13684TIP3    H162467   5.909   0.325  15.834 -0.1289  1.9467 -0.6421
13684TIP3    H262468   6.012   0.320  15.944  0.3216 -0.1436 -1.1104
13685TIP3   OH262469   4.049   3.650  14.883 -1.0475 -0.4560 -0.0213
13685TIP3    H162470   4.065   3.559  14.858  0.5532 -0.3912  0.6300
13685TIP3    H262471   3.971   3.646  14.938 -0.5891 -1.5515  0.5807
13686TIP3   OH262472   3.948   6.614  16.279 -0.6285  0.4350 -0.4225
13686TIP3    H162473   4.030   6.613  16.330 -1.4133  3.1396  1.0957
13686TIP3    H262474   3.896   6.543  16.315 -0.6785  1.5432  1.8700
13687TIP3   OH262475   3.232   2.249   3.920 -0.0960  0.0657  0.0140
13687TIP3    H162476   3.252   2.340   3.944  0.6890 -0.1223  0.1251
13687TIP3    H262477   3.249   2.245   3.826 -3.4093  0.8644 -0.7174
13688TIP3   OH262478   2.625   2.738  15.371 -0.2524  0.3725  0.1822
13688TIP3    H162479   2.624   2.814  15.429 -0.4998 -0.3266  1.1147
13688TIP3    H262480   2.716   2.733  15.339 -0.2604  1.1062  0.0371
13689TIP3   OH262481   3.272   4.928  12.036 -0.0377  0.0022 -0.0416
13689TIP3    H162482   3.254   5.020  12.017  1.4075  0.4357  0.5626
13689TIP3    H262483   3.227   4.912  12.119  0.4367  0.4381  0.3104
13690TIP3   OH262484   5.471   6.247  14.953  0.1282 -0.0774 -1.1334
13690TIP3    H162485   5.424   6.189  15.013  0.5636  0.1316 -0.5875
13690TIP3    H262486   5.461   6.205  14.867 -1.7992  0.4066 -1.1988
13691TIP3   OH262487   2.564   5.488  16.226  0.0807 -1.0549 -0.7693
13691TIP3    H162488   2.622   5.550  16.269 -2.0614  1.0458 -0.6680
13691TIP3    H262489   2.575   5.407  16.275  2.0325 -0.4258 -0.0675
13692TIP3   OH262490   1.903   5.644  12.878  0.2220  0.2207 -0.4878
13692TIP3    H162491   1.931   5.720  12.827 -2.2051  0.7253 -1.2209
13692TIP3    H262492   1.950   5.570  12.839  0.5992  0.9978 -1.5683
13693TIP3   OH262493   0.867   0.630   0.532  0.0378  0.0824  0.5285
13693TIP3    H162494   0.845   0.555   0.588 -0.7344 -0.0277  0.0871
13693TIP3    H262495   0.790   0.643   0.477  0.1257  1.2547  0.6440
13694TIP3   OH262496   1.931   0.007   4.867 -0.9367  0.1090  0.0787
13694TIP3    H162497   1.866  -0.051   4.827 -1.6256  0.1625  1.0689
13694TIP3    H262498   1.970  -0.046   4.937 -1.1052  0.6139  0.5647
13695TIP3   OH262499   5.487   1.533   4.445  0.2449  0.0077 -0.7322
13695TIP3    H162500   5.398   1.537   4.478  0.3828  0.1489 -0.3692
13695TIP3    H262501   5.518   1.623   4.448  1.6368 -0.4202  2.6481
13696TIP3   OH262502   0.035   1.594   2.932  0.0883  0.1162 -0.1622
13696TIP3    H162503  -0.060   1.594   2.941  0.0645  0.3670 -0.4079
13696TIP3    H262504   0.060   1.686   2.936  0.3250  0.0512 -0.0822
13697TIP3   OH262505   6.346   4.583   4.459  0.0043  0.0435 -0.7150
13697TIP3    H162506   6.315   4.618   4.375  0.3820  0.1076 -0.8299
13697TIP3    H262507   6.441   4.596   4.457  0.0821 -0.4686 -0.5131
13698TIP3   OH262508   4.380   6.024  14.051 -0.3497 -0.3566  0.8062
13698TIP3    H162509   4.334   5.949  14.014 -0.2174  0.8241 -1.9990
13698TIP3    H262510   4.461   6.030  14.000 -1.4778  3.0940 -0.9164
13699TIP3   OH262511   5.695   2.593   1.918  0.0575  0.3462  0.1850
13699TIP3    H162512   5.611   2.599   1.871 -0.0822  0.5066  0.4533
13699TIP3    H262513   5.682   2.645   1.997  0.2301 -0.0883  0.5004
13700TIP3   OH262514   3.367   2.068  16.156  0.2839 -0.1440  0.1337
13700TIP3    H162515   3.429   2.080  16.084  0.8605 -2.0241  0.2520
13700TIP3    H262516   3.423   2.048  16.232 -0.3416  1.2362  0.9915
13701TIP3   OH262517   2.149   1.432  11.890 -0.2135  0.0374  0.1683
13701TIP3    H162518   2.117   1.491  11.958  0.7238  0.1330  0.5494
13701TIP3    H262519   2.183   1.356  11.938  1.7662  0.7165 -0.0410
13702TIP3   OH262520   3.579   4.129   0.093  0.8249  0.2972 -0.5519
13702TIP3    H162521   3.587   4.217   0.130  0.2460 -0.4555  1.5666
13702TIP3    H262522   3.662   4.114   0.048  0.8010  2.0260 -1.2592
13703TIP3   OH262523   1.881   5.113   4.289 -0.0797  0.1615  0.2269
13703TIP3    H162524   1.974   5.130   4.272  0.3072 -1.2169  0.8432
13703TIP3    H262525   1.877   5.088   4.382 -1.1891  0.9427  0.4206
13704TIP3   OH262526   6.314   4.066  14.310 -0.1366  0.3107  0.3562
13704TIP3    H162527   6.266   4.119  14.246  0.9879  1.0234  0.0831
13704TIP3    H262528   6.298   4.110  14.393 -2.5556 -1.2643  0.8218
13705TIP3   OH262529   0.427   3.157   1.856 -0.0885 -0.1116  0.2694
13705TIP3    H162530   0.377   3.088   1.813 -0.3890  0.4740 -0.3313
13705TIP3    H262531   0.518   3.130   1.849 -0.1482 -0.1016 -0.5993
13706TIP3   OH262532   3.909   1.265   0.858 -0.1997 -0.4930 -0.2723
13706TIP3    H162533   3.954   1.343   0.825  0.3413 -0.4693  0.4833
13706TIP3    H262534   3.937   1.194   0.800 -0.7286 -0.1246 -0.9897
13707TIP3   OH262535   2.533   5.552  15.492 -0.8644  0.2127  0.4912
13707TIP3    H162536   2.586   5.478  15.520 -1.2533  0.0282  0.7389
13707TIP3    H262537   2.487   5.581  15.571 -0.4926  0.9051  0.4642
13708TIP3   OH262538   5.881   4.905  11.120 -0.4039 -0.2800  0.2525
13708TIP3    H162539   5.893   4.941  11.208  1.7453  0.2311 -0.1989
13708TIP3    H262540   5.946   4.951  11.066 -0.3470 -1.9558 -1.1971
13709TIP3   OH262541   1.809   3.223  12.561  0.0717 -0.3571  0.1435
13709TIP3    H162542   1.856   3.150  12.521  0.8010  0.4847 -0.5866
13709TIP3    H262543   1.769   3.268  12.487 -0.0041  0.2315  0.5417
13710TIP3   OH262544   1.349   5.878  15.753  0.2237 -0.7827  0.0847
13710TIP3    H162545   1.372   5.958  15.800 -0.1724 -0.8898  0.4656
13710TIP3    H262546   1.405   5.810  15.791 -2.5510 -1.6617  3.0327
13711TIP3   OH262547   3.267   4.855   1.144  0.3340 -0.1953  0.0398
13711TIP3    H162548   3.251   4.896   1.229  1.0064  1.2325 -0.4852
13711TIP3    H262549   3.182   4.854   1.101 -0.1523 -1.5771  0.9771
13712TIP3   OH262550   6.291   6.337   1.624 -0.2273  0.2030 -0.1353
13712TIP3    H162551   6.282   6.243   1.645 -0.1543 -0.1225 -1.4817
13712TIP3    H262552   6.362   6.367   1.681 -0.7951 -0.3477  0.9119
13713TIP3   OH262553   6.160   4.060  14.974 -0.4361 -0.0207  0.1069
13713TIP3    H162554   6.151   4.065  15.069  1.3609  0.6793  0.2794
13713TIP3    H262555   6.191   4.146  14.948 -0.6262 -0.2948 -1.0906
13714TIP3   OH262556   3.867   6.023   2.058  0.0446  0.4259 -0.1968
13714TIP3    H162557   3.831   6.045   2.144 -0.3107 -1.6175  0.2323
13714TIP3    H262558   3.812   5.951   2.027 -0.0579  1.3358 -2.3194
13715TIP3   OH262559   0.490   4.942   5.796 -0.6521 -0.1048 -0.1539
13715TIP3    H162560   0.576   4.982   5.789  0.1460 -1.6689  0.1386
13715TIP3    H262561   0.454   4.946   5.708  1.2160 -2.5050 -1.1326
13716TIP3   OH262562   4.183   3.459  11.432  0.0030  0.3081  0.3359
13716TIP3    H162563   4.121   3.492  11.497 -1.6480 -1.3340 -0.3442
13716TIP3    H262564   4.252   3.418  11.484 -0.4652  0.4273  1.0739
13717TIP3   OH262565   6.151   1.979  13.921 -0.0627  0.6320  0.8661
13717TIP3    H162566   6.241   1.977  13.889  0.2378  0.9126  1.6645
13717TIP3    H262567   6.158   2.011  14.011 -0.7926 -0.9252  1.5011
13718TIP3   OH262568   5.141   4.628  15.686 -0.9353  0.1274  0.4534
13718TIP3    H162569   5.118   4.653  15.596  1.4587 -0.9379 -0.5552
13718TIP3    H262570   5.147   4.711  15.733 -1.5924  0.7552 -0.5223
13719TIP3   OH262571   3.986   1.407  13.812 -0.8419 -0.4512 -0.0813
13719TIP3    H162572   3.964   1.367  13.896  1.9125  0.2429  1.1082
13719TIP3    H262573   4.033   1.487  13.836  0.6972 -0.6215 -2.2444
13720TIP3   OH262574   1.103   1.901  16.083  0.0095  0.1592  0.4601
13720TIP3    H162575   1.034   1.961  16.112  0.2092 -0.0784  1.4354
13720TIP3    H262576   1.182   1.931  16.128 -0.0202 -1.2365  1.4933
13721TIP3   OH262577   1.601   4.374   0.310 -0.5022  0.0654 -0.4436
13721TIP3    H162578   1.674   4.393   0.251  0.0080  1.7274  0.6616
13721TIP3    H262579   1.526   4.362   0.252  0.5193 -1.2669 -1.5785
13722TIP3   OH262580   0.508   6.703   5.520  0.0588 -0.5161 -0.7205
13722TIP3    H162581   0.554   6.620   5.513  1.6860  0.4957 -3.2220
13722TIP3    H262582   0.573   6.763   5.558  0.2250  0.4674 -2.4702
13723TIP3   OH262583   3.733   2.793  11.153 -0.6400  0.3348 -0.2028
13723TIP3    H162584   3.764   2.791  11.062  0.9688 -2.1882  0.3042
13723TIP3    H262585   3.750   2.883  11.182  1.5441  0.4232 -1.5305
13724TIP3   OH262586   0.243   2.197  15.084 -0.5121  0.3381  0.2048
13724TIP3    H162587   0.261   2.143  15.161  0.7061  1.8820  1.0598
13724TIP3    H262588   0.314   2.178  15.023 -0.1971  0.7795  0.4228
13725TIP3   OH262589   3.610   5.390   4.059  0.2650 -0.3412 -0.7613
13725TIP3    H162590   3.548   5.362   3.992  0.1152 -1.1182 -0.3134
13725TIP3    H262591   3.559   5.388   4.140  0.8734 -1.0251 -0.3796
13726TIP3   OH262592   2.610   5.117  16.898  0.1930  0.1990 -0.2825
13726TIP3    H162593   2.532   5.168  16.876 -0.4643 -0.7164 -0.1651
13726TIP3    H262594   2.674   5.181  16.926 -0.3456  1.0206 -0.8800
13727TIP3   OH262595   2.607   5.851   2.864 -0.3296 -0.1154  0.2015
13727TIP3    H162596   2.673   5.856   2.933  0.3840 -0.4415 -0.4352
13727TIP3    H262597   2.625   5.767   2.821 -0.2453  0.4311 -0.8709
13728TIP3   OH262598   2.035   4.297  11.134  0.3012  0.2327 -0.0040
13728TIP3    H162599   2.126   4.310  11.109  0.2639 -1.0177 -0.8410
13728TIP3    H262600   2.024   4.350  11.213  1.6559  0.6559 -0.0861
13729TIP3   OH262601   2.592   0.275   3.396 -0.0702  0.3249 -0.0540
13729TIP3    H162602   2.630   0.193   3.365 -0.8053  0.5758 -1.7184
13729TIP3    H262603   2.506   0.250   3.429 -0.5978  0.4919 -1.2407
13730TIP3   OH262604   1.300   3.335   2.837  0.0466  0.1299 -0.1627
13730TIP3    H162605   1.350   3.389   2.898 -0.4668 -0.0310  0.4069
13730TIP3    H262606   1.291   3.251   2.881  0.7419 -0.3990 -0.9959
13731TIP3   OH262607   0.312   0.863   5.856  0.0881 -0.6557 -0.5160
13731TIP3    H162608   0.218   0.849   5.870 -0.4930  2.0594 -1.1342
13731TIP3    H262609   0.352   0.840   5.940 -1.6250  1.7948  1.1105
13732TIP3   OH262610   6.774   4.750   3.826  0.1863  0.0186  0.1037
13732TIP3    H162611   6.868   4.750   3.844  0.1041 -1.1291  0.6525
13732TIP3    H262612   6.766   4.697   3.746 -0.0280 -0.2066  0.2748
13733TIP3   OH262613   2.289   2.275  11.547  0.5851  0.1927  0.5311
13733TIP3    H162614   2.372   2.315  11.520 -0.7223  1.5875 -1.7826
13733TIP3    H262615   2.279   2.302  11.639  2.7863 -0.2961  0.9848
13734TIP3   OH262616   5.193   2.596   0.917  0.0425 -0.1428  0.2706
13734TIP3    H162617   5.116   2.542   0.931 -1.2160  0.9203 -2.0554
13734TIP3    H262618   5.262   2.534   0.892 -0.9689 -0.8400 -0.8898
13735TIP3   OH262619   3.838   6.427   5.685 -0.2155 -0.5777 -0.0963
13735TIP3    H162620   3.926   6.459   5.668  0.3306 -1.5595  0.8191
13735TIP3    H262621   3.833   6.417   5.780 -0.9068 -1.6745 -0.2325
13736TIP3   OH262622   2.105   0.373   5.631  0.4037 -0.6450 -0.2914
13736TIP3    H162623   2.122   0.354   5.723  0.2234 -0.7691 -0.2829
13736TIP3    H262624   2.136   0.295   5.584 -1.4010 -1.4833 -0.1613
13737TIP3   OH262625   1.302   0.020   5.754  0.3745  0.4737 -0.0242
13737TIP3    H162626   1.232   0.062   5.705 -0.5529 -0.7340  0.2109
13737TIP3    H262627   1.308   0.069   5.836 -2.3980 -1.2310  1.3423
13738TIP3   OH262628   3.738   5.808   0.425 -0.1903  0.3224  0.2785
13738TIP3    H162629   3.668   5.851   0.375 -1.4994 -1.4340  0.4860
13738TIP3    H262630   3.818   5.854   0.400 -1.0097  0.5372 -2.2205
13739TIP3   OH262631   4.801   0.702   0.422 -0.3233 -0.3502  0.3585
13739TIP3    H162632   4.707   0.687   0.433 -0.2207  0.3863  2.9161
13739TIP3    H262633   4.808   0.748   0.339 -2.1975 -0.6196 -0.0016
13740TIP3   OH262634   3.977   0.870  11.851  0.2064  0.0754 -0.0499
13740TIP3    H162635   3.967   0.961  11.821  0.0250 -0.5769 -2.1472
13740TIP3    H262636   4.064   0.845  11.821  0.4046 -0.3265  0.8645
13741TIP3   OH262637   4.735   5.407   0.465 -0.4136 -0.2274  0.2915
13741TIP3    H162638   4.693   5.487   0.435  0.1024  0.0941  0.4032
13741TIP3    H262639   4.674   5.337   0.443 -0.0710 -0.0066 -1.4465
13742TIP3   OH262640   1.019   3.206  15.765 -0.0648 -0.5481  0.3937
13742TIP3    H162641   1.000   3.271  15.833  0.1019 -1.1087  0.9895
13742TIP3    H262642   0.944   3.146  15.768  0.3743 -1.0952  0.7302
13743TIP3   OH262643   6.493   6.076   5.529 -0.0486  0.7260  0.1745
13743TIP3    H162644   6.435   6.001   5.537 -2.3021  2.3941  0.6168
13743TIP3    H262645   6.516   6.078   5.436  0.9016 -1.0381  0.3329
13744TIP3   OH262646   5.410   4.299  15.265  0.0575  0.0194  0.1649
13744TIP3    H162647   5.347   4.307  15.194 -1.8384 -2.5510  1.3830
13744TIP3    H262648   5.373   4.230  15.322  2.8309  0.0332  2.1764
13745TIP3   OH262649   1.210   6.525   4.655  0.2414 -0.2223  0.9716
13745TIP3    H162650   1.306   6.521   4.654  0.2337 -0.4507  1.0686
13745TIP3    H262651   1.190   6.615   4.629  0.5021  0.0904  1.8115
13746TIP3   OH262652   3.827   4.824  16.990  0.0002  0.3072 -0.1191
13746TIP3    H162653   3.858   4.833  16.900 -0.7515  2.9968 -0.2107
13746TIP3    H262654   3.743   4.780  16.983  0.9675 -1.6171 -0.4296
13747TIP3   OH262655   3.520   6.323   5.939  0.5690  0.2770  0.2697
13747TIP3    H162656   3.517   6.344   6.032 -1.3080  1.7759 -0.0412
13747TIP3    H262657   3.490   6.233   5.933 -1.4362  0.8419  1.0262
13748TIP3   OH262658   4.671   1.251  16.530  0.2156  0.4537  0.2928
13748TIP3    H162659   4.755   1.232  16.488  0.2031  1.5026 -0.2360
13748TIP3    H262660   4.606   1.234  16.461  0.1107  1.1234  0.2254
13749TIP3   OH262661   4.116   2.087  11.358  0.4916  0.4696  0.6691
13749TIP3    H162662   4.195   2.035  11.370  1.2796  1.7365  1.1849
13749TIP3    H262663   4.147   2.171  11.324 -0.4372  1.5193  2.2625
13750TIP3   OH262664   1.690   6.661  14.383 -0.1024  0.1912 -0.1558
13750TIP3    H162665   1.638   6.722  14.435  0.4838  0.7311 -0.1914
13750TIP3    H262666   1.706   6.707  14.301  2.2300  0.9204  0.6517
13751TIP3   OH262667   6.345   2.022   2.041  0.0935  0.8098 -0.2795
13751TIP3    H162668   6.358   2.012   1.947  0.8199  2.8367 -0.4421
13751TIP3    H262669   6.377   2.110   2.060 -1.9039  1.2261  1.5112
13752TIP3   OH262670   4.124   5.518   6.524  0.2765 -0.2473 -0.0242
13752TIP3    H162671   4.054   5.581   6.539  1.0627  0.4145  0.9634
13752TIP3    H262672   4.162   5.544   6.440 -0.2546 -0.2338 -0.2625
13753TIP3   OH262673   5.538   6.305   3.453 -0.1735 -0.5540 -0.5615
13753TIP3    H162674   5.630   6.303   3.480 -0.1750  2.1477 -0.0552
13753TIP3    H262675   5.506   6.217   3.472  2.5790 -2.0099 -1.9865
13754TIP3   OH262676   1.523   2.520  13.721 -0.0710 -0.5975  0.3327
13754TIP3    H162677   1.499   2.490  13.634 -0.1476 -0.5037  0.3211
13754TIP3    H262678   1.518   2.442  13.776 -2.1808 -0.2573  0.7038
13755TIP3   OH262679   6.739   4.051  11.118  0.0827  0.6672  0.0235
13755TIP3    H162680   6.750   3.958  11.097 -1.9580  0.3338  0.2247
13755TIP3    H262681   6.702   4.089  11.038 -0.5944  0.9609  0.4654
13756TIP3   OH262682   5.502   5.157   4.075 -0.0402  0.1884 -0.3426
13756TIP3    H162683   5.469   5.067   4.079  0.2430  0.0882 -0.2905
13756TIP3    H262684   5.507   5.185   4.166 -1.0517  0.5939 -0.3967
13757TIP3   OH262685   5.227   4.692   1.449  0.2076 -0.1992 -0.3001
13757TIP3    H162686   5.199   4.624   1.511 -3.3564  0.9197 -0.4759
13757TIP3    H262687   5.234   4.646   1.366  0.1057 -0.7824  0.0038
13758TIP3   OH262688   2.852   0.982  13.072  0.7696 -0.0615  0.0429
13758TIP3    H162689   2.918   0.960  13.138  0.5635 -1.8162 -0.2885
13758TIP3    H262690   2.878   0.935  12.994 -1.5364 -1.9372  0.2775
13759TIP3   OH262691   4.240   4.650   2.228 -0.1541  0.1024 -0.4020
13759TIP3    H162692   4.288   4.733   2.236  0.1230 -0.1085  0.2216
13759TIP3    H262693   4.308   4.583   2.224 -0.3533 -0.0371 -1.9227
13760TIP3   OH262694   4.001   5.656  13.434  0.4250 -0.6178 -0.0830
13760TIP3    H162695   4.080   5.656  13.487  0.2245 -1.2665  0.2271
13760TIP3    H262696   3.930   5.674  13.496  0.2006 -1.2823 -0.1301
13761TIP3   OH262697   2.141   5.760  13.058 -0.1223  0.2841  0.1748
13761TIP3    H162698   2.083   5.836  13.057 -0.3131  0.1801 -2.0664
13761TIP3    H262699   2.081   5.685  13.062 -0.1146  0.2099 -0.7954
13762TIP3   OH262700   2.821   6.176   3.977 -0.3790  0.3369  0.4691
13762TIP3    H162701   2.741   6.184   4.029 -0.8819  0.4634 -0.2961
13762TIP3    H262702   2.795   6.204   3.889  0.8073  1.5519  0.4696
13763TIP3   OH262703   4.413   6.657  11.532  0.5587  0.2501  1.0165
13763TIP3    H162704   4.362   6.680  11.610  0.5278 -1.3035  1.4941
13763TIP3    H262705   4.503   6.647  11.565  0.3303 -1.7500  1.1933
13764TIP3   OH262706   6.361   6.132  15.593 -0.1624  0.4460  0.0740
13764TIP3    H162707   6.357   6.227  15.588  0.6313  0.4234 -1.5572
13764TIP3    H262708   6.277   6.103  15.556 -0.0233  0.4955 -0.2796
13765TIP3   OH262709   3.391   2.646  14.042  0.1965 -0.4078  0.4756
13765TIP3    H162710   3.325   2.659  13.974 -0.0738  0.4541  0.8889
13765TIP3    H262711   3.339   2.629  14.121  0.5073 -1.7113  0.4229
13766TIP3   OH262712   4.929   6.071   6.087  0.7474 -0.0343 -0.1937
13766TIP3    H162713   4.860   6.124   6.128  1.5510 -0.0357  1.2023
13766TIP3    H262714   5.000   6.068   6.151  2.6596  1.1183 -2.1104
13767TIP3   OH262715   4.429   2.290   2.565 -0.4619 -0.3646  0.1470
13767TIP3    H162716   4.511   2.250   2.535 -1.3363 -1.1742 -1.2155
13767TIP3    H262717   4.456   2.376   2.597  0.6920  0.1186 -1.9444
13768TIP3   OH262718   3.572   4.243   6.378  0.0069  0.1965  0.3301
13768TIP3    H162719   3.527   4.216   6.298 -0.6432  0.8323  0.4687
13768TIP3    H262720   3.631   4.314   6.350  2.1549 -1.6607 -0.1438
13769TIP3   OH262721   1.649   0.861  11.512 -0.0859 -0.0782  0.1366
13769TIP3    H162722   1.576   0.799  11.510  0.9162 -1.3442  1.0795
13769TIP3    H262723   1.713   0.824  11.451 -0.2582  1.0921 -0.7857
13770TIP3   OH262724   0.778   2.197  14.223  0.3739  0.0613 -0.1062
13770TIP3    H162725   0.824   2.131  14.274  0.2055 -0.1788 -0.2680
13770TIP3    H262726   0.847   2.241  14.173  0.4891  0.0367  0.0317
13771TIP3   OH262727   6.117   4.993   2.192  0.8757 -0.2261  0.3110
13771TIP3    H162728   6.174   5.054   2.239  0.9414 -0.1852  0.1809
13771TIP3    H262729   6.035   5.041   2.181  0.8566 -0.2402  0.3961
13772TIP3   OH262730   4.007   6.340  12.586  0.0502 -0.0001 -0.1088
13772TIP3    H162731   4.068   6.375  12.522  0.6515 -1.8634 -0.6236
13772TIP3    H262732   4.036   6.377  12.670  1.4659 -0.3252 -0.4412
13773TIP3   OH262733   0.461   3.014  14.847  0.5091  0.4291  0.1233
13773TIP3    H162734   0.544   3.059  14.836  0.7539  0.0126  0.2325
13773TIP3    H262735   0.409   3.072  14.903  0.7700  0.6378  0.1502
13774TIP3   OH262736   6.343   5.857  14.230 -0.4786 -0.1524  0.5890
13774TIP3    H162737   6.256   5.880  14.197  0.0311  0.8554 -0.0940
13774TIP3    H262738   6.362   5.773  14.189 -1.0621 -0.3149  0.6329
13775TIP3   OH262739   2.895   0.673   2.242 -0.0610  0.6308 -0.0180
13775TIP3    H162740   2.918   0.760   2.275  0.0418  0.4582  0.3696
13775TIP3    H262741   2.956   0.614   2.285  0.6822  0.4904 -1.2012
13776TIP3   OH262742   1.376   1.339  10.699 -0.6696  0.2262 -0.2070
13776TIP3    H162743   1.302   1.303  10.649 -0.9743  0.6297 -0.0542
13776TIP3    H262744   1.337   1.368  10.781 -0.0685 -0.9514  0.5127
13777TIP3   OH262745   3.356   0.109  11.926  0.7414  0.0971 -0.1734
13777TIP3    H162746   3.284   0.170  11.918  1.7717  1.3047 -0.5851
13777TIP3    H262747   3.315   0.022  11.922 -0.6231  0.7425 -0.8664
13778TIP3   OH262748   0.888   4.761  14.934  0.3936  0.1863 -0.1012
13778TIP3    H162749   0.919   4.834  14.989  1.7408  0.6235 -1.3883
13778TIP3    H262750   0.964   4.704  14.926 -0.3467 -0.8291  0.0112
13779TIP3   OH262751   3.075   4.500  10.846 -0.2514  0.0851 -0.9665
13779TIP3    H162752   3.071   4.436  10.774  1.2216 -1.3458  0.1172
13779TIP3    H262753   3.016   4.570  10.820  0.7402 -0.0192 -3.9099
13780TIP3   OH262754   0.439   3.433  16.153  0.2370 -0.0440  0.0626
13780TIP3    H162755   0.428   3.495  16.226  1.7109  0.2161  0.0968
13780TIP3    H262756   0.481   3.485  16.084 -2.6881  0.1801 -1.6875
13781TIP3   OH262757   0.236   2.545  15.928 -0.1032  0.4168 -0.5745
13781TIP3    H162758   0.229   2.473  15.992  1.0768  0.8273  0.0453
13781TIP3    H262759   0.261   2.621  15.980  0.4489  0.8685 -1.4749
13782TIP3   OH262760   4.023   0.655  13.586  0.3565 -0.2225  0.2757
13782TIP3    H162761   4.100   0.711  13.582  0.1011  0.1883  0.9251
13782TIP3    H262762   3.961   0.703  13.642 -1.8006  1.2398 -3.0124
13783TIP3   OH262763   0.033   3.167   6.400  0.0606  0.4474  0.2150
13783TIP3    H162764   0.084   3.205   6.473 -0.1214  0.8242  0.1505
13783TIP3    H262765   0.099   3.146   6.334  0.1345  0.9755  0.1143
13784TIP3   OH262766   6.427   3.395  11.883 -0.1762  0.3412 -1.0600
13784TIP3    H162767   6.358   3.379  11.819 -1.6447  0.2801  0.4667
13784TIP3    H262768   6.385   3.379  11.968  1.2167  2.0081  0.0149
13785TIP3   OH262769   3.902   3.396  15.646  1.0177 -0.6998 -0.5065
13785TIP3    H162770   3.901   3.432  15.557  0.2473  0.6829  0.0305
13785TIP3    H262771   3.994   3.395  15.670  1.1333  0.0126 -0.8991
13786TIP3   OH262772   0.484   2.832   5.402 -0.2186  0.8546  0.4120
13786TIP3    H162773   0.438   2.893   5.460 -0.3170 -0.3501  1.6693
13786TIP3    H262774   0.568   2.816   5.446 -0.7783 -0.9987  0.9184
13787TIP3   OH262775   4.442   4.750  14.036  0.1521  0.1715  0.2906
13787TIP3    H162776   4.425   4.837  14.000 -0.7576 -0.5314 -1.0603
13787TIP3    H262777   4.537   4.739  14.027  0.0998  0.4775 -0.8773
13788TIP3   OH262778   4.140   0.088   0.690  0.1389  0.0999 -0.3494
13788TIP3    H162779   4.131   0.137   0.772 -0.4324  0.0997 -0.4048
13788TIP3    H262780   4.051   0.061   0.670  0.5664 -1.8612  0.2243
13789TIP3   OH262781   4.076   4.115   5.221 -0.3188  0.0268 -0.9669
13789TIP3    H162782   4.106   4.160   5.300 -0.3929 -0.9217 -0.3920
13789TIP3    H262783   4.078   4.022   5.244 -0.0415 -0.2792 -2.1894
13790TIP3   OH262784   5.138   5.501   1.860 -0.9676  0.1715  0.2740
13790TIP3    H162785   5.132   5.516   1.766 -0.6076 -0.4341  0.1413
13790TIP3    H262786   5.221   5.541   1.886 -1.5307  1.2128  0.5317
13791TIP3   OH262787   1.104   1.531  13.455  0.3945 -0.5790  0.1532
13791TIP3    H162788   1.167   1.464  13.480  1.5582  0.5716  0.4470
13791TIP3    H262789   1.140   1.612  13.492 -1.1533  0.1530  0.1389
13792TIP3   OH262790   3.222   0.526  14.153  0.0173  0.4607  0.1316
13792TIP3    H162791   3.168   0.516  14.075 -1.2793 -0.9114  1.1480
13792TIP3    H262792   3.258   0.439  14.169 -0.5211  0.4726  1.5797
13793TIP3   OH262793   2.503   5.957   0.217  0.6366 -0.6287 -0.1807
13793TIP3    H162794   2.412   5.982   0.200  0.2749 -1.9448 -0.2240
13793TIP3    H262795   2.543   5.951   0.131  0.5616 -0.7983 -0.2036
13794TIP3   OH262796   3.593   3.621   5.205 -0.6181  0.3385  0.2199
13794TIP3    H162797   3.567   3.713   5.211  1.1489  0.9212 -0.2006
13794TIP3    H262798   3.603   3.605   5.111 -1.2972 -0.4029  0.2746
13795TIP3   OH262799   1.664   1.102  11.641 -0.3990 -0.3177  0.0553
13795TIP3    H162800   1.642   1.014  11.609  1.9831 -1.0161  0.1229
13795TIP3    H262801   1.731   1.086  11.708 -0.7935  1.4992  0.9354
13796TIP3   OH262802   6.435   0.072  16.257 -0.0553  0.3153 -0.1166
13796TIP3    H162803   6.343   0.078  16.232 -0.0953  0.3660  0.0383
13796TIP3    H262804   6.454  -0.022  16.254  0.0620  0.3541 -0.7594
13797TIP3   OH262805   1.221   6.025  16.043 -0.2070  0.5182  0.1073
13797TIP3    H162806   1.167   5.972  16.100 -0.1888 -1.7068 -1.7840
13797TIP3    H262807   1.166   6.042  15.966  0.9290  0.2894 -0.7877
13798TIP3   OH262808   1.485   3.370   4.812  0.3815 -0.0901 -0.3139
13798TIP3    H162809   1.570   3.327   4.807  0.2126 -0.3452 -1.2130
13798TIP3    H262810   1.433   3.313   4.869  0.7684  0.0145  0.1567
13799TIP3   OH262811   3.389   5.631   3.369  0.3653 -0.2389 -0.3691
13799TIP3    H162812   3.452   5.619   3.441 -0.2511  1.3656  0.4981
13799TIP3    H262813   3.417   5.712   3.326 -0.7485  0.1967 -0.3181
13800TIP3   OH262814   3.525   6.416   5.592  0.4183  0.2226  0.1930
13800TIP3    H162815   3.546   6.449   5.679  0.4662 -0.6030  0.5067
13800TIP3    H262816   3.431   6.430   5.584  0.7876  2.7466 -0.7067
13801TIP3   OH262817   1.071   5.493   1.296  0.1243  0.0131  0.0743
13801TIP3    H162818   1.018   5.541   1.359  0.5311  0.7340 -0.1209
13801TIP3    H262819   1.112   5.423   1.347  0.1577  0.3612  0.5299
13802TIP3   OH262820   6.159   4.721  11.717 -0.2945 -0.6830  0.3897
13802TIP3    H162821   6.224   4.659  11.682  0.2236  1.5251 -3.0242
13802TIP3    H262822   6.075   4.685  11.689 -0.0241 -0.2090 -1.1504
13803TIP3   OH262823   5.453   6.437  15.426 -0.0034 -0.1976 -0.1370
13803TIP3    H162824   5.481   6.463  15.339 -1.5004 -1.8234 -1.1650
13803TIP3    H262825   5.360   6.414  15.416  0.7785 -4.5522  0.8337
13804TIP3   OH262826   0.455   5.957  13.692  0.0130 -0.0846  0.0404
13804TIP3    H162827   0.539   6.003  13.688 -0.9374  1.6777 -1.3118
13804TIP3    H262828   0.419   5.979  13.778  0.5493 -0.1591  0.2878
13805TIP3   OH262829   2.396   0.723   0.433  0.2673 -0.0978 -0.4750
13805TIP3    H162830   2.337   0.660   0.391 -0.7467  0.4574  0.0660
13805TIP3    H262831   2.351   0.807   0.424  1.2030  0.4146 -0.4463
13806TIP3   OH262832   4.557   0.075  16.542  0.5662  0.7996  0.0022
13806TIP3    H162833   4.554  -0.018  16.520  0.4085  0.9429 -0.5921
13806TIP3    H262834   4.469   0.107  16.521  0.6420  1.1004  0.1409
13807TIP3   OH262835   5.513   0.916  14.360 -0.3546 -0.0323  0.0709
13807TIP3    H162836   5.607   0.902  14.352 -0.0322  1.3943  0.8759
13807TIP3    H262837   5.502   1.011  14.352 -1.5212  0.0043  1.4845
13808TIP3   OH262838   5.843   1.511   3.608 -0.2243 -0.1886  0.5584
13808TIP3    H162839   5.914   1.557   3.652 -0.3446 -0.4170  1.0106
13808TIP3    H262840   5.805   1.456   3.677 -2.1427  1.4153  0.8776
13809TIP3   OH262841   2.406   0.060  16.564 -0.2194  0.4778 -0.0370
13809TIP3    H162842   2.446   0.015  16.490 -0.4902 -3.0925  1.7685
13809TIP3    H262843   2.459   0.034  16.639  1.2691  5.5003  1.0359
13810TIP3   OH262844   2.088   6.376  15.233 -0.5400 -0.2690 -0.0957
13810TIP3    H162845   2.122   6.312  15.296  0.3742  1.0654  0.8443
13810TIP3    H262846   2.018   6.421  15.281  1.2252  1.8634  0.6711
13811TIP3   OH262847   6.100   0.289   4.090  0.5215  0.1289  0.0171
13811TIP3    H162848   6.080   0.309   4.182  3.1811 -0.0777  0.7179
13811TIP3    H262849   6.138   0.370   4.056 -0.9923  0.4003 -1.1298
13812TIP3   OH262850   5.432   6.011  14.212 -0.2663  0.3763  0.5848
13812TIP3    H162851   5.389   5.962  14.281 -0.0172  0.4154  0.7701
13812TIP3    H262852   5.365   6.071  14.178 -0.2558  0.6917  1.1148
13813TIP3   OH262853   4.407   0.383  11.540  0.3113 -0.4749  0.3143
13813TIP3    H162854   4.391   0.384  11.446 -1.4332 -2.2091  0.5113
13813TIP3    H262855   4.355   0.309  11.572  1.3525 -0.3253  2.5610
13814TIP3   OH262856   5.689   1.607   0.151  0.0117 -0.5312  0.3717
13814TIP3    H162857   5.682   1.667   0.225 -0.5682  1.5775 -1.2892
13814TIP3    H262858   5.600   1.601   0.117  0.6127  0.5206 -1.5643
13815TIP3   OH262859   0.578   6.283   5.665 -0.3408 -0.0207  0.1848
13815TIP3    H162860   0.661   6.327   5.646  0.1911 -1.4498 -1.0004
13815TIP3    H262861   0.515   6.354   5.672  1.2122  1.2332  2.7313
13816TIP3   OH262862   1.962   4.941   6.146 -0.5424  0.4478  0.4934
13816TIP3    H162863   1.930   4.994   6.219 -1.1637 -1.6845  1.8752
13816TIP3    H262864   1.998   4.862   6.188  0.0419 -0.3769 -1.4537
13817TIP3   OH262865   2.397   6.177   5.362  0.0216  0.2371 -0.2258
13817TIP3    H162866   2.357   6.255   5.324 -1.2615 -0.0708  0.4495
13817TIP3    H262867   2.378   6.107   5.300  0.4002  0.2763 -0.3919
13818TIP3   OH262868   0.701   2.239  15.522 -0.3365  0.0156 -0.3893
13818TIP3    H162869   0.745   2.159  15.550  0.6241 -0.2731 -2.5374
13818TIP3    H262870   0.613   2.231  15.559 -0.1338 -1.8082 -0.1858
13819TIP3   OH262871   1.719   5.964   0.649  0.4141 -0.3782 -0.0772
13819TIP3    H162872   1.630   5.934   0.668  0.3652 -0.0797  0.1796
13819TIP3    H262873   1.707   6.044   0.598  0.5260  0.0012  0.4809
13820TIP3   OH262874   1.805   0.813   0.156  0.3103  0.3411 -0.7659
13820TIP3    H162875   1.728   0.867   0.135  0.8897  1.1498 -0.8580
13820TIP3    H262876   1.873   0.845   0.098  1.0606  0.4680  0.1594
13821TIP3   OH262877   4.520   5.253  12.762  0.1818  0.7583 -0.6193
13821TIP3    H162878   4.481   5.270  12.677 -0.7385  0.5135 -0.2538
13821TIP3    H262879   4.479   5.317  12.820 -0.6413 -0.3230  0.0301
13822TIP3   OH262880   0.628   1.785  12.077 -0.0751 -0.7314  0.8575
13822TIP3    H162881   0.613   1.779  12.171 -1.1805 -2.4363  0.6033
13822TIP3    H262882   0.583   1.709  12.040 -2.7196  1.6734 -1.4090
13823TIP3   OH262883   6.305   4.232   5.846  0.4163 -0.0646 -0.0182
13823TIP3    H162884   6.327   4.204   5.757  1.4112  0.6783 -0.0279
13823TIP3    H262885   6.373   4.193   5.901  1.7225  2.0762 -0.0102
13824TIP3   OH262886   6.169   2.563  11.518 -0.2044  0.0316 -0.3901
13824TIP3    H162887   6.243   2.556  11.458  0.1603  1.4109 -0.1283
13824TIP3    H262888   6.116   2.485  11.500  1.3413 -1.0281 -0.5036
13825TIP3   OH262889   3.863   5.769   2.419 -0.2977  0.7648 -0.3630
13825TIP3    H162890   3.819   5.829   2.359 -0.3711 -1.1212 -2.3419
13825TIP3    H262891   3.922   5.719   2.362 -2.1322 -2.8125  0.6052
13826TIP3   OH262892   2.674   5.770  15.441  0.4467  0.1352 -0.2420
13826TIP3    H162893   2.768   5.763  15.462  0.1438 -1.4646  0.7517
13826TIP3    H262894   2.633   5.700  15.492 -1.6085  2.2117  1.1815
13827TIP3   OH262895   1.063   0.780  13.131  0.0964  0.5066 -0.0533
13827TIP3    H162896   1.156   0.800  13.125  0.4722 -0.7363  1.0632
13827TIP3    H262897   1.031   0.835  13.202  0.2733  0.0311  0.4045
13828TIP3   OH262898   6.684   3.771   1.146 -0.4788  0.0775 -0.0506
13828TIP3    H162899   6.625   3.700   1.121  0.8414 -0.7393 -0.9823
13828TIP3    H262900   6.694   3.762   1.240 -0.2285 -1.0859 -0.1736
13829TIP3   OH262901   6.653   5.192  15.739 -0.0576 -0.1710 -0.4377
13829TIP3    H162902   6.578   5.250  15.736  0.7226  0.8841 -0.0353
13829TIP3    H262903   6.715   5.235  15.798 -0.2122 -2.3240  1.4273
13830TIP3   OH262904   3.952   0.248   1.790  0.2797  0.4881  0.2557
13830TIP3    H162905   3.915   0.253   1.701 -1.2431 -0.7486  0.7771
13830TIP3    H262906   4.047   0.253   1.776  0.1609 -0.8960 -1.5820
13831TIP3   OH262907   5.190   5.624  16.111  0.2633 -0.0702 -0.0864
13831TIP3    H162908   5.218   5.671  16.190  0.9576  0.6229 -0.7329
13831TIP3    H262909   5.113   5.575  16.139 -0.7784  1.8082  0.5117
13832TIP3   OH262910   1.323   5.191   6.170 -0.6082  0.2019  0.0760
13832TIP3    H162911   1.402   5.138   6.177 -0.6491  0.1879  0.4697
13832TIP3    H262912   1.329   5.233   6.085  0.5071  1.3032  0.6760
13833TIP3   OH262913   2.330   1.283   2.405  0.4869  0.6845 -0.2394
13833TIP3    H162914   2.253   1.264   2.352  0.6225 -0.0072 -0.1992
13833TIP3    H262915   2.377   1.199   2.411 -0.6708  0.1107  2.8549
13834TIP3   OH262916   1.885   2.003   4.110 -0.6379  0.7417  0.4115
13834TIP3    H162917   1.793   2.029   4.103 -0.5522  0.8796 -0.2462
13834TIP3    H262918   1.887   1.937   4.180 -1.5919 -0.9708 -1.1169
13835TIP3   OH262919   4.492   2.329   3.561 -0.5697  0.7170  0.2109
13835TIP3    H162920   4.440   2.394   3.608  0.9798  1.7412  0.5891
13835TIP3    H262921   4.581   2.364   3.562  0.0646 -0.7547 -0.7953
13836TIP3   OH262922   2.585   3.562   2.422 -0.0734  0.2083  0.1240
13836TIP3    H162923   2.557   3.503   2.492 -1.3145 -1.1676 -1.4490
13836TIP3    H262924   2.651   3.618   2.462  0.6749 -1.8180  1.8816
13837TIP3   OH262925   5.182   1.043   2.917 -0.6821  0.1996 -0.6416
13837TIP3    H162926   5.149   1.095   2.843 -1.0260 -0.2129 -0.7825
13837TIP3    H262927   5.168   0.952   2.891 -2.7609  0.0445  0.7796
13838TIP3   OH262928   0.580   3.398  13.548  0.6613 -0.2218 -0.2648
13838TIP3    H162929   0.504   3.452  13.568  0.9775  0.5188 -0.9873
13838TIP3    H262930   0.632   3.451  13.487 -0.4407 -2.4221 -3.3689
13839TIP3   OH262931   2.485   3.844   0.893  0.4870  0.1438 -0.3593
13839TIP3    H162932   2.413   3.839   0.955  0.4469  1.0430 -0.3157
13839TIP3    H262933   2.520   3.755   0.889  0.2883  0.0030  0.7093
13840TIP3   OH262934   6.574   5.854   4.394  0.2045  0.5631  0.5977
13840TIP3    H162935   6.571   5.803   4.313  0.0255  3.4547 -1.3826
13840TIP3    H262936   6.667   5.855   4.418  0.0446 -1.8638  1.6143
13841TIP3   OH262937   1.915   1.571  13.455  0.0639  0.5686  0.1457
13841TIP3    H162938   1.947   1.485  13.484  0.8368  0.3572 -1.2455
13841TIP3    H262939   1.840   1.550  13.399  1.3416  0.6475 -1.6624
13842TIP3   OH262940   5.855   4.600  16.812  0.1989  0.0855  0.2625
13842TIP3    H162941   5.862   4.634  16.723 -2.3168  0.3648  0.0995
13842TIP3    H262942   5.884   4.509  16.806 -1.0187 -0.2420 -1.1289
13843TIP3   OH262943   3.691   5.457  14.229  0.0567 -0.3113 -0.6303
13843TIP3    H162944   3.660   5.538  14.270 -3.0595 -1.4349 -0.4831
13843TIP3    H262945   3.741   5.413  14.297  0.9026  0.9874 -0.3744
13844TIP3   OH262946   6.284   6.182   1.908  1.4753 -0.0236 -0.3983
13844TIP3    H162947   6.366   6.201   1.953  2.1454  0.1249 -1.6538
13844TIP3    H262948   6.306   6.114   1.844  0.3579 -0.8437  0.0547
13845TIP3   OH262949   5.867   3.218  17.093  0.7360 -0.7261 -0.1042
13845TIP3    H162950   5.955   3.182  17.082  1.4549  1.3247 -1.5995
13845TIP3    H262951   5.851   3.268  17.014 -2.1862 -1.7358 -0.2768
13846TIP3   OH262952   0.530   4.607  11.956  0.5629 -0.1258  0.2355
13846TIP3    H162953   0.448   4.625  11.910 -0.1246 -1.9103  0.6939
13846TIP3    H262954   0.559   4.693  11.987 -2.0785  0.3921  1.6364
13847TIP3   OH262955   2.113   5.731   1.515  0.0694  0.2418 -0.0925
13847TIP3    H162956   2.073   5.804   1.468 -0.9655 -0.0310  0.3320
13847TIP3    H262957   2.200   5.722   1.476 -1.0007 -0.4685 -2.4968
13848TIP3   OH262958   5.360   6.609  11.980  0.2976  0.2049 -0.0598
13848TIP3    H162959   5.349   6.601  11.886  0.3555 -1.4616  0.0559
13848TIP3    H262960   5.325   6.528  12.016  1.4725  0.2413  1.2576
13849TIP3   OH262961   5.704   2.618   0.442  0.2400 -0.4952  0.9952
13849TIP3    H162962   5.783   2.671   0.442 -0.6671  0.9751 -0.9464
13849TIP3    H262963   5.671   2.624   0.531  1.5258  0.0451  1.4612
13850TIP3   OH262964   3.871   0.352  10.901 -0.1220  0.4656 -0.1853
13850TIP3    H162965   3.856   0.421  10.835 -1.3211 -0.7932 -1.3032
13850TIP3    H262966   3.816   0.378  10.975  2.7494  2.9670  1.3016
13851TIP3   OH262967   3.405   6.522  15.664  0.5434 -0.1863  0.0541
13851TIP3    H162968   3.469   6.453  15.681 -1.5657 -2.6212 -1.2170
13851TIP3    H262969   3.320   6.484  15.686 -0.7729  1.9060 -0.9593
13852TIP3   OH262970   4.989   4.163   6.030 -0.3471 -0.5381  0.0993
13852TIP3    H162971   4.894   4.166   6.046 -0.2768  0.6924  0.3850
13852TIP3    H262972   5.006   4.241   5.976  0.4006 -1.1506 -0.5739
13853TIP3   OH262973   5.149   3.353  17.253  0.2304 -0.5544  0.2630
13853TIP3    H162974   5.070   3.312  17.287 -1.1468  2.1020  0.4886
13853TIP3    H262975   5.215   3.337  17.321 -0.9939 -0.0476  1.6068
13854TIP3   OH262976   2.665   1.279   2.960 -0.4252  0.0388  0.3593
13854TIP3    H162977   2.650   1.226   3.038 -0.5191 -0.4945 -0.0161
13854TIP3    H262978   2.634   1.225   2.888  0.2410  0.2681 -0.1070
13855TIP3   OH262979   2.676   0.818   2.050  0.3049 -0.0282 -0.1447
13855TIP3    H162980   2.686   0.810   1.955  2.2769  0.1009  0.0091
13855TIP3    H262981   2.636   0.904   2.063  0.8446  0.3331 -0.8268
13856TIP3   OH262982   1.224   4.130  13.996  0.6365 -0.0727  0.0625
13856TIP3    H162983   1.274   4.212  13.990 -1.4973  1.2078 -2.6248
13856TIP3    H262984   1.210   4.104  13.905  0.1856 -2.8444  0.8252
13857TIP3   OH262985   1.393   4.748   6.087  0.6318  0.2342  0.0262
13857TIP3    H162986   1.450   4.696   6.145  0.7225  0.2206 -0.0741
13857TIP3    H262987   1.330   4.789   6.146  1.1665  0.7977  0.2166
13858TIP3   OH262988   1.710   1.473  16.452  0.7919  0.4238  0.0968
13858TIP3    H162989   1.621   1.488  16.420  1.1307  0.7451 -0.7266
13858TIP3    H262990   1.702   1.471  16.547 -0.2338 -0.4311  0.0119
13859TIP3   OH262991   1.779   5.548   4.249 -0.1032  0.0070  0.3006
13859TIP3    H162992   1.807   5.639   4.261  1.3002 -0.3490  0.0139
13859TIP3    H262993   1.794   5.507   4.334  0.4776 -0.2324  0.0912
13860TIP3   OH262994   3.723   0.516  14.567  0.1055  0.3197  0.4808
13860TIP3    H162995   3.732   0.554  14.654  2.6241  3.0642 -0.7901
13860TIP3    H262996   3.793   0.452  14.560  0.8740  1.1896  0.0196
13861TIP3   OH262997   6.739   1.972  12.322  0.2172  0.3411 -0.7727
13861TIP3    H162998   6.786   1.891  12.301 -0.9697 -0.2326 -1.3485
13861TIP3    H262999   6.807   2.038  12.332  1.0993 -0.1727 -2.8517
13862TIP3   OH263000   6.048   5.158  16.932 -0.1903 -0.4610 -0.5569
13862TIP3    H163001   6.010   5.070  16.932 -2.3481  0.4096  0.1340
13862TIP3    H263002   6.142   5.143  16.920 -0.6531 -2.7634 -2.0863
13863TIP3   OH263003   4.466   3.715  16.235 -0.4256  0.6434  0.5249
13863TIP3    H163004   4.487   3.652  16.165  0.7684  1.7544 -0.1598
13863TIP3    H263005   4.539   3.706  16.296 -1.1762  0.0905  1.3613
13864TIP3   OH263006   5.039   5.665  16.906 -0.0011  0.2372 -0.1785
13864TIP3    H163007   5.018   5.584  16.952  2.0673  0.1273  0.6854
13864TIP3    H263008   5.039   5.641  16.813 -1.1611 -0.2919 -0.0532
13865TIP3   OH263009   5.748   2.164  11.548  0.5149  0.0853  0.5011
13865TIP3    H163010   5.732   2.086  11.495  2.5012 -0.0840  0.0411
13865TIP3    H263011   5.761   2.131  11.637  1.0279 -0.0843  0.3659
13866TIP3   OH263012   4.004   5.997  11.179 -0.0573  0.6660 -0.2545
13866TIP3    H163013   3.955   6.030  11.254 -0.2205 -1.0384  0.4184
13866TIP3    H263014   3.942   5.998  11.107 -0.2833  1.0430 -0.0590
13867TIP3   OH263015   6.721   0.955  13.674 -0.2181 -0.2773 -0.2615
13867TIP3    H163016   6.633   0.931  13.644 -1.5746  1.1048  2.2748
13867TIP3    H263017   6.735   1.044  13.640 -0.4500  0.0741  0.5365
13868TIP3   OH263018   5.928   5.568   4.883 -0.8828  0.0627  0.0088
13868TIP3    H163019   5.909   5.661   4.867  0.7662  0.1823 -1.4743
13868TIP3    H263020   5.946   5.532   4.797 -0.0494 -1.3161  0.7293
13869TIP3   OH263021   3.563   3.057   4.739  0.1900 -1.0484  0.1399
13869TIP3    H163022   3.515   2.994   4.686 -0.4393  0.8852 -1.7302
13869TIP3    H263023   3.646   3.069   4.695  0.3552 -0.6804  0.5366
13870TIP3   OH263024   5.752   3.282   0.855 -0.0226 -0.6478 -0.2689
13870TIP3    H163025   5.808   3.359   0.845  0.6622 -1.3023 -1.7752
13870TIP3    H263026   5.771   3.249   0.943  1.3803 -0.4005 -0.4631
13871TIP3   OH263027   6.134   1.056  16.632 -0.1549 -0.2438 -0.1911
13871TIP3    H163028   6.208   0.995  16.629  0.0881 -0.0039  0.7169
13871TIP3    H263029   6.062   1.004  16.667 -0.0957 -0.1582  0.0571
13872TIP3   OH263030   4.708   3.704  12.352 -0.0848  1.3258  0.3010
13872TIP3    H163031   4.774   3.747  12.406 -0.0085  1.0179  0.4543
13872TIP3    H263032   4.703   3.615  12.386  0.1597  1.0500 -0.3702
13873TIP3   OH263033   0.859   5.736  14.239 -0.3234 -0.1683  0.2845
13873TIP3    H163034   0.882   5.724  14.331  0.2261  2.6071  0.5830
13873TIP3    H263035   0.939   5.770  14.198 -0.3874 -1.8622 -1.3986
13874TIP3   OH263036   4.217   5.087  13.416 -0.2002 -0.2754 -0.2058
13874TIP3    H163037   4.246   5.016  13.358 -0.0924  0.2588 -0.8191
13874TIP3    H263038   4.277   5.085  13.490 -0.2796 -0.9108 -0.1563
13875TIP3   OH263039   3.767   6.776  16.928 -0.3271 -0.4715 -0.1881
13875TIP3    H163040   3.689   6.746  16.880  0.7234 -0.3985 -2.0680
13875TIP3    H263041   3.749   6.867  16.948 -2.5529 -1.5049  3.4610
13876TIP3   OH263042   6.022   2.220   4.050  0.6698  0.2049  0.1283
13876TIP3    H163043   6.002   2.143   3.997  1.2305  0.5016 -0.5296
13876TIP3    H263044   5.944   2.234   4.104  0.6374 -0.9387  0.3985
13877TIP3   OH263045   4.342   1.782   3.470  0.4918  0.1383  0.2470
13877TIP3    H163046   4.417   1.834   3.439 -1.1153  1.3641 -1.8194
13877TIP3    H263047   4.329   1.811   3.560  0.8237  1.9602 -0.2544
13878TIP3   OH263048   1.662   3.634   6.823  0.3975  0.1366  0.2774
13878TIP3    H163049   1.669   3.591   6.738  1.1243  0.0447  0.3720
13878TIP3    H263050   1.568   3.647   6.837  0.3202  2.1884 -1.5525
13879TIP3   OH263051   1.788   5.074  12.032 -0.1991 -0.0005 -0.0831
13879TIP3    H163052   1.777   4.980  12.017  0.2184  0.3066 -2.7615
13879TIP3    H263053   1.700   5.105  12.054 -0.2673 -1.0366  1.2831
13880TIP3   OH263054   6.225   1.695  10.790 -0.3781  0.2962  0.0378
13880TIP3    H163055   6.133   1.697  10.816 -0.2984 -1.1771  0.5127
13880TIP3    H263056   6.244   1.602  10.777  0.8310  0.6507 -0.8600
13881TIP3   OH263057   4.370   1.522   0.690 -0.2374  0.2373 -0.0184
13881TIP3    H163058   4.288   1.570   0.696 -0.9160 -0.7211 -1.2949
13881TIP3    H263059   4.428   1.580   0.641 -0.5699  0.3741 -0.2533
13882TIP3   OH263060   0.301   4.881  15.259 -0.4117  0.4959  0.7141
13882TIP3    H163061   0.382   4.888  15.209 -0.1834 -1.0088  0.8108
13882TIP3    H263062   0.238   4.934  15.212 -0.0788 -0.5100 -0.9442
13883TIP3   OH263063   4.963   1.197   5.858  0.4221  0.0803  0.5609
13883TIP3    H163064   4.876   1.199   5.898  0.0972 -0.5793 -0.0940
13883TIP3    H263065   5.017   1.250   5.916 -0.5436  0.9617  0.6818
13884TIP3   OH263066   3.667   2.950   0.264  0.3076  0.3846  0.2266
13884TIP3    H163067   3.672   2.858   0.236  3.1313  0.1620  1.1245
13884TIP3    H263068   3.728   2.996   0.207 -0.9905  1.7342 -0.1320
13885TIP3   OH263069   1.848   4.536  14.106  0.0617  0.1751 -0.3224
13885TIP3    H163070   1.807   4.571  14.026  0.6990  0.3177 -0.5926
13885TIP3    H263071   1.776   4.531  14.169 -0.3278  0.6591 -0.7136
13886TIP3   OH263072   0.497   3.444   1.953  0.6460  0.4338  0.5646
13886TIP3    H163073   0.479   3.372   1.892  1.2163  1.1283 -0.4468
13886TIP3    H263074   0.432   3.433   2.023 -1.5473  0.9501 -1.3019
13887TIP3   OH263075   1.519   0.382  13.185  0.2848  0.3999 -0.4462
13887TIP3    H163076   1.429   0.407  13.164  0.2466  2.1892  1.4805
13887TIP3    H263077   1.551   0.453  13.241  1.1400 -2.5660  3.2440
13888TIP3   OH263078   3.485   4.097   5.318 -0.3724 -0.4889  0.2447
13888TIP3    H163079   3.418   4.157   5.284  0.3770  0.0981 -0.2503
13888TIP3    H263080   3.439   4.016   5.334 -1.2598 -0.0133  0.1587
13889TIP3   OH263081   5.758   4.217   4.964  0.0807  0.5330  0.1645
13889TIP3    H163082   5.832   4.162   4.989 -0.3654 -0.0998  0.1044
13889TIP3    H263083   5.798   4.297   4.931  0.7295  1.5554  3.0832
13890TIP3   OH263084   3.370   3.197   4.866  0.0666  0.6554  0.9582
13890TIP3    H163085   3.442   3.158   4.816  0.6050  1.0343  1.4353
13890TIP3    H263086   3.355   3.281   4.823  0.3845  0.8866  1.2998
13891TIP3   OH263087   1.111   6.295  14.545  0.0818 -0.0646 -0.3782
13891TIP3    H163088   1.046   6.229  14.521 -1.0292  0.9280 -0.1722
13891TIP3    H263089   1.162   6.254  14.615 -0.2150 -0.9030 -0.6397
13892TIP3   OH263090   6.672   4.668   2.533 -0.8105  0.2982 -0.2312
13892TIP3    H163091   6.651   4.744   2.478 -1.1788  1.1828  1.0960
13892TIP3    H263092   6.597   4.609   2.522 -0.5947  0.1708 -1.1408
13893TIP3   OH263093   1.674   4.701  17.006 -0.6757 -0.0337 -0.0673
13893TIP3    H163094   1.712   4.617  16.983 -0.4224 -0.2409  1.0173
13893TIP3    H263095   1.591   4.680  17.049 -0.0720  0.1735  1.2653
13894TIP3   OH263096   4.255   2.956   5.852 -0.0585  0.1729 -0.4587
13894TIP3    H163097   4.332   2.987   5.900  2.0816 -2.5175 -1.8434
13894TIP3    H263098   4.254   3.010   5.772 -0.0824  0.7500 -0.0729
13895TIP3   OH263099   1.323   0.842   5.243 -0.0422  0.3144 -0.3820
13895TIP3    H163100   1.332   0.933   5.217  0.4221  0.3932  0.0476
13895TIP3    H263101   1.391   0.828   5.309  1.3575 -0.9104 -1.9635
13896TIP3   OH263102   1.807   2.308   0.049 -0.3591 -0.0571 -0.4883
13896TIP3    H163103   1.764   2.230   0.015 -0.1819 -0.7892  0.8784
13896TIP3    H263104   1.876   2.328  -0.014 -0.3786 -1.0365 -0.8317
13897TIP3   OH263105   3.629   2.402   0.669 -0.3486 -0.0081 -0.1604
13897TIP3    H163106   3.712   2.368   0.703 -0.5102  0.2176  0.4666
13897TIP3    H263107   3.569   2.400   0.744 -1.3575 -1.5627 -0.9621
13898TIP3   OH263108   0.213   2.490  14.603 -0.1129  0.5120 -0.6092
13898TIP3    H163109   0.182   2.439  14.529 -1.6218  1.8845 -0.9682
13898TIP3    H263110   0.183   2.579  14.585  0.5805  1.1152  1.0450
13899TIP3   OH263111   3.525   5.116   5.420  0.1156  0.5075  0.2803
13899TIP3    H163112   3.565   5.038   5.383 -0.6346  0.0748  0.3604
13899TIP3    H263113   3.592   5.154   5.476  1.2097  1.0492 -1.3230
13900TIP3   OH263114   4.417   2.269  13.051  0.3034  0.8713  0.3385
13900TIP3    H163115   4.483   2.247  12.986  0.3629 -0.3976  0.7983
13900TIP3    H263116   4.357   2.329  13.006  0.0829 -0.3379 -1.0342
13901TIP3   OH263117   4.507   3.218   1.019 -0.6155  0.4587 -0.3411
13901TIP3    H163118   4.417   3.218   0.986 -0.9234 -3.6670 -0.0118
13901TIP3    H263119   4.499   3.194   1.111  0.8301  1.4945  0.1059
13902TIP3   OH263120   0.605   0.158   0.113  0.5231  0.4423  0.3766
13902TIP3    H163121   0.589   0.224   0.044  0.5209 -0.7683 -0.8225
13902TIP3    H263122   0.626   0.078   0.065  2.8457  0.1039  1.7957
13903TIP3   OH263123   0.045   1.462   5.385 -0.5427  0.1287 -0.2395
13903TIP3    H163124   0.017   1.437   5.297 -0.1847  2.2650 -1.0013
13903TIP3    H263125   0.061   1.378   5.429  1.1400 -1.0253 -2.7896
13904TIP3   OH263126   0.998   5.060  13.728 -1.0454  0.1715 -0.4261
13904TIP3    H163127   0.913   5.078  13.687  0.5010  0.3084 -3.9131
13904TIP3    H263128   1.046   5.142  13.720  0.1206 -0.4881 -0.3618
13905TIP3   OH263129   6.299   1.804  15.597  0.5226  0.1536  0.8071
13905TIP3    H163130   6.264   1.715  15.602  0.0161  0.3728  1.1781
13905TIP3    H263131   6.315   1.829  15.688  0.7898  0.3914  0.6957
13906TIP3   OH263132   3.174   4.764  11.388  0.3325  0.1866 -0.2027
13906TIP3    H163133   3.087   4.743  11.354  0.4648 -0.4709 -0.1327
13906TIP3    H263134   3.171   4.737  11.480  0.8640 -0.5796 -0.4023
13907TIP3   OH263135   1.111   1.676  14.232 -0.1949 -0.6122  0.0629
13907TIP3    H163136   1.146   1.763  14.213 -1.1071 -0.5260 -1.3127
13907TIP3    H263137   1.083   1.681  14.324  0.1817  0.3947  0.1318
13908TIP3   OH263138   6.511   2.325  15.826  0.3076 -0.0295  0.0965
13908TIP3    H163139   6.597   2.355  15.797 -0.6049 -0.0734 -2.9955
13908TIP3    H263140   6.449   2.378  15.776 -1.5168 -0.1681  2.0586
13909TIP3   OH263141   2.950   1.730  13.397 -0.8743  0.3704 -0.2110
13909TIP3    H163142   2.970   1.824  13.392  1.6792 -0.0675  0.0907
13909TIP3    H263143   2.937   1.703  13.306  0.1246  0.7353 -0.4819
13910TIP3   OH263144   3.295   0.483   6.531  0.6375 -0.1009 -0.7703
13910TIP3    H163145   3.272   0.559   6.584  1.4470  0.1884 -0.8209
13910TIP3    H263146   3.372   0.446   6.575  0.0061 -1.1406 -0.5055
13911TIP3   OH263147   1.389   2.423   2.070 -0.1314  0.1542  0.6508
13911TIP3    H163148   1.460   2.424   2.006 -1.0852  2.3551 -0.4695
13911TIP3    H263149   1.325   2.361   2.034 -0.1573  0.5248  0.0426
13912TIP3   OH263150   2.609   1.373   3.293 -0.0525 -0.3546  0.1215
13912TIP3    H163151   2.610   1.453   3.241  0.9220 -0.0202  0.6381
13912TIP3    H263152   2.636   1.400   3.381  3.5253 -1.6558 -0.3887
13913TIP3   OH263153   4.640   1.406  14.890 -0.3521  0.0049 -0.0937
13913TIP3    H163154   4.625   1.400  14.795 -2.5130 -0.1730  0.2052
13913TIP3    H263155   4.712   1.345  14.907 -1.2374 -1.4509 -1.3705
13914TIP3   OH263156   3.041   5.400  14.660  0.0223  0.4569 -0.3117
13914TIP3    H163157   3.047   5.311  14.695  0.4936  0.2288 -0.9384
13914TIP3    H263158   3.049   5.457  14.736  1.2866 -0.0172 -0.0570
13915TIP3   OH263159   0.801   6.213  15.895  0.4531  0.6062 -0.2057
13915TIP3    H163160   0.801   6.223  15.799 -2.1913 -1.0091 -0.4588
13915TIP3    H263161   0.828   6.299  15.927 -0.7393  1.9083 -2.4042
13916TIP3   OH263162   0.229   0.305   3.998 -0.3483 -0.7075  0.4265
13916TIP3    H163163   0.253   0.283   4.088 -1.7186  1.0957  1.2918
13916TIP3    H263164   0.265   0.393   3.984 -1.5479 -0.3006 -0.2068
13917TIP3   OH263165   2.717   4.495  13.150  0.0603  0.0383  0.4586
13917TIP3    H163166   2.788   4.557  13.132  0.4530 -0.3642  0.6040
13917TIP3    H263167   2.666   4.536  13.220  0.0409  0.4138  0.2272
13918TIP3   OH263168   2.210   1.993   3.114 -0.4154 -0.1011 -0.2805
13918TIP3    H163169   2.121   1.958   3.119 -1.1618  1.8514  2.4326
13918TIP3    H263170   2.215   2.033   3.028 -1.5679 -1.6290 -1.1130
13919TIP3   OH263171   5.019   3.793   3.760 -0.0577  0.6540 -0.2052
13919TIP3    H163172   4.939   3.790   3.812 -0.8455  1.9430 -1.2696
13919TIP3    H263173   4.997   3.849   3.685  1.6467  0.5123 -0.8610
13920TIP3   OH263174   2.494   2.414  16.803  0.0003 -0.4475  0.2320
13920TIP3    H163175   2.571   2.362  16.828 -1.1648 -2.9669 -1.0399
13920TIP3    H263176   2.467   2.455  16.885  0.7684 -2.2219  1.4556
13921TIP3   OH263177   4.797   5.931  12.868  0.1550  0.0959  0.3471
13921TIP3    H163178   4.762   5.914  12.956  0.6243  0.2217  0.5647
13921TIP3    H263179   4.851   6.009  12.879  2.2334 -1.2909  0.5115
13922TIP3   OH263180   5.221   1.444  16.297 -0.8034  0.0175  0.3479
13922TIP3    H163181   5.245   1.536  16.290 -1.6277  0.3450  1.5117
13922TIP3    H263182   5.215   1.413  16.206  0.0537  0.9445 -0.0402
13923TIP3   OH263183   1.350   6.188  13.168  0.1907 -0.4872 -0.5706
13923TIP3    H163184   1.317   6.168  13.255  0.7493  2.1085  0.3127
13923TIP3    H263185   1.432   6.234  13.182  0.8771 -1.0079 -2.5164
13924TIP3   OH263186   1.580   1.260  13.488  0.0655 -0.0145  0.2107
13924TIP3    H163187   1.657   1.224  13.445 -1.4938 -1.2467 -1.7287
13924TIP3    H263188   1.555   1.192  13.552 -1.3612 -1.3011 -1.6174
13925TIP3   OH263189   0.721   4.002   0.741 -0.1522 -0.3155 -0.3248
13925TIP3    H163190   0.761   3.928   0.696 -1.0696 -1.2508  0.3643
13925TIP3    H263191   0.783   4.074   0.729  0.5411 -1.0691 -1.3853
13926TIP3   OH263192   2.503   1.868  12.415 -0.1141 -0.2430 -0.1466
13926TIP3    H163193   2.512   1.805  12.343  0.1335  0.1691 -0.4828
13926TIP3    H263194   2.441   1.828  12.475 -0.0484 -0.7543 -0.4192
13927TIP3   OH263195   0.278   2.470  16.750 -0.3459 -0.8721 -0.5085
13927TIP3    H163196   0.341   2.509  16.690  0.5589  0.0393  0.9756
13927TIP3    H263197   0.313   2.383  16.769  0.4853 -0.3598  0.3279
13928TIP3   OH263198   1.849   6.368  14.976  0.3999 -0.0857  0.7767
13928TIP3    H163199   1.788   6.414  15.033 -0.1595  0.7639 -0.4683
13928TIP3    H263200   1.924   6.428  14.968 -1.0888  1.5932 -2.3117
13929TIP3   OH263201   3.749   2.158  17.071 -0.4305  0.4828 -0.3106
13929TIP3    H163202   3.826   2.145  17.126 -1.5175  3.3259  2.1424
13929TIP3    H263203   3.685   2.094  17.102  0.2981 -0.7265 -1.2038
13930TIP3   OH263204   3.989   6.617  11.650  0.3445 -0.4775 -0.2490
13930TIP3    H163205   3.980   6.533  11.694  2.9685 -0.8141 -0.1930
13930TIP3    H263206   3.973   6.598  11.557 -1.3344 -0.5472  0.0381
13931TIP3   OH263207   1.620   6.656   4.997 -0.0655  0.3426 -0.3624
13931TIP3    H163208   1.708   6.632   4.966 -0.1050  0.0927 -0.2775
13931TIP3    H263209   1.631   6.744   5.032 -0.5206  1.7354 -3.3955
13932TIP3   OH263210   5.183   1.938  15.094 -0.0087  0.1009 -0.3187
13932TIP3    H163211   5.205   1.863  15.040 -2.0123 -1.3323  0.7333
13932TIP3    H263212   5.227   1.921  15.178  0.1903  0.5179 -0.3354
13933TIP3   OH263213   4.360   3.798   2.860  0.0062  0.0856 -0.0078
13933TIP3    H163214   4.435   3.797   2.801 -0.6748 -0.9137 -0.9133
13933TIP3    H263215   4.287   3.769   2.805 -0.3530 -2.5987  1.7054
13934TIP3   OH263216   1.427   4.738  15.641  0.6271 -0.1358  0.1157
13934TIP3    H163217   1.424   4.819  15.692  2.7100 -0.2293  0.4980
13934TIP3    H263218   1.505   4.748  15.587 -0.5785 -0.7862 -1.8318
13935TIP3   OH263219   4.693   1.066   4.322 -0.4954  0.0035  0.1588
13935TIP3    H163220   4.677   1.136   4.258  0.3815  0.6344  0.6097
13935TIP3    H263221   4.787   1.066   4.335 -0.5850 -0.6141  0.9089
13936TIP3   OH263222   3.034   3.256   5.149  0.3321 -0.4776  0.2401
13936TIP3    H163223   3.127   3.278   5.158  0.5115 -0.7589 -0.7566
13936TIP3    H263224   2.999   3.262   5.237  0.0359  4.9437  0.0382
13937TIP3   OH263225   1.696   0.147  16.762 -0.4682  0.0917  0.6052
13937TIP3    H163226   1.750   0.216  16.801  2.3713 -0.1153 -2.5258
13937TIP3    H263227   1.758   0.079  16.737 -2.3553 -0.8557 -1.8809
13938TIP3   OH263228   5.501   3.977   2.932 -0.9993  0.1424  0.6838
13938TIP3    H163229   5.429   4.040   2.933  0.9171  2.5809 -1.9645
13938TIP3    H263230   5.574   4.023   2.973  0.8964  0.4592 -2.6848
13939TIP3   OH263231   3.491   6.102   3.761 -0.2402 -0.1432  0.1434
13939TIP3    H163232   3.517   6.174   3.819  1.2019  0.1799 -0.8815
13939TIP3    H263233   3.548   6.110   3.685 -0.2240 -2.2263 -0.1085
13940TIP3   OH263234   4.722   1.201  12.099 -0.0567 -0.0807  0.1222
13940TIP3    H163235   4.667   1.278  12.084  1.2225  0.6105 -1.3622
13940TIP3    H263236   4.723   1.191  12.194 -1.3558  0.8972  0.2720
13941TIP3   OH263237   0.708   3.769  15.907  0.2305 -0.0521 -0.0402
13941TIP3    H163238   0.777   3.715  15.868 -1.9069 -1.6825 -1.8922
13941TIP3    H263239   0.712   3.852  15.860 -0.9982 -1.2776 -2.4812
13942TIP3   OH263240   3.319   1.478   0.349  0.3289  0.7563  0.0765
13942TIP3    H163241   3.228   1.449   0.343  0.4802  0.3574 -0.3210
13942TIP3    H263242   3.327   1.511   0.439  0.4180 -1.3913  0.9095
13943TIP3   OH263243   2.299   2.615   2.704 -0.1236  0.5599 -0.3634
13943TIP3    H163244   2.342   2.615   2.789 -1.4416 -0.7759  0.3483
13943TIP3    H263245   2.341   2.686   2.656  2.5997 -0.4298  0.3863
13944TIP3   OH263246   3.331   4.198   2.917 -0.0273  0.0357 -0.1943
13944TIP3    H163247   3.293   4.136   2.855 -1.3653  0.2671  0.3566
13944TIP3    H263248   3.272   4.273   2.916 -0.8578 -0.4925  2.3196
13945TIP3   OH263249   2.854   4.196   2.595 -0.2299  0.0157  0.3144
13945TIP3    H163250   2.920   4.166   2.531 -0.0582  1.2807 -0.1229
13945TIP3    H263251   2.778   4.140   2.577  0.4657 -0.9882  0.3506
13946TIP3   OH263252   3.035   0.973  14.227  0.2220  0.0205 -0.0946
13946TIP3    H163253   3.015   0.971  14.320 -1.9048 -0.8353 -0.5093
13946TIP3    H263254   3.083   1.054  14.214 -0.3223  0.6495  1.5940
13947TIP3   OH263255   5.432   1.866   5.078 -0.4797  0.1285 -0.4885
13947TIP3    H163256   5.422   1.776   5.107  2.5733  0.0727  0.7006
13947TIP3    H263257   5.523   1.874   5.051 -0.2990  3.1284  0.5454
13948TIP3   OH263258   3.810   2.555   1.338  0.5780  0.4239  0.0276
13948TIP3    H163259   3.742   2.508   1.291  0.3985  1.0947 -0.3947
13948TIP3    H263260   3.853   2.608   1.272 -0.1745  1.9621  0.7195
13949TIP3   OH263261   1.151   3.408  14.979 -0.5994 -0.0060 -0.0676
13949TIP3    H163262   1.075   3.354  14.961 -0.8544  0.4615 -0.4166
13949TIP3    H263263   1.125   3.462  15.053  0.1065 -1.2456  1.1361
13950TIP3   OH263264   3.171   5.009   1.576  0.1687  0.3123  0.2072
13950TIP3    H163265   3.115   5.078   1.612  0.8178  0.9317  0.0533
13950TIP3    H263266   3.121   4.928   1.591  0.4343  0.5060  2.6217
13951TIP3   OH263267   0.520   2.550  14.908  0.1558  0.0670  0.3302
13951TIP3    H163268   0.488   2.602  14.834 -0.9991  0.1965  0.9024
13951TIP3    H263269   0.509   2.459  14.879 -2.7091  0.0213  1.2244
13952TIP3   OH263270   2.849   1.214   4.671  0.0179  0.0867 -0.1833
13952TIP3    H163271   2.794   1.138   4.686 -1.1864  1.0780  0.6449
13952TIP3    H263272   2.792   1.277   4.627  0.9702  0.5398 -0.8105
13953TIP3   OH263273   5.905   3.432   4.206  0.1010  0.4887  0.6362
13953TIP3    H163274   5.939   3.429   4.117 -1.0336  1.1189  0.1607
13953TIP3    H263275   5.966   3.378   4.257  1.5453  1.2336 -0.2365
13954TIP3   OH263276   2.115   1.095   3.078  0.2185 -0.2072 -0.1611
13954TIP3    H163277   2.045   1.034   3.100 -0.2707  0.1548 -0.6912
13954TIP3    H263278   2.071   1.179   3.062  0.8122  0.1302 -0.0829
13955TIP3   OH263279   5.366   2.457  14.791 -0.1088 -0.2453  0.3044
13955TIP3    H163280   5.348   2.423  14.703  0.0176  1.9190 -0.6121
13955TIP3    H263281   5.448   2.416  14.817  0.7128  0.3289 -1.2997
13956TIP3   OH263282   6.531   2.502  16.531  0.1055  0.1923 -0.3545
13956TIP3    H163283   6.557   2.574  16.473 -1.8583 -0.7286 -2.5617
13956TIP3    H263284   6.562   2.424  16.486 -0.3469 -0.4862  0.4921
13957TIP3   OH263285   4.183   6.686  12.675  0.1013 -0.2228  0.0885
13957TIP3    H163286   4.098   6.698  12.716  0.0789 -0.1771  0.0290
13957TIP3    H263287   4.199   6.768  12.628 -0.9367 -1.0904 -1.9311
13958TIP3   OH263288   0.871   3.982  16.559 -0.0505 -0.6811  0.4262
13958TIP3    H163289   0.960   3.977  16.593 -0.0253 -0.3416  0.4124
13958TIP3    H263290   0.817   3.942  16.628  0.0234 -0.1565  0.7956
13959TIP3   OH263291   4.777   6.260   5.820  0.1817  0.0966  0.1930
13959TIP3    H163292   4.779   6.327   5.889 -1.3019 -0.0992  0.4565
13959TIP3    H263293   4.707   6.201   5.847  0.5497 -0.7858 -0.7596
13960TIP3   OH263294   2.327   3.731  14.677  0.1955  0.1186  0.4505
13960TIP3    H163295   2.399   3.695  14.729 -0.1417 -1.5654 -0.1829
13960TIP3    H263296   2.352   3.717  14.586 -0.3472  0.7341  0.1892
13961TIP3   OH263297   0.370   5.523   4.282  0.3399 -0.8026 -0.1371
13961TIP3    H163298   0.316   5.587   4.235  0.2940  1.1793  2.3713
13961TIP3    H263299   0.308   5.470   4.331  0.5171  0.1852  1.2121
13962TIP3   OH263300   4.154   3.718   5.921 -0.6095 -0.6100 -0.9266
13962TIP3    H163301   4.241   3.678   5.915 -0.1629 -0.6089  2.9543
13962TIP3    H263302   4.172   3.812   5.916 -0.3945 -0.6176 -0.3849
13963TIP3   OH263303   2.606   6.094  17.291  0.4415  0.0044 -0.2959
13963TIP3    H163304   2.638   6.168  17.343  1.7029  0.2140 -1.3258
13963TIP3    H263305   2.558   6.135  17.219  0.0171 -0.2267 -0.1433
13964TIP3   OH263306   1.626   1.397   2.796  0.2646 -0.4049 -0.9294
13964TIP3    H163307   1.716   1.428   2.782  0.5191 -0.6416  0.1210
13964TIP3    H263308   1.584   1.409   2.711  0.1980  3.2150 -0.5209
13965TIP3   OH263309   3.767   0.356  16.839 -0.7687 -0.0777  0.6215
13965TIP3    H163310   3.697   0.406  16.882 -0.7519  0.7344 -0.2571
13965TIP3    H263311   3.847   0.406  16.857 -0.9433  1.0830 -1.4697
13966TIP3   OH263312   3.120   3.424  16.535 -0.6294 -0.1864  0.0282
13966TIP3    H163313   3.177   3.349  16.518  0.3460  0.0450  2.0158
13966TIP3    H263314   3.106   3.464  16.449  2.0191 -0.3926 -0.5740
13967TIP3   OH263315   0.817   3.986   3.463  0.4534  0.3295  0.5078
13967TIP3    H163316   0.852   3.999   3.375  1.0542 -0.3410  0.6399
13967TIP3    H263317   0.874   4.038   3.520 -0.4408  1.4375  0.4171
13968TIP3   OH263318   5.678   3.311  13.616  0.0743  0.6648  0.0823
13968TIP3    H163319   5.606   3.253  13.593 -0.1194  0.1286  1.8491
13968TIP3    H263320   5.757   3.262  13.595 -0.0927 -0.0796  1.1046
13969TIP3   OH263321   6.195   4.721  11.037  0.2066  0.2610  0.0640
13969TIP3    H163322   6.205   4.816  11.038  2.2480  0.1196  2.0552
13969TIP3    H263323   6.239   4.693  10.956  1.5770  0.8989  0.5577
13970TIP3   OH263324   3.083   0.287  13.453  0.2112  0.0194  0.0670
13970TIP3    H163325   3.141   0.276  13.529  2.0096 -0.9735 -1.3526
13970TIP3    H263326   3.042   0.201  13.442 -1.5816  0.7043  1.0352
13971TIP3   OH263327   2.609   0.566  11.896 -0.0425 -0.8847 -0.0666
13971TIP3    H163328   2.620   0.523  11.810  0.2761 -1.1218  0.0890
13971TIP3    H263329   2.589   0.494  11.956 -1.5243 -0.5792 -0.1551
13972TIP3   OH263330   2.302   4.462  14.006 -0.6611 -0.3443 -0.0569
13972TIP3    H163331   2.210   4.477  13.983 -0.6025  0.4462  0.1862
13972TIP3    H263332   2.300   4.403  14.081 -1.0235  0.7022  0.7679
13973TIP3   OH263333   1.001   1.036   3.051 -0.5915  0.6414 -0.2392
13973TIP3    H163334   0.907   1.036   3.032 -0.1804  2.5305 -2.7836
13973TIP3    H263335   1.032   1.121   3.019  2.3270 -0.7135 -1.3519
13974TIP3   OH263336   1.450   4.987  11.924  0.5039  0.3526  0.3212
13974TIP3    H163337   1.501   5.057  11.965  0.8865 -0.6137  1.5503
13974TIP3    H263338   1.501   4.908  11.941 -0.4988 -0.3856 -0.0339
13975TIP3   OH263339   3.994   0.546   2.677  0.5878 -0.3268 -0.0941
13975TIP3    H163340   3.936   0.480   2.714  0.6134 -0.2519  0.0819
13975TIP3    H263341   3.961   0.560   2.588 -0.0039  0.1118  0.1870
13976TIP3   OH263342   3.763   6.332   5.005  0.0846 -0.4254  0.0094
13976TIP3    H163343   3.696   6.295   5.063  0.4631 -0.8198  0.1951
13976TIP3    H263344   3.836   6.271   5.010  0.7365  0.3788  0.3541
13977TIP3   OH263345   3.158   6.452  16.116 -0.0377 -0.9399  0.6522
13977TIP3    H163346   3.221   6.509  16.072  0.7567 -2.2352  0.0444
13977TIP3    H263347   3.192   6.364  16.103 -0.2709 -1.4611  3.1082
13978TIP3   OH263348   6.518   3.328  14.063  0.3022  0.0961  0.3009
13978TIP3    H163349   6.473   3.408  14.090  0.4727  0.8406 -1.4833
13978TIP3    H263350   6.491   3.316  13.972  2.3876 -0.3706 -0.2869
13979TIP3   OH263351   1.136   1.639   4.224 -0.1568  0.1963  0.2564
13979TIP3    H163352   1.139   1.723   4.269  0.9404 -0.7724  2.1289
13979TIP3    H263353   1.043   1.618   4.217 -0.5488  2.2353 -1.6765
13980TIP3   OH263354   2.102   4.020   0.942  0.2503 -0.3251 -0.0007
13980TIP3    H163355   2.099   3.927   0.918  1.3847 -0.3294 -0.2071
13980TIP3    H263356   2.011   4.048   0.942 -0.1430 -1.5329  0.4336
13981TIP3   OH263357   1.682   4.709  11.672  0.2209  0.3690  0.0998
13981TIP3    H163358   1.695   4.695  11.578 -0.7236 -0.6690  0.1034
13981TIP3    H263359   1.684   4.804  11.682  1.0905  0.4770 -0.8438
13982TIP3   OH263360   3.839   4.908  16.253 -0.0626 -0.2775 -0.2139
13982TIP3    H163361   3.871   4.840  16.193 -0.3498 -1.3186  0.7851
13982TIP3    H263362   3.808   4.978  16.195  0.9558 -0.6564 -1.2530
13983TIP3   OH263363   1.178   4.882  12.800  0.7550  0.1041  0.4979
13983TIP3    H163364   1.159   4.801  12.753  2.4356 -0.4373  0.6527
13983TIP3    H263365   1.183   4.949  12.732  0.1014 -0.0730  0.2777
13984TIP3   OH263366   1.715   2.657  14.531  0.4037 -0.1102  0.6534
13984TIP3    H163367   1.653   2.626  14.597  0.4601 -0.6703  0.4510
13984TIP3    H263368   1.748   2.577  14.491  0.0734  0.2392 -0.3288
13985TIP3   OH263369   3.938   1.191   4.803  0.3466 -0.4436 -0.0944
13985TIP3    H163370   3.847   1.215   4.821  0.1921 -0.2630 -1.0512
13985TIP3    H263371   3.938   1.167   4.710  1.1410 -1.1188  0.0720
13986TIP3   OH263372   2.606   4.213   1.424  0.9023 -0.0855 -0.4916
13986TIP3    H163373   2.614   4.309   1.421  0.7306  0.0647  1.8392
13986TIP3    H263374   2.678   4.185   1.481 -1.2951 -0.8884  2.1085
13987TIP3   OH263375   3.480   6.440  16.731  0.3007  0.1974  0.2166
13987TIP3    H163376   3.528   6.481  16.658 -0.6263  1.2868  0.2045
13987TIP3    H263377   3.545   6.431  16.800  1.1010 -0.4923 -0.5899
13988TIP3   OH263378   5.291   3.210   1.712 -0.1174 -0.4938 -0.4115
13988TIP3    H163379   5.200   3.237   1.726  0.0802 -0.2949  0.6260
13988TIP3    H263380   5.342   3.275   1.760  0.6947  0.3836 -2.3584
13989TIP3   OH263381   1.390   1.875  17.105  0.2452 -0.2929 -0.1405
13989TIP3    H163382   1.316   1.934  17.091  1.0330  0.7109 -0.1564
13989TIP3    H263383   1.436   1.875  17.021 -0.0645 -1.4036 -0.3234
13990TIP3   OH263384   0.353   6.426  15.388  0.1634  0.0994 -0.1381
13990TIP3    H163385   0.270   6.431  15.436 -0.4524 -1.8076 -0.8881
13990TIP3    H263386   0.348   6.498  15.324 -0.7065  0.2929  0.1291
13991TIP3   OH263387   6.077   0.341  12.335  0.3095  0.6256 -0.4456
13991TIP3    H163388   6.055   0.434  12.326  0.5930  0.7583  0.1920
13991TIP3    H263389   6.020   0.297  12.272 -0.9416  1.0681  0.3397
13992TIP3   OH263390   5.341   0.701   2.372  0.0545 -0.1466 -0.4914
13992TIP3    H163391   5.376   0.788   2.393  1.7273 -0.6226 -1.1453
13992TIP3    H263392   5.418   0.649   2.350 -0.8435 -1.9961  0.5027
13993TIP3   OH263393   5.913   2.526  14.056 -0.1079 -0.1651 -0.6895
13993TIP3    H163394   5.855   2.573  14.116  1.8934  4.3860 -1.9085
13993TIP3    H263395   5.988   2.502  14.109 -1.4144 -2.8907  0.0903
13994TIP3   OH263396   2.347   0.462   2.656 -0.2663  0.1018  0.2699
13994TIP3    H163397   2.283   0.391   2.652 -0.6555  0.4152  0.9424
13994TIP3    H263398   2.400   0.442   2.733 -0.4554  0.6048  0.5315
13995TIP3   OH263399   1.286   4.390   1.474 -0.3071 -0.2293 -0.2565
13995TIP3    H163400   1.317   4.434   1.553 -1.8467 -1.5061  1.1336
13995TIP3    H263401   1.318   4.300   1.482  0.5941 -0.0867 -1.7600
13996TIP3   OH263402   4.617   2.308  15.283  0.1246  0.1321  0.3401
13996TIP3    H163403   4.663   2.381  15.324 -0.4390  1.0800 -0.6548
13996TIP3    H263404   4.646   2.309  15.192 -0.8794 -0.0462 -0.0002
13997TIP3   OH263405   2.666   6.544   1.519  0.1150  0.0489  0.3841
13997TIP3    H163406   2.577   6.563   1.548 -0.2461  1.3915 -1.4058
13997TIP3    H263407   2.674   6.590   1.435  1.7753 -1.7923 -0.5637
13998TIP3   OH263408   1.681   2.610  13.135 -0.1695 -0.8264  0.0041
13998TIP3    H163409   1.635   2.594  13.218 -0.6664  0.1234 -0.0629
13998TIP3    H263410   1.641   2.691  13.102  0.1286 -1.1106 -1.0899
13999TIP3   OH263411   1.806   6.646  11.699  0.0514 -0.2846  0.7550
13999TIP3    H163412   1.819   6.624  11.607  0.3280  0.2000  0.6736
13999TIP3    H263413   1.714   6.675  11.704  0.3325  0.7088  0.4148
14000TIP3   OH263414   3.035   1.013   5.837 -0.0707  0.2054 -0.3753
14000TIP3    H163415   3.101   0.953   5.805  0.3858  1.1609 -1.2960
14000TIP3    H263416   2.954   0.962   5.840  0.4756 -0.6620 -0.3230
14001TIP3   OH263417   4.020   3.153   1.698  0.5350 -0.2863  0.2468
14001TIP3    H163418   4.061   3.203   1.769  0.0261 -0.3872  0.6216
14001TIP3    H263419   4.021   3.063   1.729 -0.9532 -0.1591  0.7744
14002TIP3   OH263420   4.664   3.509  13.938 -0.1063 -0.0326 -0.5255
14002TIP3    H163421   4.580   3.518  13.893 -1.5474 -0.7173  1.8229
14002TIP3    H263422   4.720   3.461  13.877 -1.2327  0.8575 -2.3433
14003TIP3   OH263423   3.502   5.575   6.131 -0.1616 -0.6312  0.4311
14003TIP3    H163424   3.453   5.516   6.187  0.2831 -0.9270  0.5135
14003TIP3    H263425   3.449   5.582   6.051 -1.4246  0.7646  1.3288
14004TIP3   OH263426   6.746   4.362   0.857 -0.7168  0.1611 -0.1934
14004TIP3    H163427   6.791   4.429   0.806 -0.3455  0.9822  1.1883
14004TIP3    H263428   6.794   4.281   0.838 -0.1869  0.5794 -0.6366
14005TIP3   OH263429   0.815   6.584  11.242  0.2836 -0.3641 -0.1598
14005TIP3    H163430   0.869   6.513  11.276  0.2471 -0.1546  0.3391
14005TIP3    H263431   0.865   6.664  11.259 -0.5641 -0.0841  1.1089
14006TIP3   OH263432   1.437   4.900   5.001 -0.1189 -0.4544 -0.2262
14006TIP3    H163433   1.482   4.816   5.001 -0.7704 -0.8141  0.2844
14006TIP3    H263434   1.451   4.935   4.913 -0.2272 -1.3055 -0.5948
14007TIP3   OH263435   0.770   2.535  13.474  0.2870  0.7532 -0.2637
14007TIP3    H163436   0.715   2.559  13.400  0.6961  0.3425 -0.7101
14007TIP3    H263437   0.768   2.612  13.531 -3.3093 -0.3223  1.3366
14008TIP3   OH263438   6.708   1.193   1.838 -0.5095 -0.0632 -0.8511
14008TIP3    H163439   6.791   1.220   1.876 -0.5286 -0.0783 -0.7990
14008TIP3    H263440   6.723   1.102   1.810 -0.2564  0.2052 -1.5846
14009TIP3   OH263441   2.251   4.026  16.298  0.0537 -0.0576 -0.1362
14009TIP3    H163442   2.218   4.052  16.384 -0.2765  0.8561 -0.5235
14009TIP3    H263443   2.343   4.005  16.313 -0.1346 -0.4162  0.5325
14010TIP3   OH263444   4.160   4.663   0.026  0.2210 -0.4689  0.4199
14010TIP3    H163445   4.234   4.604   0.045  0.9778 -0.3974 -2.0227
14010TIP3    H263446   4.146   4.654  -0.068  0.1394  3.0212 -0.0046
14011TIP3   OH263447   3.819   0.823   4.472 -0.1606  0.1710 -0.1903
14011TIP3    H163448   3.812   0.802   4.565  1.8932 -1.3740 -0.3202
14011TIP3    H263449   3.802   0.740   4.427 -0.8194  0.8344 -1.2049
14012TIP3   OH263450   2.817   1.245   0.894 -0.0494  0.1587  0.3681
14012TIP3    H163451   2.905   1.221   0.921 -0.2539  0.8857  1.8214
14012TIP3    H263452   2.784   1.168   0.847  1.2850 -0.1780 -0.0500
14013TIP3   OH263453   6.753   4.145  11.520  1.3014  0.3447  0.3230
14013TIP3    H163454   6.827   4.124  11.463 -0.1408 -0.6868 -1.3011
14013TIP3    H263455   6.681   4.162  11.459  0.0243  0.6139  1.8466
14014TIP3   OH263456   1.999   5.254  16.447 -0.7080  0.6052  0.3013
14014TIP3    H163457   2.016   5.305  16.368  1.4487 -0.1878  0.2098
14014TIP3    H263458   1.948   5.313  16.502  0.1840  2.2035 -0.5165
14015TIP3   OH263459   6.008   5.751  15.647  0.1461 -0.6265  0.2183
14015TIP3    H163460   5.928   5.752  15.699 -0.0168  3.0659  0.1719
14015TIP3    H263461   5.981   5.722  15.560 -0.9285 -0.4644  0.4907
14016TIP3   OH263462   6.157   1.309   3.002 -0.2712  0.2173  0.1835
14016TIP3    H163463   6.070   1.328   3.037 -0.6726 -0.0706 -0.6122
14016TIP3    H263464   6.187   1.233   3.052 -0.0516  0.9196  1.1332
14017TIP3   OH263465   5.453   3.825  12.835  0.4868 -0.2170  0.4045
14017TIP3    H163466   5.376   3.806  12.781  0.5092 -1.3510  0.7433
14017TIP3    H263467   5.429   3.795  12.923  0.3517  1.8419  1.1321
14018TIP3   OH263468   6.334   6.307  14.990  0.1397 -0.0442 -0.0995
14018TIP3    H163469   6.425   6.336  14.987  0.1498 -0.0347  0.2632
14018TIP3    H263470   6.331   6.245  15.063 -0.5022  1.2095  0.9965
14019TIP3   OH263471   0.000   2.218   5.790 -0.0393  0.0405 -0.1311
14019TIP3    H163472   0.024   2.143   5.844  1.1520  0.7344  0.3412
14019TIP3    H263473  -0.078   2.253   5.831 -1.6317 -1.8868 -1.3186
14020TIP3   OH263474   3.594   3.087  16.163 -0.3491 -0.0188 -0.1238
14020TIP3    H163475   3.582   2.994  16.183 -1.1039  0.1031  0.0421
14020TIP3    H263476   3.601   3.129  16.249  1.1508 -0.0466 -0.2103
14021TIP3   OH263477   1.276   2.217   2.333  0.6823  0.2741 -0.1109
14021TIP3    H163478   1.356   2.266   2.315 -0.1976  1.5803 -0.6311
14021TIP3    H263479   1.257   2.236   2.425  1.1859 -0.3860  0.1364
14022TIP3   OH263480   3.586   6.638   3.918 -0.7844  0.3295 -0.1771
14022TIP3    H163481   3.644   6.669   3.848 -0.5667 -1.7778 -1.0130
14022TIP3    H263482   3.499   6.671   3.894 -0.9302 -1.2812 -2.1502
14023TIP3   OH263483   1.039   4.141  15.099 -0.0102  0.1877 -0.1517
14023TIP3    H163484   0.968   4.202  15.116  0.3882  0.4420  0.6079
14023TIP3    H263485   1.110   4.195  15.064 -0.3487 -0.1383 -1.4095
14024TIP3   OH263486   1.275   4.659  13.315 -0.0223  0.0850 -0.3905
14024TIP3    H163487   1.182   4.668  13.294  0.0223 -0.8802 -1.0848
14024TIP3    H263488   1.279   4.669  13.410 -0.6240  1.6478 -0.4994
14025TIP3   OH263489   0.284   3.967  12.689  0.8655  0.3413 -0.0498
14025TIP3    H163490   0.209   3.998  12.739 -0.4252  1.8164 -2.7143
14025TIP3    H263491   0.358   4.021  12.719  0.2935  0.7177  0.7082
14026TIP3   OH263492   1.994   6.444   2.875 -0.5608  0.1286  0.8084
14026TIP3    H163493   2.016   6.364   2.829 -0.0183 -0.2852  1.7526
14026TIP3    H263494   1.942   6.415   2.950 -1.8748  0.8327  0.2015
14027TIP3   OH263495   0.931   6.275  12.898  0.4037 -0.3547  0.0054
14027TIP3    H163496   0.975   6.353  12.863 -0.0320 -0.4036 -0.6725
14027TIP3    H263497   0.937   6.211  12.827  2.2067 -1.5226  1.1507
14028TIP3   OH263498   2.658   3.582   4.665  0.3381 -0.0167 -0.2819
14028TIP3    H163499   2.739   3.612   4.707  0.4007  0.4744 -0.7453
14028TIP3    H263500   2.590   3.639   4.701 -0.0041 -1.1865  1.0011
14029TIP3   OH263501   0.402   0.272  17.062 -0.1438 -0.4409  0.0441
14029TIP3    H163502   0.436   0.311  17.143  2.5324 -1.6891 -0.3749
14029TIP3    H263503   0.463   0.202  17.042 -0.4896  0.0832 -3.3078
14030TIP3   OH263504   3.953   2.291  14.661  0.3073  0.3794 -0.0754
14030TIP3    H163505   3.938   2.215  14.605  0.8028 -1.0813  1.6808
14030TIP3    H263506   4.017   2.344  14.613 -1.4242  0.7221 -2.1891
14031TIP3   OH263507   4.456   3.078  15.628 -0.2307 -0.5646  0.0865
14031TIP3    H163508   4.487   3.167  15.647 -0.9652 -0.1767 -0.4781
14031TIP3    H263509   4.524   3.040  15.574  0.2454 -0.4615  0.6057
14032TIP3   OH263510   0.833   5.023   5.584  0.0478 -0.1897 -0.3377
14032TIP3    H163511   0.896   5.040   5.514 -0.4739 -1.1735 -1.0655
14032TIP3    H263512   0.777   5.100   5.585  0.9342  0.4720 -0.0212
14033TIP3   OH263513   6.377   6.580  15.759  0.0742 -0.0053  0.3101
14033TIP3    H163514   6.370   6.492  15.721  1.6644 -0.5654  1.1975
14033TIP3    H263515   6.289   6.600  15.789 -0.4917 -0.9550 -0.6247
14034TIP3   OH263516   2.067   0.613   1.402  0.6130  0.5232 -1.0702
14034TIP3    H163517   2.101   0.699   1.379  0.9342  1.1566  1.4834
14034TIP3    H263518   1.972   0.622   1.394  0.6983  0.7096 -1.9960
14035TIP3   OH263519   4.838   5.816  15.185 -0.5342  0.3804  0.4924
14035TIP3    H163520   4.931   5.835  15.177 -0.8139  1.9797  0.7967
14035TIP3    H263521   4.835   5.737  15.240  0.6905 -1.0492 -1.3604
14036TIP3   OH263522   4.582   5.731   1.466  0.1515  0.4094 -0.3561
14036TIP3    H163523   4.637   5.775   1.530  0.7006 -1.7029  0.7169
14036TIP3    H263524   4.532   5.801   1.424  2.2954  2.2145 -0.0801
14037TIP3   OH263525   5.643   3.037  13.827  0.5098 -0.1161  0.0879
14037TIP3    H163526   5.672   3.122  13.860 -0.5733 -0.4710  2.1004
14037TIP3    H263527   5.681   2.974  13.888 -2.6632 -0.7208  1.6392
14038TIP3   OH263528   4.523   1.402   4.844  0.4386 -0.4628 -0.0598
14038TIP3    H163529   4.561   1.323   4.807  0.1795 -0.5248 -0.1908
14038TIP3    H263530   4.572   1.416   4.925  0.0406 -1.1243  0.3025
14039TIP3   OH263531   6.526   0.327   1.876  0.4876 -0.1946 -0.1116
14039TIP3    H163532   6.600   0.298   1.823  1.2951  0.0493  0.8550
14039TIP3    H263533   6.563   0.392   1.937 -0.5151 -0.0568  0.3827
14040TIP3   OH263534   1.631   3.484  14.550 -0.1704 -0.0890  0.0586
14040TIP3    H163535   1.561   3.419  14.559 -0.2015 -0.0064  0.4480
14040TIP3    H263536   1.672   3.487  14.637 -0.5988  0.8945  0.2351
14041TIP3   OH263537   6.382   4.843   5.238 -0.5392 -0.0441  0.0149
14041TIP3    H163538   6.352   4.757   5.268  0.8794 -0.2116  1.0556
14041TIP3    H263539   6.303   4.898   5.241 -0.9926 -0.7184  1.6124
14042TIP3   OH263540   6.268   4.002  17.191  0.7310  0.2411  0.1383
14042TIP3    H163541   6.309   3.920  17.216 -0.1057 -0.1760  0.1730
14042TIP3    H263542   6.317   4.069  17.238  1.7676 -0.1842 -0.3241
14043TIP3   OH263543   4.756   5.302   2.282 -0.2404  0.0594 -0.9217
14043TIP3    H163544   4.694   5.373   2.266  0.1076  0.6279  0.1290
14043TIP3    H263545   4.841   5.347   2.293  0.0549 -0.5531 -0.6610
14044TIP3   OH263546   2.587   0.997   5.786  0.4769 -0.4582 -0.2201
14044TIP3    H163547   2.577   0.982   5.880  0.2960  0.9924  0.0174
14044TIP3    H263548   2.681   1.006   5.773  0.6921 -2.8062 -0.5599
14045TIP3   OH263549   2.760   2.079  11.158 -0.0027  0.2004 -0.2173
14045TIP3    H163550   2.712   2.147  11.204 -0.7227  0.5489 -1.4346
14045TIP3    H263551   2.747   2.098  11.065  2.3757  0.2227 -0.6259
14046TIP3   OH263552   3.459   5.359  13.772  0.0128  0.0617 -0.9620
14046TIP3    H163553   3.466   5.284  13.713  1.5181 -1.0515  0.5672
14046TIP3    H263554   3.434   5.322  13.856  0.4955  1.3107 -0.2375
14047TIP3   OH263555   0.157   2.454   4.258 -0.2828 -0.1217  0.2454
14047TIP3    H163556   0.120   2.541   4.252  0.6411  0.2021 -1.6117
14047TIP3    H263557   0.098   2.399   4.206  0.7421  0.0429 -1.1654
14048TIP3   OH263558   6.052   2.008  17.327 -0.6080  0.0292  0.0879
14048TIP3    H163559   6.122   1.955  17.364 -1.5157 -1.2397  0.0369
14048TIP3    H263560   5.973   1.955  17.337 -1.1942  0.3963 -1.9989
14049TIP3   OH263561   5.359   5.947  14.983 -0.1104  0.6566  1.2576
14049TIP3    H163562   5.387   5.903  15.063 -1.0820 -0.8740  0.7960
14049TIP3    H263563   5.263   5.950  14.989 -0.2139  0.2798  0.0427
14050TIP3   OH263564   5.660   4.886   0.429  0.0544  0.4038 -0.3128
14050TIP3    H163565   5.702   4.887   0.343 -1.2333 -0.8663 -0.9965
14050TIP3    H263566   5.580   4.936   0.417 -0.5952 -0.5685 -0.1228
14051TIP3   OH263567   2.281   1.048  12.859 -0.2161  0.2984 -0.2022
14051TIP3    H163568   2.256   0.956  12.868 -0.7809  0.2821 -1.6003
14051TIP3    H263569   2.375   1.050  12.878 -0.6192 -0.1538  2.1029
14052TIP3   OH263570   0.071   0.026  11.726 -0.0604  0.4612 -0.0076
14052TIP3    H163571   0.015   0.084  11.675 -0.0059  0.4503 -0.0788
14052TIP3    H263572   0.038  -0.062  11.710 -0.6128  0.5307  0.6786
14053TIP3   OH263573   4.105   0.868  15.402 -0.6411 -0.0972 -0.2252
14053TIP3    H163574   4.174   0.803  15.419 -1.4987 -0.8190  0.5958
14053TIP3    H263575   4.140   0.922  15.331  0.9525 -0.1791  0.4523
14054TIP3   OH263576   5.999   0.466   2.754 -0.2631 -0.0916  0.3953
14054TIP3    H163577   5.905   0.455   2.744 -0.1911 -2.3546  1.5972
14054TIP3    H263578   6.034   0.376   2.757  1.7741  0.6609  1.2680
14055TIP3   OH263579   2.022   0.624   2.635  0.4162 -0.0832 -0.2242
14055TIP3    H163580   2.062   0.672   2.707 -0.0624 -0.5654  0.3767
14055TIP3    H263581   2.006   0.537   2.670  0.1384 -0.3138 -0.9023
14056TIP3   OH263582   5.745   5.115   4.943 -0.5944 -0.1466 -0.1120
14056TIP3    H163583   5.654   5.103   4.913 -0.3596  2.7388 -2.4462
14056TIP3    H263584   5.758   5.210   4.941  2.3828 -0.4566  0.6010
14057TIP3   OH263585   5.304   2.262   1.118  0.5640 -0.5850  0.1912
14057TIP3    H163586   5.300   2.354   1.144  0.2381 -0.5897  0.1600
14057TIP3    H263587   5.215   2.241   1.089  0.7875 -0.7393 -0.3925
14058TIP3   OH263588   3.142   3.246   1.117  0.3538 -0.1916 -0.1744
14058TIP3    H163589   3.052   3.279   1.106  0.4196 -0.0405 -0.2636
14058TIP3    H263590   3.156   3.246   1.212 -0.2710 -1.6433 -0.0511
14059TIP3   OH263591   5.154   4.190  16.138 -0.2403 -0.0217 -0.1398
14059TIP3    H163592   5.176   4.159  16.050  0.4679 -1.8698  0.6408
14059TIP3    H263593   5.230   4.241  16.165 -0.3251  0.2884 -0.4818
14060TIP3   OH263594   3.849   3.114  10.615 -0.2610 -0.3781  0.0341
14060TIP3    H163595   3.757   3.122  10.643 -0.6328 -0.1647 -1.1589
14060TIP3    H263596   3.864   3.192  10.562  0.1425 -1.1374 -1.0000
14061TIP3   OH263597   4.625   2.771   3.954 -0.0978 -0.7710  0.0838
14061TIP3    H163598   4.643   2.685   3.991 -1.5792 -1.0023  0.3356
14061TIP3    H263599   4.556   2.756   3.890  1.3832 -0.1301 -1.7559
14062TIP3   OH263600   5.215   3.211   0.420 -0.1285 -0.2963  0.3580
14062TIP3    H163601   5.121   3.191   0.428 -0.0591 -0.8809 -0.2234
14062TIP3    H263602   5.223   3.300   0.453 -0.9014 -0.2106  0.3423
14063TIP3   OH263603   6.775   3.702   2.996  0.3796 -0.0748  0.0831
14063TIP3    H163604   6.825   3.706   3.078  2.0302 -1.1924 -0.8216
14063TIP3    H263605   6.792   3.615   2.961 -1.5311 -0.1674 -0.7286
14064TIP3   OH263606   1.965   4.315   4.677  0.1187 -0.5476  1.3015
14064TIP3    H163607   2.047   4.267   4.662  0.4883  0.3192  0.4049
14064TIP3    H263608   1.990   4.407   4.672 -1.1584 -0.2434 -0.6142
14065TIP3   OH263609   1.860   2.225   0.715  0.7178 -0.6036 -0.0867
14065TIP3    H163610   1.802   2.247   0.643 -0.5291  0.0187  1.0627
14065TIP3    H263611   1.943   2.203   0.673  0.5335  1.3398 -1.6177
14066TIP3   OH263612   2.357   6.684  12.343 -0.3336  0.0167  0.5638
14066TIP3    H163613   2.352   6.643  12.257 -2.1397  0.5516  0.3653
14066TIP3    H263614   2.331   6.614  12.404  0.3460 -0.1854  0.6362
14067TIP3   OH263615   4.346   2.181   0.980  0.3885 -0.2610  0.5619
14067TIP3    H163616   4.376   2.164   1.069 -0.5452 -0.3596  0.8661
14067TIP3    H263617   4.394   2.118   0.926  0.1890 -0.9064  1.1281
14068TIP3   OH263618   4.648   2.860   6.135 -0.0270  0.8357 -1.0364
14068TIP3    H163619   4.604   2.775   6.122 -0.4185  0.7463  0.5720
14068TIP3    H263620   4.740   2.837   6.147 -0.5298  0.1259  2.9010
14069TIP3   OH263621   0.967   4.386  12.900  0.0036  0.6514 -0.3427
14069TIP3    H163622   0.982   4.330  12.824 -0.4842 -0.4051  0.3289
14069TIP3    H263623   0.936   4.327  12.968  0.5462  1.5722  0.7301
14070TIP3   OH263624   5.936   5.902   5.528 -0.2242 -0.2004 -0.0156
14070TIP3    H163625   5.842   5.883   5.532 -0.3334  0.4988  2.8208
14070TIP3    H263626   5.975   5.840   5.589  0.3020  3.4188  3.7133
14071TIP3   OH263627   0.951   4.436  14.384  0.1460  0.4767 -0.3519
14071TIP3    H163628   0.923   4.346  14.402 -2.9540  1.4708  0.3741
14071TIP3    H263629   0.993   4.431  14.298 -2.2296 -1.3369 -1.5428
14072TIP3   OH263630   5.164   3.621  11.562  0.3528 -0.3297 -0.8086
14072TIP3    H163631   5.117   3.561  11.620 -0.4816  2.2283  1.3140
14072TIP3    H263632   5.255   3.612  11.587  0.1584 -0.2614 -0.0551
14073TIP3   OH263633   2.743   1.335   5.941 -0.3204 -0.0043  0.4499
14073TIP3    H163634   2.820   1.281   5.929  0.6025  0.9734  1.6226
14073TIP3    H263635   2.670   1.273   5.945  0.5149 -1.0235  0.2961
14074TIP3   OH263636   5.515   2.738   2.571 -0.3793 -0.9245  0.2729
14074TIP3    H163637   5.564   2.752   2.652  1.1414 -0.0855 -0.7443
14074TIP3    H263638   5.437   2.689   2.598  0.3731 -1.1680  2.1440
14075TIP3   OH263639   1.601   1.864   2.286 -0.5396 -0.1206  0.1455
14075TIP3    H163640   1.519   1.885   2.240 -0.4115  0.6937  0.2836
14075TIP3    H263641   1.657   1.940   2.272 -0.0657 -0.3675  0.6661
14076TIP3   OH263642   3.545   0.091   4.681 -0.1953  0.1286 -0.0896
14076TIP3    H163643   3.593   0.101   4.763 -0.6358  0.6833  0.1107
14076TIP3    H263644   3.527  -0.003   4.675 -2.4980  0.3247  1.8416
14077TIP3   OH263645   2.929   1.225   5.083  0.3160 -0.3586 -0.2900
14077TIP3    H163646   2.887   1.142   5.060  1.0264 -0.7427 -0.2164
14077TIP3    H263647   2.861   1.291   5.069 -0.6555 -1.0753  0.8641
14078TIP3   OH263648   5.055   6.230  17.120  0.0007 -0.1851 -0.0592
14078TIP3    H163649   4.996   6.222  17.045  1.0416 -1.0263 -0.8210
14078TIP3    H263650   5.053   6.322  17.143  0.0497  0.1882 -1.4619
14079TIP3   OH263651   6.409   4.691   0.866 -0.2719  0.3798  0.0630
14079TIP3    H163652   6.447   4.612   0.905 -1.0382 -0.9021 -1.6246
14079TIP3    H263653   6.380   4.663   0.779 -1.4499  2.2943 -0.2254
14080TIP3   OH263654   5.082   1.625  16.946 -0.1750 -0.2109  0.4462
14080TIP3    H163655   5.125   1.679  16.880 -0.1817 -1.0425 -0.2577
14080TIP3    H263656   4.998   1.669  16.962  0.2361  0.5283  0.6418
14081TIP3   OH263657   5.656   4.683   6.102  0.3414  0.0035  0.3391
14081TIP3    H163658   5.674   4.733   6.182 -0.1883  0.0006  0.4637
14081TIP3    H263659   5.682   4.593   6.124 -0.2043 -0.0837  0.6630
14082TIP3   OH263660   6.661   5.050   0.395  0.1234 -0.1482 -0.0334
14082TIP3    H163661   6.659   5.135   0.438 -0.8074  0.2430 -0.8108
14082TIP3    H263662   6.572   5.037   0.363 -0.1028 -2.0065  1.1651
14083TIP3   OH263663   3.862   4.241  11.891 -0.1846 -0.3888 -0.5623
14083TIP3    H163664   3.931   4.201  11.837 -0.0947 -0.3548 -0.4737
14083TIP3    H263665   3.805   4.285  11.828 -0.1115 -0.3978 -0.6353
14084TIP3   OH263666   1.901   4.666  12.857 -0.0659  0.1019 -0.0657
14084TIP3    H163667   1.862   4.673  12.944  0.7561  0.2037  0.3102
14084TIP3    H263668   1.994   4.654  12.874  0.2253  0.9696 -0.9441
14085TIP3   OH263669   4.704   2.030   1.231 -0.0080  0.4311  0.2736
14085TIP3    H163670   4.749   2.113   1.244  0.8129 -0.0268  0.4586
14085TIP3    H263671   4.629   2.033   1.290  2.0826 -0.4670  3.2297
14086TIP3   OH263672   5.223   3.322  15.571 -0.3581  0.1772 -0.3279
14086TIP3    H163673   5.262   3.407  15.593  1.0402 -0.2036 -1.2125
14086TIP3    H263674   5.234   3.269  15.650  0.1333  0.3576 -0.2708
14087TIP3   OH263675   6.371   1.568  16.403  0.4803  0.3195 -0.3138
14087TIP3    H163676   6.303   1.585  16.468 -0.0498 -0.2823 -0.7077
14087TIP3    H263677   6.424   1.498  16.441 -0.7752 -1.1514 -1.2036
14088TIP3   OH263678   4.634   5.431  17.010  0.0945  0.0173  0.2869
14088TIP3    H163679   4.546   5.468  17.015  0.1957  0.2916 -0.0023
14088TIP3    H263680   4.628   5.349  17.060 -0.6298 -0.5515 -0.7022
14089TIP3   OH263681   4.631   1.455   3.459  0.1091  0.1339 -0.1327
14089TIP3    H163682   4.540   1.428   3.446  0.1454  0.6024 -1.4425
14089TIP3    H263683   4.654   1.420   3.545 -0.9072 -1.0808 -0.3277
14090TIP3   OH263684   3.373   0.628  17.207 -0.6466  0.2549  0.0960
14090TIP3    H163685   3.335   0.597  17.126 -0.0516 -1.5783  0.4755
14090TIP3    H263686   3.305   0.613  17.273 -0.1361 -0.9073  0.3860
14091TIP3   OH263687   1.704   3.766  14.170 -0.2113 -0.0187  0.4386
14091TIP3    H163688   1.677   3.679  14.198  1.5474 -0.5999  0.4384
14091TIP3    H263689   1.763   3.797  14.239  1.2716  0.0502 -0.7827
14092TIP3   OH263690   4.754   2.350  16.845 -0.3744  0.3834  0.1355
14092TIP3    H163691   4.847   2.332  16.832 -0.1079  1.3937  0.5385
14092TIP3    H263692   4.752   2.425  16.904 -1.4557  0.1670  0.3962
14093TIP3   OH263693   4.985   5.480  12.879  0.0007  0.1625  0.3429
14093TIP3    H163694   5.027   5.483  12.793  0.1614 -0.2059  0.4044
14093TIP3    H263695   4.911   5.420  12.867  0.7824 -0.9288  0.7755
14094TIP3   OH263696   3.626   1.145  11.191  0.3585 -0.4354  0.6321
14094TIP3    H163697   3.602   1.186  11.108  0.6492  2.5233  1.8855
14094TIP3    H263698   3.614   1.051  11.176 -2.0710  0.1594 -1.9322
14095TIP3   OH263699   3.740   5.195   5.658  0.2266  0.0447 -0.2957
14095TIP3    H163700   3.696   5.227   5.737  0.9603  0.0615  0.1117
14095TIP3    H263701   3.774   5.109   5.682  1.2736  0.4483 -0.2813
14096TIP3   OH263702   5.431   5.899   0.278  0.1558  0.8088  0.5781
14096TIP3    H163703   5.361   5.845   0.315  2.2057 -1.9383  0.7829
14096TIP3    H263704   5.434   5.874   0.186  3.0260 -1.9403  1.2424
14097TIP3   OH263705   1.916   3.787  16.954  0.4085  0.5567  0.3201
14097TIP3    H163706   1.900   3.812  17.045  1.6624 -0.2901  0.8042
14097TIP3    H263707   1.854   3.838  16.903 -0.7655  0.5650  1.7129
14098TIP3   OH263708   4.942   1.496  14.371 -0.5249  0.1795  0.0445
14098TIP3    H163709   5.023   1.509  14.321  0.5679  0.2635  1.7633
14098TIP3    H263710   4.912   1.584  14.392 -1.6206  0.1847 -1.3623
14099TIP3   OH263711   0.106   3.848  13.836  0.1308 -0.1057 -0.1261
14099TIP3    H163712   0.085   3.846  13.929  0.4704 -0.2433 -0.0476
14099TIP3    H263713   0.022   3.847  13.792 -0.0293 -0.7756  0.1726
14100TIP3   OH263714   1.507   4.042  15.819 -0.4422 -0.0615 -0.1905
14100TIP3    H163715   1.485   4.054  15.726  1.2759  0.1940 -0.6067
14100TIP3    H263716   1.443   4.094  15.866 -0.1797  1.3865 -1.3629
14101TIP3   OH263717   4.096   1.803  11.183  0.2483  0.4846  0.0964
14101TIP3    H163718   4.112   1.768  11.095 -1.5305 -2.5324  0.8042
14101TIP3    H263719   4.009   1.844  11.176  0.8741  1.8658  0.0882
14102TIP3   OH263720   4.470   4.080   3.696  0.1961 -0.1384 -0.0646
14102TIP3    H163721   4.500   4.139   3.765  1.0408 -1.2986  0.5844
14102TIP3    H263722   4.476   4.132   3.615  0.2085  0.8843  0.5814
14103TIP3   OH263723   5.090   6.115   5.864 -0.4383  0.3956  0.0211
14103TIP3    H163724   5.056   6.187   5.811  0.4314  0.0923 -0.9821
14103TIP3    H263725   5.037   6.116   5.943 -2.7878 -0.0887 -1.4754
14104TIP3   OH263726   2.169   2.895  11.690  0.2534  0.1438  0.3277
14104TIP3    H163727   2.113   2.894  11.768 -0.6614  1.2136 -0.2885
14104TIP3    H263728   2.108   2.880  11.617  0.9184  0.3413 -0.2728
14105TIP3   OH263729   1.934   5.710   5.470 -0.2799  0.7414  0.0591
14105TIP3    H163730   2.014   5.688   5.518 -0.7888  1.1253  1.1109
14105TIP3    H263731   1.955   5.690   5.378  0.8907  0.4945  0.3624
14106TIP3   OH263732   4.625   1.087  17.117  0.7824  0.0339  0.6985
14106TIP3    H163733   4.624   1.164  17.060 -1.1745 -1.0441 -0.8651
14106TIP3    H263734   4.681   1.024  17.071  0.0087 -0.4888  0.4508
14107TIP3   OH263735   4.431   6.409   5.242 -0.1565  0.1924 -0.2494
14107TIP3    H163736   4.468   6.493   5.217 -0.7469  0.3582 -0.5777
14107TIP3    H263737   4.375   6.384   5.169 -0.2061 -0.3505 -0.0325
14108TIP3   OH263738   2.052   3.454   1.763 -0.0540  0.4793  0.3218
14108TIP3    H163739   2.011   3.532   1.726 -1.4115 -0.2747  0.1670
14108TIP3    H263740   2.105   3.418   1.692  1.3087  1.7028  0.6535
14109TIP3   OH263741   1.750   1.836  14.622 -0.3570  0.1862 -0.3322
14109TIP3    H163742   1.801   1.757  14.606 -0.0172  0.8897 -3.3301
14109TIP3    H263743   1.754   1.884  14.539  0.1700  3.7863  1.5830
14110TIP3   OH263744   4.857   2.191   3.441 -0.5059 -0.1109  0.0860
14110TIP3    H163745   4.832   2.211   3.351  1.7727  2.3168 -0.1254
14110TIP3    H263746   4.925   2.124   3.432 -2.1094 -1.8082  0.2264
14111TIP3   OH263747   0.473   6.777  15.900 -0.6354 -0.0721 -0.4176
14111TIP3    H163748   0.414   6.842  15.860 -1.7758 -1.4741 -1.1295
14111TIP3    H263749   0.414   6.707  15.930  0.3004  0.3471  2.6700
14112TIP3   OH263750   1.303   4.948   5.538  0.2785 -0.1943 -0.1891
14112TIP3    H163751   1.327   4.901   5.458  2.2615  0.5327 -0.0742
14112TIP3    H263752   1.279   4.879   5.599 -1.7138 -0.7413 -1.4916
14113TIP3   OH263753   1.411   6.663   3.017 -0.2436  0.3209  0.1849
14113TIP3    H163754   1.495   6.709   3.013  0.0748 -0.3009 -0.4104
14113TIP3    H263755   1.346   6.733   3.016  0.2708  0.8182  0.9264
14114TIP3   OH263756   0.711   4.933  12.979 -0.2318 -0.1478  0.4232
14114TIP3    H163757   0.720   5.013  13.030  0.3835 -1.3204  2.2254
14114TIP3    H263758   0.738   4.959  12.890  0.4944  1.4920  1.0701
14115TIP3   OH263759   2.218   3.470   0.192 -0.5723  0.0106 -0.4214
14115TIP3    H163760   2.308   3.501   0.199  0.2604 -2.0195 -1.4996
14115TIP3    H263761   2.165   3.550   0.197  1.3110  1.3167 -0.5050
14116TIP3   OH263762   6.546   4.809  16.411 -0.2366 -0.2747  0.2496
14116TIP3    H163763   6.556   4.902  16.391  0.0300 -0.5349 -0.9012
14116TIP3    H263764   6.475   4.780  16.354 -0.8391 -0.6129  1.1643
14117TIP3   OH263765   0.292   0.447   3.741 -0.1068  0.4057  0.4188
14117TIP3    H163766   0.362   0.382   3.728 -0.0726  0.5057  0.0854
14117TIP3    H263767   0.219   0.415   3.688 -0.5362 -0.0265  1.2639
14118TIP3   OH263768   5.976   2.270  10.823 -0.6936  0.9865  0.4641
14118TIP3    H163769   6.057   2.319  10.839 -0.8051  1.4296 -0.2627
14118TIP3    H263770   5.996   2.216  10.746 -0.4478 -0.4210  1.4693
14119TIP3   OH263771   2.472   2.664   6.405  0.3205 -0.9411 -0.2410
14119TIP3    H163772   2.555   2.701   6.376 -0.7337  0.3238 -1.8470
14119TIP3    H263773   2.468   2.684   6.498  0.9312  0.8396 -0.5565
14120TIP3   OH263774   3.247   4.684   0.908 -0.3261 -0.5180 -0.3789
14120TIP3    H163775   3.172   4.737   0.939  0.5893 -0.4746  2.0000
14120TIP3    H263776   3.251   4.611   0.970  1.4346 -0.6586 -0.6190
14121TIP3   OH263777   4.322   1.762  10.958 -0.9953 -0.2638  0.0886
14121TIP3    H163778   4.405   1.720  10.936 -1.3386 -0.6108 -0.5799
14121TIP3    H263779   4.340   1.856  10.949 -1.1877 -0.3810 -2.1076
14122TIP3   OH263780   4.392   2.109  12.378 -0.5486 -0.1902  0.0973
14122TIP3    H163781   4.480   2.075  12.394 -1.0810 -0.7351  2.1203
14122TIP3    H263782   4.342   2.033  12.346 -0.4276 -0.0147 -0.5153
14123TIP3   OH263783   0.725   1.370  10.956  0.3991  0.3448 -0.6118
14123TIP3    H163784   0.662   1.306  10.990 -0.2666  1.4416  0.2759
14123TIP3    H263785   0.810   1.328  10.966  0.1357  0.1994  1.4875
14124TIP3   OH263786   1.528   5.357  15.993 -0.1495  0.3583  0.6994
14124TIP3    H163787   1.544   5.278  16.044 -1.2522 -1.0825 -1.0843
14124TIP3    H263788   1.507   5.424  16.059  0.5968 -0.8568  2.2326
14125TIP3   OH263789   3.955   2.733  14.072 -0.2057 -0.2353  0.1571
14125TIP3    H163790   4.020   2.664  14.085 -0.9209 -0.6628  1.6242
14125TIP3    H263791   3.900   2.729  14.150 -1.6250  0.5254 -0.7802
14126TIP3   OH263792   5.063   5.025   1.963  0.8234  0.1348  0.5801
14126TIP3    H163793   5.129   4.961   1.937 -1.0264 -1.6997  0.1607
14126TIP3    H263794   5.045   5.075   1.883  0.3971 -0.5730  0.2349
14127TIP3   OH263795   0.581   0.834  14.603  0.1655 -0.2847  1.1347
14127TIP3    H163796   0.638   0.774  14.651  0.3163  0.2972  1.6972
14127TIP3    H263797   0.493   0.799  14.614  0.3446 -0.8568  0.7629
14128TIP3   OH263798   6.618   5.806  10.810 -0.1722 -0.3716  0.4081
14128TIP3    H163799   6.695   5.842  10.766  0.9244 -0.7447  1.9595
14128TIP3    H263800   6.643   5.717  10.832 -1.5299 -0.9230 -0.1443
14129TIP3   OH263801   2.589   1.476   5.701 -0.0098  0.0439 -0.4804
14129TIP3    H163802   2.656   1.453   5.637  1.2178  0.4008  0.6345
14129TIP3    H263803   2.564   1.393   5.741  1.1268  0.1059  0.3874
14130TIP3   OH263804   1.663   3.101  12.154 -0.4896  0.4196 -0.4932
14130TIP3    H163805   1.662   3.050  12.235  0.8170  2.6076  1.0287
14130TIP3    H263806   1.756   3.119  12.138 -0.8809  2.6843 -0.6234
14131TIP3   OH263807   6.634   2.127  12.797  0.2652 -0.6811 -0.4091
14131TIP3    H163808   6.635   2.212  12.841  1.6819 -0.8913  0.0114
14131TIP3    H263809   6.725   2.112  12.770 -0.2213 -1.4276 -1.7446
14132TIP3   OH263810   0.996   6.493  12.732 -0.0890 -0.1118  0.2316
14132TIP3    H163811   1.074   6.457  12.691 -0.8245 -2.0112  0.3938
14132TIP3    H263812   0.987   6.581  12.694  1.0965 -0.5537 -1.1588
14133TIP3   OH263813   4.156   4.327   2.471  0.1656 -0.0500  0.5310
14133TIP3    H163814   4.116   4.391   2.530 -1.4604 -1.0159  0.5486
14133TIP3    H263815   4.151   4.244   2.518  1.2531 -0.3914  0.0799
14134TIP3   OH263816   1.377   2.922   1.028  0.3755 -0.1142  0.4731
14134TIP3    H163817   1.432   2.985   1.075  0.8919 -1.6492  2.0033
14134TIP3    H263818   1.296   2.919   1.079 -0.1646  0.2473 -0.3364
14135TIP3   OH263819   3.648   4.970   0.154 -0.3609 -0.6592 -0.1743
14135TIP3    H163820   3.623   4.974   0.247 -1.1342 -0.7599 -0.3753
14135TIP3    H263821   3.622   4.882   0.126  0.3078 -0.8007 -0.3700
14136TIP3   OH263822   5.316   6.111  15.591 -0.6641 -0.0475  0.1979
14136TIP3    H163823   5.398   6.092  15.547 -0.6880  1.7783 -0.7183
14136TIP3    H263824   5.337   6.105  15.685  0.0574 -1.2777 -0.0275
14137TIP3   OH263825   4.601   3.785   3.540 -0.3073  0.2607  0.2031
14137TIP3    H163826   4.564   3.697   3.541 -1.2866  0.6383 -0.5565
14137TIP3    H263827   4.525   3.843   3.527  0.2316  1.2685  1.2708
14138TIP3   OH263828   6.232   4.514   4.728  0.2939 -0.0305  0.0031
14138TIP3    H163829   6.238   4.592   4.785  4.2484 -0.6266  0.7352
14138TIP3    H263830   6.266   4.544   4.644  2.5481 -0.9809  0.4933
14139TIP3   OH263831   0.333   2.213   0.233 -0.5432 -0.1844 -0.0430
14139TIP3    H163832   0.374   2.161   0.302 -1.0756 -0.8669 -0.2313
14139TIP3    H263833   0.265   2.156   0.197 -0.6858  0.3940 -0.7113
14140TIP3   OH263834   1.435   0.678  16.142 -0.2248 -0.8730  0.0203
14140TIP3    H163835   1.422   0.772  16.131  0.6828 -0.9983 -3.0657
14140TIP3    H263836   1.349   0.644  16.166 -0.7961  0.5927  0.1487
14141TIP3   OH263837   5.507   2.937   0.713  0.9501 -0.0771 -0.2024
14141TIP3    H163838   5.430   2.942   0.770  0.4174  0.5361 -0.9468
14141TIP3    H263839   5.497   3.012   0.653  1.6205 -0.5610 -0.9340
14142TIP3   OH263840   4.321   2.123   4.996 -0.0640 -0.2462 -0.5416
14142TIP3    H163841   4.389   2.175   5.040  0.6979 -1.4942 -0.1989
14142TIP3    H263842   4.294   2.059   5.062 -1.6058  0.2395 -0.6760
14143TIP3   OH263843   2.386   2.067  15.825  0.7086  0.3247 -0.1141
14143TIP3    H163844   2.344   2.030  15.902  1.7655 -0.6938  0.0078
14143TIP3    H263845   2.320   2.061  15.756  0.5553 -1.0300  0.1253
14144TIP3   OH263846   5.494   1.284   4.359  0.0336  0.4579  0.0396
14144TIP3    H163847   5.485   1.379   4.369 -1.8620  0.2681  0.4849
14144TIP3    H263848   5.404   1.251   4.357  0.6352 -1.2927 -0.6287
14145TIP3   OH263849   5.788   0.996   0.494  0.0059 -0.1600  0.4375
14145TIP3    H163850   5.837   0.949   0.561  0.6320 -0.8232 -0.4505
14145TIP3    H263851   5.855   1.036   0.439 -0.5164  1.5192  0.9656
14146TIP3   OH263852   2.033   4.493  13.634 -0.2762 -0.8729  0.2878
14146TIP3    H163853   2.082   4.427  13.585 -0.0281 -1.1989  0.9695
14146TIP3    H263854   2.037   4.464  13.725  1.1931  0.8919  0.8571
14147TIP3   OH263855   1.045   0.299  12.668 -1.1141 -0.0004  0.3708
14147TIP3    H163856   1.052   0.312  12.573 -2.4053 -0.5083  0.1823
14147TIP3    H263857   0.972   0.354  12.694  1.3409  2.8854  1.7082
14148TIP3   OH263858   0.883   0.847   0.700  0.0996 -0.2938  0.4248
14148TIP3    H163859   0.883   0.786   0.626  0.5651  0.4735 -0.2174
14148TIP3    H263860   0.974   0.848   0.730 -0.0323 -0.3847  0.8310
14149TIP3   OH263861   1.759   0.121  12.459  0.4679  0.5996 -0.3459
14149TIP3    H163862   1.841   0.083  12.490 -0.1422 -0.4893 -0.0335
14149TIP3    H263863   1.781   0.213  12.441  1.6893  0.3870 -0.0458
14150TIP3   OH263864   3.141   2.358   6.092  0.1876 -0.2795  0.4312
14150TIP3    H163865   3.127   2.385   6.183 -0.4043  1.6080 -0.1762
14150TIP3    H263866   3.235   2.374   6.077  0.7260 -2.3649  1.2073
14151TIP3   OH263867   3.792   2.079  11.123 -0.5711  0.1004 -0.0449
14151TIP3    H163868   3.780   2.161  11.076 -1.2212 -1.1171 -2.1223
14151TIP3    H263869   3.778   2.102  11.215  0.0019  2.4287 -0.4884
14152TIP3   OH263870   3.397   1.835  13.061  0.4885 -0.3259 -0.2034
14152TIP3    H163871   3.426   1.790  12.981  0.0554  0.5846 -0.8824
14152TIP3    H263872   3.418   1.927  13.046  0.3102 -0.1326  0.6972
14153TIP3   OH263873   4.309   4.602  11.780 -0.0228  0.1651  0.1440
14153TIP3    H163874   4.238   4.603  11.844  0.3467 -0.2626  0.5658
14153TIP3    H263875   4.297   4.683  11.731 -1.0009 -0.0674 -0.0156
14154TIP3   OH263876   3.316   5.384  13.326 -0.4593  0.0857  0.0370
14154TIP3    H163877   3.235   5.354  13.368  0.1786  0.7463  1.7841
14154TIP3    H263878   3.294   5.471  13.293 -1.2288 -0.7735 -1.8982
14155TIP3   OH263879   2.256   1.850  11.861 -0.2852 -0.0336  1.0285
14155TIP3    H163880   2.327   1.884  11.914  0.2793 -2.0471  1.6563
14155TIP3    H263881   2.176   1.872  11.910  0.0207  0.7943  1.1542
14156TIP3   OH263882   2.878   2.170   2.522  0.2340  0.1410  0.1288
14156TIP3    H163883   2.939   2.158   2.596  0.0220 -1.6706  0.0581
14156TIP3    H263884   2.861   2.081   2.491 -0.3230  0.8168 -1.6020
14157TIP3   OH263885   1.883   2.960   5.617  0.0122  0.0202 -0.2897
14157TIP3    H163886   1.836   3.027   5.666 -0.1824  0.2542 -0.7941
14157TIP3    H263887   1.817   2.893   5.598  0.3078 -0.5434  0.6126
14158TIP3   OH263888   5.275   1.034   0.107  0.1475 -0.2296 -0.4041
14158TIP3    H163889   5.216   1.045   0.032 -0.6069  0.6457  0.2942
14158TIP3    H263890   5.341   1.102   0.097 -0.6688  0.7034  0.3629
14159TIP3   OH263891   0.871   5.545   1.476 -0.3180  0.0744  0.4169
14159TIP3    H163892   0.837   5.459   1.502 -1.3338  0.7924  1.5779
14159TIP3    H263893   0.927   5.571   1.549  0.3881  0.2027 -0.1585
14160TIP3   OH263894   2.442   4.020  15.054  0.0550  0.8130 -0.5672
14160TIP3    H163895   2.438   3.973  15.138 -1.2802 -1.2264 -1.6735
14160TIP3    H263896   2.470   4.108  15.077 -1.6136  0.7342  2.1854
14161TIP3   OH263897   1.931   1.422   5.710 -0.3134 -0.3115 -0.4916
14161TIP3    H163898   1.935   1.346   5.651 -0.4403  0.9544 -2.2288
14161TIP3    H263899   1.967   1.391   5.793  0.0092 -2.1488 -1.2736
14162TIP3   OH263900   0.505   2.636  16.690 -0.0613 -0.0618  0.0692
14162TIP3    H163901   0.441   2.689  16.736 -0.7846 -1.3006  0.5436
14162TIP3    H263902   0.562   2.602  16.760  0.1677 -0.2050 -0.1856
14163TIP3   OH263903   5.582   4.117   0.691  0.3842  0.4916  0.6512
14163TIP3    H163904   5.526   4.157   0.758  2.6527  1.8319  1.8514
14163TIP3    H263905   5.611   4.035   0.730 -1.1989 -0.5628 -0.2620
14164TIP3   OH263906   3.594   6.219   0.109 -0.0704 -0.3921 -0.2676
14164TIP3    H163907   3.660   6.268   0.157  1.5304 -1.4566 -1.2937
14164TIP3    H263908   3.510   6.250   0.145  0.9853  0.2134  1.8271
14165TIP3   OH263909   6.386   4.748   2.320  0.4083  0.2769 -0.5537
14165TIP3    H163910   6.292   4.731   2.321  0.8739 -3.1088 -1.6163
14165TIP3    H263911   6.413   4.738   2.411 -0.0918  0.1123 -0.4183
14166TIP3   OH263912   0.394   4.906  12.611 -0.3654 -0.4355 -0.1541
14166TIP3    H163913   0.452   4.974  12.575 -2.6376  1.0823 -1.2312
14166TIP3    H263914   0.395   4.837  12.545 -2.0918  0.9657 -1.7572
14167TIP3   OH263915   1.103   1.457  15.130 -0.1185 -0.0927 -0.5754
14167TIP3    H163916   1.020   1.440  15.084  0.5249  0.1553 -1.8805
14167TIP3    H263917   1.152   1.375  15.121 -0.2271 -0.2549  0.2393
14168TIP3   OH263918   0.202   4.802  12.088 -0.4794 -0.2704  0.2907
14168TIP3    H163919   0.147   4.856  12.032  1.0602  0.5167 -0.5416
14168TIP3    H263920   0.261   4.757  12.027 -0.2661 -1.1749  1.1323
14169TIP3   OH263921   4.054   1.656   4.010  0.0990 -0.0847  0.2086
14169TIP3    H163922   4.003   1.613   3.941 -0.7188  0.4226  0.4775
14169TIP3    H263923   4.043   1.750   3.993 -1.7875  0.1277  2.1479
14170TIP3   OH263924   4.877   1.783   3.109 -0.4378  0.6039 -0.0158
14170TIP3    H163925   4.804   1.732   3.143  0.5503 -1.4531 -0.7904
14170TIP3    H263926   4.840   1.868   3.088 -2.6616 -0.4324 -0.5628
14171TIP3   OH263927   2.215   4.463   5.217 -0.1236  0.5597  0.0437
14171TIP3    H163928   2.303   4.441   5.249 -0.4808 -1.3352 -0.1595
14171TIP3    H263929   2.191   4.389   5.162 -0.9035  2.1435 -1.8804
14172TIP3   OH263930   1.385   3.229  15.110 -0.4484 -0.3084  0.1048
14172TIP3    H163931   1.317   3.179  15.066 -0.5054 -0.1383 -0.0007
14172TIP3    H263932   1.338   3.278  15.178 -0.1939 -1.5501  1.2221
14173TIP3   OH263933   0.056   1.352   0.661 -0.8990  0.2416  0.3845
14173TIP3    H163934  -0.013   1.287   0.663 -0.8656  0.2132  0.6211
14173TIP3    H263935   0.011   1.436   0.656 -0.9378  0.1465 -1.6969
14174TIP3   OH263936   0.416   1.551   3.740  0.1339  0.3060  0.3305
14174TIP3    H163937   0.455   1.464   3.745 -0.0561  0.1314 -0.8873
14174TIP3    H263938   0.324   1.538   3.765 -0.0130  0.0626 -0.3242
14175TIP3   OH263939   1.645   3.002  13.563  0.2775  0.7751  0.7609
14175TIP3    H163940   1.667   3.089  13.529 -0.7863  1.2503  1.2698
14175TIP3    H263941   1.673   3.004  13.654 -0.2162  0.7524  0.9121
14176TIP3   OH263942   0.340   3.036  13.921 -0.4772  0.1058 -1.1027
14176TIP3    H163943   0.377   3.122  13.937  0.6408 -0.6235  0.4418
14176TIP3    H263944   0.403   2.992  13.864 -0.3907 -0.1363 -0.8238
14177TIP3   OH263945   0.112   2.256  15.480  0.0966 -0.3193  0.0542
14177TIP3    H163946   0.079   2.180  15.433 -0.2538  1.0116 -1.9445
14177TIP3    H263947   0.109   2.229  15.572 -0.5103 -2.5134 -0.5326
14178TIP3   OH263948   3.342   2.250  14.138 -0.0150 -0.0282  0.2685
14178TIP3    H163949   3.279   2.322  14.141 -0.6439 -0.5176 -0.7969
14178TIP3    H263950   3.300   2.181  14.190 -0.5293 -0.4723 -0.7172
14179TIP3   OH263951   4.643   0.227   6.358  0.3707 -0.2597  0.2434
14179TIP3    H163952   4.631   0.141   6.399  0.8916 -0.0108  0.9354
14179TIP3    H263953   4.560   0.272   6.374 -0.5986 -1.2611 -1.7171
14180TIP3   OH263954   4.384   4.924   2.229  0.0156 -0.0603 -0.1179
14180TIP3    H163955   4.317   4.987   2.255 -1.0954 -1.3278  0.2248
14180TIP3    H263956   4.464   4.955   2.272 -0.9387  0.0217  1.7312
14181TIP3   OH263957   6.343   2.787  16.448  0.0789  0.2669  0.5404
14181TIP3    H163958   6.323   2.866  16.398 -0.7465 -0.9269 -1.1195
14181TIP3    H263959   6.412   2.814  16.509  1.8627  1.6182 -1.8880
14182TIP3   OH263960   1.141   3.023   3.197  0.2333 -0.5270  0.1372
14182TIP3    H163961   1.114   3.045   3.286  0.3697  0.3462 -0.0245
14182TIP3    H263962   1.063   3.040   3.143  0.5718  0.3779 -0.0982
14183TIP3   OH263963   4.195   3.228  12.682  0.1054 -0.5231  0.0720
14183TIP3    H163964   4.262   3.189  12.626  3.1205  1.7209  1.8219
14183TIP3    H263965   4.197   3.176  12.762  0.0526 -0.2418  0.2606
14184TIP3   OH263966   4.305   2.448  16.717  0.0936  0.1376  0.0907
14184TIP3    H163967   4.325   2.375  16.775  1.4590 -1.5924 -2.3635
14184TIP3    H263968   4.386   2.497  16.710  0.9805 -1.5080 -2.6596
14185TIP3   OH263969   5.759   1.067  15.643 -0.3662 -0.2284 -0.3577
14185TIP3    H163970   5.716   0.982  15.646 -0.4203 -0.1756  0.6121
14185TIP3    H263971   5.764   1.088  15.550  0.2482 -1.5909 -0.6461
14186TIP3   OH263972   6.016   0.685   0.364  0.6240  0.2541  0.1061
14186TIP3    H163973   5.933   0.670   0.410 -0.0022 -0.9855 -1.3634
14186TIP3    H263974   5.997   0.754   0.301  0.9170  0.4911  0.2750
14187TIP3   OH263975   0.942   2.316   1.014  0.6229  0.0455 -0.2788
14187TIP3    H163976   0.920   2.224   1.025 -0.2521  0.3075  0.2195
14187TIP3    H263977   0.966   2.325   0.922 -0.6673 -0.4005 -0.6733
14188TIP3   OH263978   6.633   3.577  11.848  0.2178  0.2886 -0.5327
14188TIP3    H163979   6.573   3.502  11.844  1.2615 -0.5840 -0.4847
14188TIP3    H263980   6.577   3.653  11.834 -1.0372 -0.4167  0.4015
14189TIP3   OH263981   6.181   6.450   5.499 -0.3841  1.3410 -0.1378
14189TIP3    H163982   6.252   6.386   5.509 -1.3252 -0.1273 -2.0966
14189TIP3    H263983   6.105   6.408   5.539 -1.0812  1.0062 -1.7085
14190TIP3   OH263984   4.163   1.689  16.179 -0.4348  0.3350 -0.3992
14190TIP3    H163985   4.076   1.651  16.168 -0.8602  1.4957 -1.2691
14190TIP3    H263986   4.172   1.750  16.105  0.7819  0.8406  0.1396
14191TIP3   OH263987   6.110   3.113  16.298 -0.4515  0.1322  0.4508
14191TIP3    H163988   6.041   3.175  16.276  0.9089  1.1180 -1.2895
14191TIP3    H263989   6.121   3.122  16.393 -2.1762  0.4527  0.6665
14192TIP3   OH263990   4.458   4.719  15.675 -0.2984  0.0004  0.5196
14192TIP3    H163991   4.543   4.685  15.647  0.3155 -0.0308  2.2571
14192TIP3    H263992   4.441   4.793  15.617  1.4940  0.7414  0.8662
14193TIP3   OH263993   0.661   0.648  13.166 -0.4263  0.2575  0.1781
14193TIP3    H163994   0.574   0.610  13.155 -0.6618  1.2396 -1.8097
14193TIP3    H263995   0.645   0.733  13.207 -0.1884 -0.3710  1.6351
14194TIP3   OH263996   3.513   1.444   2.788  0.1500 -0.0244  0.2560
14194TIP3    H163997   3.589   1.412   2.739  0.5911 -1.0507  1.5532
14194TIP3    H263998   3.494   1.530   2.749  1.0863 -0.3654 -1.0239
14195TIP3   OH263999   2.669   1.476  10.383  0.3724  0.3786 -0.6396
14195TIP3    H164000   2.697   1.451  10.295 -0.1788 -1.2148 -0.3873
14195TIP3    H264001   2.683   1.398  10.436 -0.6918  0.8418  0.3620
14196TIP3   OH264002   0.928   6.079  16.099  0.2610  0.6725 -0.0126
14196TIP3    H164003   0.888   6.134  16.031  0.1065  0.6737  0.0785
14196TIP3    H264004   0.870   6.089  16.175  0.4465  0.6907  0.1278
14197TIP3   OH264005   1.190   5.528   3.617 -0.5436 -0.4414  0.6837
14197TIP3    H164006   1.140   5.465   3.670  0.1734 -0.8696  0.8584
14197TIP3    H264007   1.154   5.518   3.529 -1.0281 -0.4689  0.8768
14198TIP3   OH264008   2.863   2.576  17.218 -0.1472  0.0177  0.9680
14198TIP3    H164009   2.940   2.606  17.265 -0.0994 -0.7816  1.4325
14198TIP3    H264010   2.814   2.526  17.284 -0.3566 -0.6465  0.3209
14199TIP3   OH264011   0.554   6.342   2.142 -0.3601 -0.0334  0.0062
14199TIP3    H164012   0.502   6.326   2.063 -0.2491 -0.0170 -0.0695
14199TIP3    H264013   0.513   6.285   2.208  0.1219 -0.7560 -0.2998
14200TIP3   OH264014   4.012   6.334  16.269 -0.1503 -0.0972 -0.2185
14200TIP3    H164015   4.050   6.419  16.293  0.1092  0.4901 -2.4380
14200TIP3    H264016   4.074   6.269  16.303  0.6660  0.6857 -0.1755
14201TIP3   OH264017   6.087   3.086   2.723  0.7569  0.1351 -0.3782
14201TIP3    H164018   6.106   3.005   2.771 -0.1296 -0.4746 -1.0231
14201TIP3    H264019   5.998   3.073   2.690  0.4421  1.5560 -0.1388
14202TIP3   OH264020   6.456   4.868  14.414 -0.3616 -0.1859  0.6428
14202TIP3    H164021   6.453   4.945  14.357  1.1062 -0.6213 -0.0779
14202TIP3    H264022   6.388   4.884  14.479 -1.8858  0.4574 -1.0431
14203TIP3   OH264023   2.488   0.440  12.920 -0.1139 -0.6783  0.6753
14203TIP3    H164024   2.490   0.346  12.901  2.0499 -0.1818 -2.2873
14203TIP3    H264025   2.570   0.457  12.967 -0.7962 -0.3326  1.7681
14204TIP3   OH264026   6.711   3.772  15.144 -0.1514 -0.0693  0.0610
14204TIP3    H164027   6.703   3.750  15.051  1.6662 -0.4754 -0.0495
14204TIP3    H264028   6.621   3.786  15.174 -0.9166 -1.5858 -1.3608
14205TIP3   OH264029   4.591   3.784   0.031 -0.5047  0.5403  0.4272
14205TIP3    H164030   4.635   3.705   0.063 -0.9280  0.7706  1.6421
14205TIP3    H264031   4.498   3.761   0.031 -0.7414  1.3654  1.8823
14206TIP3   OH264032   3.082   5.268   5.332 -0.0841 -0.0475  1.1933
14206TIP3    H164033   3.107   5.328   5.402  1.4277 -0.1621  0.7961
14206TIP3    H264034   3.165   5.245   5.290 -0.8378 -0.9106  0.1216
14207TIP3   OH264035   1.536   3.550   5.767  0.4556 -0.8187 -0.0175
14207TIP3    H164036   1.471   3.534   5.699  0.6794 -1.5258 -0.0726
14207TIP3    H264037   1.502   3.505   5.844 -0.1563  0.5777  0.5609
14208TIP3   OH264038   6.134   5.868   3.901  0.2723 -0.0060  0.0157
14208TIP3    H164039   6.124   5.850   3.808 -0.7563 -0.4556  0.1975
14208TIP3    H264040   6.189   5.946   3.904  3.5245 -2.1127 -0.8242
14209TIP3   OH264041   3.794   6.256   0.309 -0.1715 -0.4129 -0.3761
14209TIP3    H164042   3.729   6.233   0.376 -0.9092 -1.7983 -1.4990
14209TIP3    H264043   3.861   6.188   0.317  0.6085  0.3835  0.0386
14210TIP3   OH264044   3.334   1.275  15.596 -0.4493  0.4273 -0.2725
14210TIP3    H164045   3.305   1.314  15.514 -2.8660 -0.1099  0.2387
14210TIP3    H264046   3.335   1.181  15.579 -1.8760  0.2338  0.4991
14211TIP3   OH264047   2.553   2.380   1.386  0.0475 -0.2525  0.2859
14211TIP3    H164048   2.645   2.392   1.406  0.2890 -0.2243 -0.7686
14211TIP3    H264049   2.526   2.463   1.346  0.1266 -0.9635 -1.3248
14212TIP3   OH264050   4.922   4.153   0.903  0.3434 -0.0601 -0.4193
14212TIP3    H164051   4.908   4.247   0.912  0.2423 -0.1332  0.2835
14212TIP3    H264052   5.000   4.146   0.847  0.4257  0.4446 -0.3790
14213TIP3   OH264053   1.950   2.828   4.303 -0.0787 -0.0229 -1.1034
14213TIP3    H164054   1.944   2.904   4.245  0.5017  0.7177 -0.2323
14213TIP3    H264055   2.042   2.825   4.330 -0.5823  0.5561  0.8850
14214TIP3   OH264056   6.001   4.316  11.057  0.2062 -0.5645 -0.2371
14214TIP3    H164057   6.041   4.331  10.972  2.8591  2.0614  1.2821
14214TIP3    H264058   5.962   4.400  11.081 -0.0556 -1.0816  1.3112
14215TIP3   OH264059   6.657   3.151  11.719  0.2412 -0.4825 -0.0916
14215TIP3    H164060   6.725   3.214  11.697 -0.8449  0.3908 -1.0506
14215TIP3    H264061   6.696   3.066  11.699  1.1649 -0.0304 -0.2714
14216TIP3   OH264062   5.209   3.675  13.571 -0.3959  0.5160 -0.0693
14216TIP3    H164063   5.149   3.683  13.497  0.0217  0.9931 -0.3637
14216TIP3    H264064   5.197   3.585  13.601  0.4218 -0.1584 -1.5944
14217TIP3   OH264065   6.272   1.299  12.843  0.2740  0.1021 -0.3800
14217TIP3    H164066   6.194   1.244  12.853  0.2870  0.2469  0.5932
14217TIP3    H264067   6.312   1.300  12.930 -0.2100  2.3598 -0.1296
14218TIP3   OH264068   0.536   0.618  15.193  0.2060 -0.6744 -0.1739
14218TIP3    H164069   0.595   0.662  15.132  1.6786  1.0494  2.2830
14218TIP3    H264070   0.449   0.649  15.168  0.8668  0.8382 -0.7434
14219TIP3   OH264071   4.310   0.244   4.597  0.2302  0.0998  0.0142
14219TIP3    H164072   4.323   0.339   4.596  0.1737  0.1033 -0.4054
14219TIP3    H264073   4.348   0.213   4.515  2.4588 -0.5308  1.1926
14220TIP3   OH264074   5.179   3.336   4.463  0.3070  0.1439 -0.3201
14220TIP3    H164075   5.243   3.338   4.534 -0.0338  1.6755 -0.0270
14220TIP3    H264076   5.168   3.242   4.444  1.4325 -0.2234  0.6932
14221TIP3   OH264077   3.260   4.425   3.586  0.8380  0.0063 -0.1915
14221TIP3    H164078   3.272   4.497   3.647  1.2164 -0.8009  0.7154
14221TIP3    H264079   3.212   4.359   3.636 -0.2329 -0.0513 -1.2606
14222TIP3   OH264080   5.371   0.615  17.224  0.1880 -0.3269  1.2681
14222TIP3    H164081   5.398   0.637  17.313  0.9133 -0.7703  1.1662
14222TIP3    H264082   5.389   0.695  17.173  1.1603 -0.5545  1.2379
14223TIP3   OH264083   4.589   6.250   2.990  0.6364 -0.2349  0.3294
14223TIP3    H164084   4.493   6.250   2.990  0.5639 -2.2115  2.4099
14223TIP3    H264085   4.612   6.244   2.897 -1.1909  1.1039 -0.2873
14224TIP3   OH264086   2.710   2.362   1.106 -0.0576  0.0859 -0.1043
14224TIP3    H164087   2.614   2.367   1.104 -0.0332  0.6567 -2.4296
14224TIP3    H264088   2.728   2.284   1.157 -1.7546  0.0174  0.4776
14225TIP3   OH264089   4.454   4.150   4.688  0.0867 -0.3178 -0.2385
14225TIP3    H164090   4.501   4.139   4.770  3.5315 -1.3038 -2.1599
14225TIP3    H264091   4.387   4.082   4.689 -0.6673  0.3815  2.1294
14226TIP3   OH264092   1.256   4.750  13.010  0.4483 -0.1699  0.1557
14226TIP3    H164093   1.178   4.736  13.064  1.6794 -0.0005  2.0778
14226TIP3    H264094   1.228   4.811  12.943 -0.6345  1.4357  1.9698
14227TIP3   OH264095   1.791   0.883   5.517 -0.2133  0.0592 -0.0462
14227TIP3    H164096   1.790   0.792   5.547 -1.4630 -0.5151 -1.6389
14227TIP3    H264097   1.855   0.883   5.446 -0.0867  0.4689  0.0677
14228TIP3   OH264098   1.151   0.817   0.774 -0.0364  0.0674  0.1241
14228TIP3    H164099   1.139   0.731   0.815  0.3881  0.4389  1.0502
14228TIP3    H264100   1.214   0.862   0.829  0.0064  0.8606 -0.5443
14229TIP3   OH264101   6.183   3.566   2.802  0.3967  0.0348  0.8981
14229TIP3    H164102   6.179   3.557   2.898  0.9037 -0.0935  0.9084
14229TIP3    H264103   6.102   3.526   2.771 -0.0015  0.5050  1.3034
14230TIP3   OH264104   3.070   1.678  12.135  0.8116 -0.3454  0.0408
14230TIP3    H164105   3.138   1.648  12.074  0.6380 -1.1558  0.2324
14230TIP3    H264106   3.119   1.713  12.210  1.0516 -1.6493  0.5323
14231TIP3   OH264107   1.989   3.509   2.054 -0.3173 -0.1939 -0.1044
14231TIP3    H164108   1.936   3.443   2.100  1.6533 -0.8462  1.3537
14231TIP3    H264109   2.028   3.461   1.980 -0.3872 -0.1518 -0.1694
14232TIP3   OH264110   6.322   0.707  11.131 -0.2731  0.3835 -0.2383
14232TIP3    H164111   6.412   0.686  11.157  0.2148  0.8514 -1.4935
14232TIP3    H264112   6.305   0.651  11.056 -1.4530 -0.5172  0.6619
14233TIP3   OH264113   1.621   1.151   1.857  0.1098 -0.6314 -0.4969
14233TIP3    H164114   1.551   1.153   1.922 -0.3405 -1.6745 -0.9196
14233TIP3    H264115   1.576   1.137   1.773  0.8243 -1.5238 -0.7531
14234TIP3   OH264116   6.636   3.335  16.793  0.0241 -0.4329  0.3255
14234TIP3    H164117   6.719   3.383  16.787 -0.7221  0.8468 -0.2142
14234TIP3    H264118   6.588   3.379  16.863 -0.7913 -0.1914 -0.3672
14235TIP3   OH264119   6.231   5.333  14.817 -0.8913  0.2880 -0.1019
14235TIP3    H164120   6.284   5.329  14.738 -1.1953 -1.6534 -0.2400
14235TIP3    H264121   6.176   5.410  14.805  0.8579  1.5243 -0.5863
14236TIP3   OH264122   6.303   1.639   3.678 -0.1533  0.3207  0.3480
14236TIP3    H164123   6.338   1.595   3.601 -1.8283  0.6324 -0.6504
14236TIP3    H264124   6.312   1.575   3.748 -0.0494 -0.5749 -0.4635
14237TIP3   OH264125   3.775   1.065  13.124  0.0423  0.1475 -1.2166
14237TIP3    H164126   3.818   1.014  13.193 -0.5707  0.4427 -0.6127
14237TIP3    H264127   3.805   1.155  13.138 -1.1863  0.4554 -0.4415
14238TIP3   OH264128   0.870   5.424   1.815  0.0104  0.8236 -0.1361
14238TIP3    H164129   0.801   5.434   1.881  0.4748  2.4352  0.1526
14238TIP3    H264130   0.838   5.355   1.757  0.0650 -1.4785  2.3386
14239TIP3   OH264131   3.536   2.650  13.054 -0.5177 -0.2634 -0.3714
14239TIP3    H164132   3.608   2.706  13.083 -0.5765 -0.4468  0.1419
14239TIP3    H264133   3.516   2.680  12.965  0.8078 -0.8372 -0.8759
14240TIP3   OH264134   5.492   5.428   3.876  0.2255 -0.2066  0.0398
14240TIP3    H164135   5.412   5.425   3.930  1.0531 -0.7039  1.2837
14240TIP3    H264136   5.563   5.442   3.939  1.1441  0.0650 -1.0288
14241TIP3   OH264137   6.761   0.392   4.037  0.1398  0.1148 -0.2429
14241TIP3    H164138   6.849   0.364   4.011 -0.1448 -0.3771 -0.7126
14241TIP3    H264139   6.715   0.404   3.954 -0.4295 -0.2915  0.0083
14242TIP3   OH264140   5.667   6.425  12.787  0.1809 -0.3795  0.7635
14242TIP3    H164141   5.678   6.401  12.695  0.6009  0.3694  0.6065
14242TIP3    H264142   5.712   6.355  12.836  0.3652 -0.5320  0.3796
14243TIP3   OH264143   0.885   1.102  12.611 -0.0329  0.5829 -0.4127
14243TIP3    H164144   0.884   1.103  12.515  1.2742  1.2982 -0.4420
14243TIP3    H264145   0.901   1.010  12.634 -2.2593  0.0200 -0.7885
14244TIP3   OH264146   4.113   0.578   6.083  0.5787  0.2386  0.2611
14244TIP3    H164147   4.113   0.638   6.009 -0.6048  0.3564  0.3311
14244TIP3    H264148   4.077   0.630   6.155  1.3890  0.0213  0.8374
14245TIP3   OH264149   3.639   4.594  17.000  0.1408 -0.3386 -0.6105
14245TIP3    H164150   3.602   4.550  17.076  1.8595 -1.2629 -0.2521
14245TIP3    H264151   3.724   4.553  16.988  0.1363  0.1699 -2.7248
14246TIP3   OH264152   5.295   5.495   1.195  0.0572  0.3802 -0.0704
14246TIP3    H164153   5.320   5.525   1.282 -0.4088 -1.1920  0.6379
14246TIP3    H264154   5.204   5.465   1.205 -0.5875  1.7061 -1.5061
14247TIP3   OH264155   0.700   0.826  15.673  0.4364  0.4076 -0.1163
14247TIP3    H164156   0.701   0.756  15.607 -0.7762  0.0437  0.2303
14247TIP3    H264157   0.713   0.906  15.622  1.7990 -0.0452 -0.5225
14248TIP3   OH264158   0.562   0.936  12.246  0.3851 -0.2029 -0.0851
14248TIP3    H164159   0.571   0.843  12.225 -3.3522 -1.0561  1.2413
14248TIP3    H264160   0.562   0.940  12.341  1.4767  1.3378 -0.1174
14249TIP3   OH264161   4.967   4.709  12.665  0.5078  0.5348 -0.0618
14249TIP3    H164162   5.023   4.756  12.726 -1.1618  2.2278  0.2719
14249TIP3    H264163   4.906   4.775  12.632 -1.3480 -1.1841 -0.3082
14250TIP3   OH264164   0.949   6.234  15.018  0.4739  0.0745 -0.3794
14250TIP3    H164165   0.917   6.215  14.930 -0.8430 -0.9069  0.2672
14250TIP3    H264166   0.870   6.253  15.069  1.0824 -0.4865  0.8346
14251TIP3   OH264167   1.203   5.840   5.122 -0.3064 -0.7514  0.2380
14251TIP3    H164168   1.187   5.897   5.046 -1.2439  2.2882  2.5207
14251TIP3    H264169   1.117   5.805   5.144 -0.1590 -1.0631  0.3233
14252TIP3   OH264170   5.297   0.657   0.673 -0.6795  0.2114 -0.6308
14252TIP3    H164171   5.273   0.567   0.694 -1.0918  0.5060  0.1936
14252TIP3    H264172   5.230   0.686   0.611  0.6418 -0.7179 -2.5961
14253TIP3   OH264173   4.787   3.224   2.931 -0.5017  0.1862  0.3605
14253TIP3    H164174   4.873   3.205   2.970  0.0534 -1.0765 -1.3604
14253TIP3    H264175   4.808   3.255   2.843 -1.8019 -2.9227 -1.1949
14254TIP3   OH264176   1.096   1.897  17.122 -0.3436  0.1030 -0.8532
14254TIP3    H164177   1.035   1.899  17.048 -1.6229 -2.9703 -0.0236
14254TIP3    H264178   1.068   1.968  17.179 -1.2358  0.6320 -1.9249
14255TIP3   OH264179   0.744   0.695  11.482 -0.2751  0.1007  0.6341
14255TIP3    H164180   0.823   0.749  11.483  1.0020 -1.6350 -0.5725
14255TIP3    H264181   0.752   0.640  11.559 -1.0820  0.9154  1.3214
14256TIP3   OH264182   6.737   4.184  13.371  0.6299  0.5807  0.9881
14256TIP3    H164183   6.670   4.218  13.430 -1.1934 -0.4094 -0.4135
14256TIP3    H264184   6.731   4.089  13.381  0.1388  0.3883 -0.9000
14257TIP3   OH264185   3.543   3.106  11.508 -0.0126 -0.3421 -0.5528
14257TIP3    H164186   3.552   3.136  11.598  0.9378 -0.0161 -0.7408
14257TIP3    H264187   3.566   3.013  11.511 -1.4240 -0.7100 -0.2318
14258TIP3   OH264188   3.155   6.410  15.685  0.0999 -0.2745 -0.5954
14258TIP3    H164189   3.161   6.352  15.761 -1.4088  0.8242  0.4220
14258TIP3    H264190   3.072   6.387  15.644 -0.5806  1.1591 -0.1165
14259TIP3   OH264191   6.777   0.557  16.392 -0.8553 -0.1389 -0.0578
14259TIP3    H164192   6.815   0.500  16.325 -0.1617 -0.5236  0.6379
14259TIP3    H264193   6.703   0.508  16.427 -0.3069 -0.6020  0.4842
14260TIP3   OH264194   3.449   1.024   5.431 -0.0201 -0.4946 -0.7363
14260TIP3    H164195   3.355   1.032   5.449  0.4314 -0.3255  1.9129
14260TIP3    H264196   3.481   0.965   5.500  1.9445  0.0414 -1.1505
14261TIP3   OH264197   1.323   2.460  16.367 -0.4089 -0.3102 -0.7084
14261TIP3    H164198   1.337   2.531  16.304  0.5244  0.0461 -0.1332
14261TIP3    H264199   1.410   2.445  16.405 -0.8756 -0.7693  0.2158
14262TIP3   OH264200   5.733   1.487   2.145  0.0170  0.0488  0.0663
14262TIP3    H164201   5.789   1.512   2.218 -0.9314 -0.6725  1.0710
14262TIP3    H264202   5.646   1.482   2.182 -0.5925  0.2744 -1.2713
14263TIP3   OH264203   4.224   5.828   2.123 -0.2813  0.2133 -0.0829
14263TIP3    H164204   4.291   5.807   2.057 -0.6542  1.2428 -0.8106
14263TIP3    H264205   4.270   5.821   2.206  0.1498 -1.3292 -0.4062
14264TIP3   OH264206   2.696   5.445   4.218  0.2300  0.4715 -0.1085
14264TIP3    H164207   2.743   5.382   4.273  1.7698  2.6458  1.2126
14264TIP3    H264208   2.614   5.461   4.266 -1.2113 -2.0005 -1.5322
14265TIP3   OH264209   6.206   4.914  14.944 -0.6682 -0.1371  0.0306
14265TIP3    H164210   6.122   4.915  14.897  0.5963  1.8572 -2.4558
14265TIP3    H264211   6.251   4.836  14.912 -0.7525 -0.0654 -0.2672
14266TIP3   OH264212   1.809   0.559  12.805  0.4846  0.2467  0.0537
14266TIP3    H164213   1.737   0.523  12.754 -1.4952  2.2172  1.2864
14266TIP3    H264214   1.836   0.637  12.756 -0.4894  1.3580  1.2276
14267TIP3   OH264215   4.384   3.187  13.281 -0.0777 -0.0177  0.0913
14267TIP3    H164216   4.327   3.243  13.334 -1.9232 -2.0046  0.3530
14267TIP3    H264217   4.393   3.234  13.198 -1.5519  0.7214  0.3135
14268TIP3   OH264218   6.300   2.151  17.226 -0.0857  0.1625 -0.5564
14268TIP3    H164219   6.386   2.126  17.192 -1.1172 -2.0855 -1.7606
14268TIP3    H264220   6.311   2.154  17.321  1.0590 -1.3671 -0.6106
14269TIP3   OH264221   2.460   6.211  17.084 -0.5101 -0.5289 -0.1474
14269TIP3    H164222   2.527   6.268  17.046 -1.9422  1.7637  0.5772
14269TIP3    H264223   2.387   6.215  17.022 -0.8567 -1.1541  0.2110
14270TIP3   OH264224   0.966   1.884  15.187 -0.1801 -0.2024  0.6864
14270TIP3    H164225   0.914   1.959  15.158  0.2343  0.0893  0.6763
14270TIP3    H264226   0.944   1.873  15.279  0.3222  0.4249  0.8951
14271TIP3   OH264227   1.799   1.602   3.018 -0.2559 -0.8603  0.3146
14271TIP3    H164228   1.892   1.620   3.007 -0.3301 -1.2411 -1.1583
14271TIP3    H264229   1.755   1.675   2.974 -0.6093 -1.8324 -0.9956
14272TIP3   OH264230   5.268   2.015  12.431 -0.0413  0.0979  0.2204
14272TIP3    H164231   5.357   1.990  12.405  0.3575  0.6426  1.0114
14272TIP3    H264232   5.215   2.000  12.353  0.8789  0.4806 -0.4955
14273TIP3   OH264233   4.050   3.612   2.484 -0.3454  0.5277  0.9671
14273TIP3    H164234   4.100   3.578   2.409  0.8802 -1.4866  2.5925
14273TIP3    H264235   3.959   3.589   2.465 -0.4640  2.3389 -1.0385
14274TIP3   OH264236   2.474   2.522  13.220 -0.1596  0.4863 -0.1449
14274TIP3    H164237   2.522   2.449  13.260 -1.9769 -0.8137 -0.1841
14274TIP3    H264238   2.541   2.586  13.199  1.6780 -1.5215 -0.8457
14275TIP3   OH264239   5.894   4.694  14.725 -0.4885 -0.3470  0.2511
14275TIP3    H164240   5.956   4.622  14.733  0.7375  0.4724 -1.1993
14275TIP3    H264241   5.815   4.654  14.690  0.3904 -0.9373 -1.1751
14276TIP3   OH264242   6.366   5.369   5.183 -0.1493  0.2243 -0.0930
14276TIP3    H164243   6.328   5.329   5.261  1.3120 -1.7077 -0.3038
14276TIP3    H264244   6.316   5.333   5.110  0.8661 -0.9062 -0.2545
14277TIP3   OH264245   0.930   0.163  15.509  0.0093 -0.2389  0.0353
14277TIP3    H164246   0.997   0.210  15.459 -0.2552 -0.0305 -0.1274
14277TIP3    H264247   0.931   0.074  15.474  0.7310 -0.4475  0.5589
14278TIP3   OH264248   6.547   2.906  15.681  0.6855 -0.3284  0.4666
14278TIP3    H164249   6.586   2.820  15.666 -0.2120 -0.5364 -0.9143
14278TIP3    H264250   6.477   2.890  15.744 -0.1525 -0.8380 -0.5570
14279TIP3   OH264251   2.430   5.403  11.734  0.4792 -0.1229 -0.1352
14279TIP3    H164252   2.359   5.342  11.754 -2.2531  3.0636  0.7343
14279TIP3    H264253   2.402   5.446  11.653  1.3944  1.2331  0.2404
14280TIP3   OH264254   0.959   6.209  13.851 -0.2117 -0.6174  0.1008
14280TIP3    H164255   0.897   6.149  13.892 -1.3344  1.2995  1.3230
14280TIP3    H264256   0.992   6.161  13.775 -3.8590 -1.4000 -1.1634
14281TIP3   OH264257   0.706   4.780  16.818  0.8123 -0.4929  0.0788
14281TIP3    H164258   0.613   4.801  16.824  0.9212  0.2910 -0.8376
14281TIP3    H264259   0.716   4.701  16.871 -0.4030 -0.6832  0.0498
14282TIP3   OH264260   4.026   3.151  10.820 -0.3388  0.7463  0.4854
14282TIP3    H164261   3.981   3.147  10.736  2.5212 -0.1706 -1.1397
14282TIP3    H264262   4.053   3.061  10.837 -1.1295  0.8527  2.6081
14283TIP3   OH264263   1.143   6.504  16.332 -0.3297  0.2588  0.6210
14283TIP3    H164264   1.052   6.501  16.360 -0.5635  1.5704  0.0757
14283TIP3    H264265   1.188   6.442  16.389 -1.4270  0.1657  1.4075
14284TIP3   OH264266   2.943   5.428   3.494 -0.5888  0.1333 -0.1819
14284TIP3    H164267   2.962   5.482   3.571  0.6938 -0.2696 -0.1919
14284TIP3    H264268   2.879   5.364   3.526  0.1460 -0.2127  0.6477
14285TIP3   OH264269   2.986   1.297   2.356  0.2987  0.2355  0.8477
14285TIP3    H164270   3.023   1.240   2.423  1.0146 -0.7542 -0.3686
14285TIP3    H264271   3.046   1.372   2.353  0.1208  0.4068  1.4846
14286TIP3   OH264272   4.942   6.198   4.431  0.0442  0.2470 -0.3046
14286TIP3    H164273   5.006   6.243   4.374 -0.5952  0.8548 -0.5575
14286TIP3    H264274   4.979   6.110   4.443  0.7359  0.4611 -0.7667
14287TIP3   OH264275   5.426   0.666  14.325 -0.4272 -0.3158  0.5963
14287TIP3    H164276   5.498   0.625  14.278  0.4848 -0.2515  1.8903
14287TIP3    H264277   5.455   0.756  14.341 -2.0783  0.6875 -1.5290
14288TIP3   OH264278   0.957   6.269   0.194  0.6477  0.0316 -0.3821
14288TIP3    H164279   0.929   6.265   0.103  4.3451 -0.7728 -1.6752
14288TIP3    H264280   0.984   6.360   0.206 -2.4289  0.9083  0.9737
14289TIP3   OH264281   2.949   1.937  16.076  0.1154 -0.0043  0.2305
14289TIP3    H164282   2.939   1.889  15.994 -1.0443  1.2632 -0.4188
14289TIP3    H264283   2.869   1.919  16.125  0.4381 -0.1004  0.7302
14290TIP3   OH264284   1.706   1.811  16.231  0.1161  0.0935  0.2327
14290TIP3    H164285   1.779   1.803  16.292  2.0124 -0.0066 -1.9278
14290TIP3    H264286   1.744   1.850  16.152 -2.2399  0.3244 -0.8901
14291TIP3   OH264287   6.581   5.143  12.551 -0.0071 -0.6024  0.2230
14291TIP3    H164288   6.530   5.220  12.524 -1.3224 -1.0631  1.2591
14291TIP3    H264289   6.585   5.089  12.472  0.1823  0.1230 -0.2808
14292TIP3   OH264290   3.770   6.696   5.821  0.3197  0.5224 -0.6127
14292TIP3    H164291   3.811   6.703   5.735 -0.4030 -2.4089 -1.2847
14292TIP3    H264292   3.676   6.692   5.803  0.2220 -1.5332  0.1344
14293TIP3   OH264293   5.614   0.745   5.864  0.2773  1.0934 -0.3205
14293TIP3    H164294   5.626   0.735   5.959  1.0113  2.8675 -0.1783
14293TIP3    H264295   5.693   0.705   5.826  0.4411  1.2147 -0.1138
14294TIP3   OH264296   4.583   3.278   1.681 -0.0530  0.1377 -0.3137
14294TIP3    H164297   4.664   3.325   1.702 -0.4623 -0.3334  2.7841
14294TIP3    H264298   4.568   3.221   1.756 -3.6075  0.6704 -0.4532
14295TIP3   OH264299   4.935   0.443  16.937  0.6588 -0.3186 -0.2825
14295TIP3    H164300   5.007   0.506  16.933  2.5345 -2.3033  0.3339
14295TIP3    H264301   4.911   0.439  17.030 -2.1077  2.1649 -0.7293
14296TIP3   OH264302   5.430   5.024   2.643  0.1173  0.5920  0.4243
14296TIP3    H164303   5.387   5.047   2.560 -2.4529  0.0919  1.5354
14296TIP3    H264304   5.425   4.929   2.647  0.2885  0.6090  1.1150
14297TIP3   OH264305   5.827   0.902  11.791  0.3043 -0.8804 -0.1649
14297TIP3    H164306   5.900   0.961  11.810  0.2915 -1.5800  2.4128
14297TIP3    H264307   5.869   0.825  11.751  1.0753 -1.3195  1.3790
14298TIP3   OH264308   3.058   4.278  16.210  0.0851 -0.0183  0.4294
14298TIP3    H164309   3.114   4.292  16.286  0.3357  1.6343 -0.0282
14298TIP3    H264310   3.062   4.184  16.195  3.0780  0.0382  0.1837
14299TIP3   OH264311   1.023   6.050   0.591  0.4250 -0.1999 -0.4486
14299TIP3    H164312   1.017   6.145   0.576 -1.2528 -0.2488 -0.2744
14299TIP3    H264313   1.024   6.042   0.686  4.4637 -0.2307 -0.3062
14300TIP3   OH264314   0.819   6.038   0.173  0.5260  0.0197  0.1158
14300TIP3    H164315   0.877   6.111   0.198  1.6106 -1.5134  2.3491
14300TIP3    H264316   0.736   6.058   0.215 -0.3367  1.6079 -2.1069
14301TIP3   OH264317   2.039   3.285   0.231 -0.3383 -0.2576 -0.0563
14301TIP3    H164318   1.953   3.325   0.240 -0.9134 -1.7238  1.5995
14301TIP3    H264319   2.096   3.357   0.204 -1.8778  0.9650 -0.1990
14302TIP3   OH264320   4.781   5.397  16.758 -0.4201  0.6316 -0.6246
14302TIP3    H164321   4.758   5.402  16.851  0.5466 -0.3264 -0.3063
14302TIP3    H264322   4.700   5.375  16.713 -0.5685 -0.6087  0.2093
14303TIP3   OH264323   0.320   0.671  15.050  0.2956 -0.2555  0.4252
14303TIP3    H164324   0.295   0.750  15.002  1.0254 -1.4483 -2.0571
14303TIP3    H264325   0.237   0.634  15.080 -0.0676  1.3205  1.5017
14304TIP3   OH264326   1.538   4.582  13.470  0.3139 -0.1056 -0.4402
14304TIP3    H164327   1.546   4.578  13.375  0.8487  0.3038 -0.4206
14304TIP3    H264328   1.451   4.618  13.485 -0.7210 -2.3830 -0.7189
14305TIP3   OH264329   1.404   0.254  13.460  0.1516 -0.3508 -0.1275
14305TIP3    H164330   1.329   0.313  13.470 -0.4833 -0.8930 -1.4393
14305TIP3    H264331   1.415   0.245  13.365  1.9822 -0.1729  0.0453
14306TIP3   OH264332   6.652   3.144  14.716  0.1027 -0.0231  0.2448
14306TIP3    H164333   6.620   3.095  14.641  1.5521 -1.3424  0.4334
14306TIP3    H264334   6.724   3.197  14.681  1.7251 -1.6867  0.8726
14307TIP3   OH264335   0.068   1.930  13.679  0.1610 -0.1407 -0.0205
14307TIP3    H164336   0.083   2.009  13.731  0.1390 -0.6663  0.7992
14307TIP3    H264337   0.023   1.870  13.739  1.5459 -1.3462 -0.1359
14308TIP3   OH264338   2.392   3.891   4.646 -0.0159 -0.0481  0.1303
14308TIP3    H164339   2.383   3.854   4.734  1.6621 -1.5944 -0.2965
14308TIP3    H264340   2.438   3.974   4.660  0.9335 -0.6538  0.6562
14309TIP3   OH264341   2.104   4.217  13.504 -0.5224  0.6373  0.8818
14309TIP3    H164342   2.056   4.178  13.431  1.4523  0.7466 -0.5603
14309TIP3    H264343   2.085   4.160  13.578 -0.6927 -0.8657 -0.2779
14310TIP3   OH264344   1.021   3.356   2.076  0.6714 -0.0402 -0.2515
14310TIP3    H164345   0.995   3.282   2.132 -0.5400  1.1930  0.9243
14310TIP3    H264346   1.032   3.318   1.989 -0.3572 -1.5279  0.2234
14311TIP3   OH264347   4.760   0.189  15.261  0.3954  0.1863  0.6657
14311TIP3    H164348   4.761   0.230  15.174 -1.6633  3.3121  1.9638
14311TIP3    H264349   4.802   0.253  15.318  1.0914 -1.5100  2.1367
14312TIP3   OH264350   5.428   5.485   5.670  0.5322  0.0770  0.3622
14312TIP3    H164351   5.436   5.566   5.620  3.4545 -0.2436  0.1411
14312TIP3    H264352   5.518   5.453   5.679 -0.4507 -2.8601  0.9252
14313TIP3   OH264353   4.914   5.604   2.033 -0.4974  0.1336  0.5479
14313TIP3    H164354   4.930   5.627   2.124  0.7930 -1.2077  0.7044
14313TIP3    H264355   5.001   5.605   1.992 -1.0539  0.6801 -0.6648
14314TIP3   OH264356   4.826   6.681   0.692 -0.6616 -0.5538  0.1944
14314TIP3    H164357   4.906   6.691   0.640 -0.3619 -0.6932  0.6190
14314TIP3    H264358   4.826   6.757   0.750 -0.9145 -0.4799  0.0992
14315TIP3   OH264359   3.362   0.067   6.633  0.3112 -0.1676 -0.5611
14315TIP3    H164360   3.454   0.075   6.611 -0.0209 -0.5148 -2.2050
14315TIP3    H264361   3.348  -0.027   6.645  0.0595 -0.1599 -0.7940
14316TIP3   OH264362   1.336   2.712   4.943 -0.5450 -0.0848 -0.1269
14316TIP3    H164363   1.375   2.702   5.030 -0.2904 -0.5318 -0.2866
14316TIP3    H264364   1.406   2.750   4.890 -0.5063 -0.3609 -0.2770
14317TIP3   OH264365   5.891   2.164   0.857 -1.0575 -0.5788 -0.2239
14317TIP3    H164366   5.870   2.123   0.941 -2.5443  1.0659  0.2835
14317TIP3    H264367   5.905   2.256   0.879  3.3674 -0.8539 -1.1158
14318TIP3   OH264368   4.938   0.863   5.751 -0.3594 -0.0894  0.0759
14318TIP3    H164369   5.025   0.826   5.767  0.2316 -0.5152 -3.4273
14318TIP3    H264370   4.952   0.931   5.686 -2.4731  1.1016  0.7503
14319TIP3   OH264371   4.982   4.851   2.198 -0.3305  0.0779 -0.0359
14319TIP3    H164372   5.047   4.854   2.268  0.0289  1.4082 -0.3932
14319TIP3    H264373   5.020   4.903   2.128 -1.0208 -0.6032 -0.9390
14320TIP3   OH264374   5.046   5.187  16.369 -0.0601 -0.0263  0.1216
14320TIP3    H164375   5.127   5.142  16.345 -1.0135 -1.9756  0.3182
14320TIP3    H264376   5.061   5.219  16.457 -0.1640 -2.2616  1.0196
14321TIP3   OH264377   0.856   4.956  14.186 -0.7855  0.2257  0.2124
14321TIP3    H164378   0.871   5.046  14.155 -0.0145  0.3876  1.0075
14321TIP3    H264379   0.771   4.960  14.230 -0.9330  0.4775 -0.0901
14322TIP3   OH264380   2.542   0.868  12.380 -0.4246 -0.0623  0.1311
14322TIP3    H164381   2.637   0.861  12.389 -0.4260  0.1022  0.2806
14322TIP3    H264382   2.517   0.790  12.332 -0.0824  0.4073 -0.8415
14323TIP3   OH264383   3.451   4.818   5.410 -0.1149 -0.0707 -0.2693
14323TIP3    H164384   3.519   4.837   5.475 -1.8006  0.3503  1.4818
14323TIP3    H264385   3.370   4.813   5.461 -1.3605 -1.0083 -2.1988
14324TIP3   OH264386   0.137   1.154  13.614  0.3626 -0.1317  0.2571
14324TIP3    H164387   0.222   1.154  13.659 -0.5426  0.7326  2.0708
14324TIP3    H264388   0.141   1.231  13.556  1.0376 -0.4710 -0.1670
14325TIP3   OH264389   2.240   0.922   5.025 -0.3839 -0.5560 -0.6217
14325TIP3    H164390   2.236   0.831   5.055  1.6990 -0.3660  0.3966
14325TIP3    H264391   2.226   0.916   4.930 -2.2431 -1.6887 -0.3424
14326TIP3   OH264392   3.192   2.291  10.682 -0.1065  0.6924  0.1330
14326TIP3    H164393   3.277   2.296  10.638 -0.8374  2.2514 -1.1976
14326TIP3    H264394   3.131   2.265  10.614 -0.6401 -1.1119  1.2318
14327TIP3   OH264395   0.227   1.906   2.532 -0.6858  0.5651 -0.2657
14327TIP3    H164396   0.160   1.847   2.566 -1.6350  1.0777 -1.1470
14327TIP3    H264397   0.208   1.990   2.574 -1.2428  0.9545 -1.2600
14328TIP3   OH264398   1.859   6.739  13.267 -0.3447 -0.1888  0.1736
14328TIP3    H164399   1.943   6.748  13.312  0.2819  1.0977 -1.1628
14328TIP3    H264400   1.802   6.804  13.309 -0.0982  0.2217 -0.1132
14329TIP3   OH264401   3.464   2.132   0.807 -0.3247  0.2430  0.3242
14329TIP3    H164402   3.540   2.143   0.749 -1.0429  1.0560 -0.4861
14329TIP3    H264403   3.453   2.038   0.814  1.8732  0.0105  1.9596
14330TIP3   OH264404   6.766   2.561   0.679  0.6586  0.3185  0.4014
14330TIP3    H164405   6.784   2.654   0.664 -1.2592  0.7771  0.7186
14330TIP3    H264406   6.680   2.546   0.640  1.7538 -1.8387 -1.3880
14331TIP3   OH264407   4.089   6.027  10.764 -0.6334  0.3304 -0.0481
14331TIP3    H164408   4.095   5.942  10.721  0.9300  0.3536  0.0856
14331TIP3    H264409   4.170   6.035  10.814 -1.8253  0.8497  1.9199
14332TIP3   OH264410   2.062   4.117  15.348 -0.5156 -0.0410 -0.4458
14332TIP3    H164411   2.154   4.089  15.351 -1.1164 -2.1527  2.2663
14332TIP3    H264412   2.018   4.048  15.298 -1.2286 -1.7025  2.2084
14333TIP3   OH264413   6.565   3.014   6.111 -0.7706 -0.3286 -0.1257
14333TIP3    H164414   6.551   3.096   6.159 -0.7059  0.3957 -1.3005
14333TIP3    H264415   6.659   3.012   6.093 -0.2997 -1.9626  2.0964
14334TIP3   OH264416   1.518   2.375   2.303  0.0862  0.4917 -0.7863
14334TIP3    H164417   1.479   2.426   2.232 -0.9595  1.7867  0.6333
14334TIP3    H264418   1.565   2.440   2.356  2.8527 -0.7933 -1.5246
14335TIP3   OH264419   1.261   3.053   3.705 -0.4030  0.7752 -0.6229
14335TIP3    H164420   1.354   3.072   3.713 -0.5018  1.0184 -0.0386
14335TIP3    H264421   1.217   3.138   3.713 -0.7516  0.5051  0.4735
14336TIP3   OH264422   3.885   2.561  13.163 -0.1443  0.1271  0.4035
14336TIP3    H164423   3.936   2.640  13.149 -0.8761  0.6547  0.6147
14336TIP3    H264424   3.928   2.494  13.111  0.0435  0.8527 -0.3887
14337TIP3   OH264425   6.713   6.625  13.785 -0.8138 -0.6749 -0.6110
14337TIP3    H164426   6.801   6.593  13.805 -1.7735 -2.2506  1.5640
14337TIP3    H264427   6.722   6.675  13.704  2.3077  0.3613  0.2514
14338TIP3   OH264428   3.154   2.653   4.879  0.1989  0.1014 -0.4141
14338TIP3    H164429   3.104   2.622   4.955 -0.3278  0.7903 -0.4750
14338TIP3    H264430   3.220   2.712   4.917  0.5226 -0.2526 -0.4102
14339TIP3   OH264431   4.939   4.669  11.926  0.3911  0.2919 -0.2244
14339TIP3    H164432   5.017   4.618  11.951 -0.0735 -0.4583 -0.2790
14339TIP3    H264433   4.878   4.656  11.998  0.1048  0.4234 -0.4417
14340TIP3   OH264434   2.151   3.764  16.818 -0.1271  0.5750 -0.4014
14340TIP3    H164435   2.087   3.747  16.887 -0.2971 -1.2930 -0.9741
14340TIP3    H264436   2.198   3.842  16.848 -1.3278  0.8180  0.9838
14341TIP3   OH264437   0.044   2.492  16.590 -0.0915  0.2225  0.0711
14341TIP3    H164438  -0.030   2.473  16.647  0.0954 -0.6017  0.0495
14341TIP3    H264439   0.121   2.483  16.646 -0.0419  2.6186  0.5037
14342TIP3   OH264440   3.097   1.008   2.134  0.1490 -0.6124 -0.1324
14342TIP3    H164441   3.074   1.101   2.137 -0.4190 -0.7630  0.6827
14342TIP3    H264442   3.176   1.005   2.080 -1.8428 -0.0920 -3.3396
14343TIP3   OH264443   4.002   0.372  12.317  0.4709  0.1092 -0.3712
14343TIP3    H164444   3.908   0.378  12.335  0.6057 -2.1402  1.6648
14343TIP3    H264445   4.019   0.441  12.253 -2.5321  0.6561 -0.7312
14344TIP3   OH264446   4.306   4.645   0.824 -0.7955  0.1285  0.9110
14344TIP3    H164447   4.332   4.572   0.768 -1.4208 -0.2045  1.0497
14344TIP3    H264448   4.240   4.608   0.883 -2.1215  1.1226  0.0993
14345TIP3   OH264449   1.619   2.520  12.115 -0.3751  0.1258  0.5685
14345TIP3    H164450   1.706   2.554  12.136 -0.8986  0.9833  1.3814
14345TIP3    H264451   1.570   2.595  12.082 -1.1922 -0.0652  1.2995
14346TIP3   OH264452   4.251   0.537   2.520  0.0740 -0.0380  0.3458
14346TIP3    H164453   4.319   0.472   2.502 -0.3040  0.0241 -1.5666
14346TIP3    H264454   4.192   0.493   2.582  0.4223 -1.1249 -0.0652
14347TIP3   OH264455   0.059   4.251   3.959  0.7689  0.3190 -0.4549
14347TIP3    H164456   0.011   4.217   4.035 -1.3922  1.7946 -1.0661
14347TIP3    H264457   0.096   4.173   3.918 -0.8891 -0.9047  0.2260
14348TIP3   OH264458   2.793   2.837   0.093  0.5908 -0.0624  0.0176
14348TIP3    H164459   2.718   2.778   0.085  1.7743 -1.6492  0.0495
14348TIP3    H264460   2.817   2.859   0.003  0.6966 -0.3548 -0.0246
14349TIP3   OH264461   5.512   2.324   4.827  0.0902  0.3076 -0.2435
14349TIP3    H164462   5.486   2.248   4.775  0.6272 -0.3682  0.4406
14349TIP3    H264463   5.455   2.320   4.904  1.7759 -0.9176  1.0404
14350TIP3   OH264464   3.648   5.561  13.436  0.0223  0.0283  0.0188
14350TIP3    H164465   3.665   5.468  13.448 -2.0789 -0.0953  3.8894
14350TIP3    H264466   3.707   5.604  13.498 -0.1369  1.1355 -0.5690
14351TIP3   OH264467   4.361   5.540   5.608 -1.1071  0.3551 -0.2457
14351TIP3    H164468   4.353   5.580   5.694  0.2231 -0.6478  0.3732
14351TIP3    H264469   4.281   5.487   5.600 -1.4621  0.8139  0.1582
14352TIP3   OH264470   3.749   2.004   0.450 -0.3980  0.1115 -0.2264
14352TIP3    H164471   3.793   1.923   0.477 -1.6670 -0.4322  0.2541
14352TIP3    H264472   3.742   2.055   0.531 -1.3981 -0.1746 -0.1192
14353TIP3   OH264473   0.629   2.232   6.151 -0.1541  0.2196 -0.2242
14353TIP3    H164474   0.535   2.246   6.162  0.0590  0.4919  1.5554
14353TIP3    H264475   0.649   2.155   6.203  0.6254  0.2183 -0.5074
14354TIP3   OH264476   1.695   5.618   0.458 -0.2860  0.0868 -0.2783
14354TIP3    H164477   1.783   5.655   0.464 -0.6966  1.3399 -1.5099
14354TIP3    H264478   1.668   5.606   0.549  2.1029 -2.8423  0.2348
14355TIP3   OH264479   1.469   5.610   5.950  0.2608 -0.4324 -0.0876
14355TIP3    H164480   1.537   5.631   5.886  0.7997 -1.7198  0.0355
14355TIP3    H264481   1.443   5.695   5.986  1.4170  0.1281 -0.5199
14356TIP3   OH264482   5.361   6.312   0.131  0.2373  0.1697 -0.5763
14356TIP3    H164483   5.440   6.263   0.106 -0.8629 -1.5108 -0.9232
14356TIP3    H264484   5.380   6.343   0.220  1.4157  0.1088 -0.7861
14357TIP3   OH264485   3.899   3.062   2.379  0.7631 -0.1756  0.2616
14357TIP3    H164486   3.885   2.969   2.396  2.1296 -0.5435 -0.4566
14357TIP3    H264487   3.814   3.103   2.395  0.0787 -1.5783  0.3436
14358TIP3   OH264488   5.324   5.418  12.739  0.4978 -0.3661 -0.4408
14358TIP3    H164489   5.238   5.397  12.705  0.2537  1.3366 -0.9938
14358TIP3    H264490   5.380   5.424  12.661  0.7300  0.1434 -0.2403
14359TIP3   OH264491   5.870   5.186   1.378  0.3118  0.3538  0.0161
14359TIP3    H164492   5.899   5.097   1.398 -0.1855 -0.1414 -1.3186
14359TIP3    H264493   5.782   5.191   1.415  0.2405  0.1866 -0.1244
14360TIP3   OH264494   0.474   5.707  12.271  0.1988 -0.1411  0.6040
14360TIP3    H164495   0.534   5.635  12.289  1.3178  0.6611  0.1555
14360TIP3    H264496   0.414   5.672  12.205  1.3640 -0.3589 -0.3775
14361TIP3   OH264497   5.446   5.380  13.742  0.1742 -0.2749  0.3413
14361TIP3    H164498   5.357   5.389  13.776  0.1233 -0.5466  0.2843
14361TIP3    H264499   5.469   5.468  13.710  0.0157 -0.1509  0.5679
14362TIP3   OH264500   5.582   1.258   4.778  0.1673 -0.0858  0.0761
14362TIP3    H164501   5.634   1.268   4.698  0.5224  0.6153  0.3861
14362TIP3    H264502   5.507   1.204   4.752  0.8345 -0.7682 -0.4759
14363TIP3   OH264503   0.566   4.117  12.212 -0.3309  0.5132  0.4462
14363TIP3    H164504   0.614   4.192  12.248 -0.6603 -0.4573  3.1479
14363TIP3    H264505   0.596   4.042  12.264 -0.5674 -1.1319 -1.6698
14364TIP3   OH264506   5.724   0.485  13.172 -0.3587  0.2612  0.1092
14364TIP3    H164507   5.772   0.513  13.094 -0.3234  0.0575  0.0570
14364TIP3    H264508   5.719   0.390  13.164  0.2373  0.1721  0.6931
14365TIP3   OH264509   6.407   2.265   3.555 -0.2255  0.1798 -0.4632
14365TIP3    H164510   6.412   2.291   3.647  1.0602  2.6121 -1.1251
14365TIP3    H264511   6.493   2.229   3.535  0.7810  2.8569 -1.4656
14366TIP3   OH264512   6.351   0.176   1.513  0.4253  0.2014  0.8248
14366TIP3    H164513   6.437   0.142   1.538  1.6130  1.3662 -1.3535
14366TIP3    H264514   6.302   0.099   1.484  1.7056 -0.1976 -0.3927
14367TIP3   OH264515   5.395   0.980  11.446  0.0516 -0.0101  0.0526
14367TIP3    H164516   5.399   1.033  11.526  0.4911  2.3838 -1.4547
14367TIP3    H264517   5.303   0.956  11.437  0.1265 -1.0780  1.6841
14368TIP3   OH264518   4.333   6.710   4.954  0.1225 -0.4786 -0.2900
14368TIP3    H164519   4.408   6.663   4.991 -0.2279 -1.6244 -0.9852
14368TIP3    H264520   4.372   6.782   4.905  0.6735 -0.0271  0.7909
14369TIP3   OH264521   1.981   2.966  11.902 -0.1002  0.5807  0.3471
14369TIP3    H164522   1.948   3.037  11.848 -0.1880 -0.4291 -0.9604
14369TIP3    H264523   1.926   2.891  11.881  1.9879 -0.7452 -0.7682
14370TIP3   OH264524   3.606   3.491   4.031 -0.3669  0.4636  0.1548
14370TIP3    H164525   3.691   3.491   3.987 -0.4478  0.9079 -0.0067
14370TIP3    H264526   3.613   3.560   4.097 -0.4573  0.2179  0.4201
14371TIP3   OH264527   6.645   2.272   6.630  0.8574  0.0890  0.2488
14371TIP3    H164528   6.733   2.295   6.601  1.5836 -1.3895  1.1712
14371TIP3    H264529   6.632   2.182   6.599  0.1620 -0.1548  1.1928
14372TIP3   OH264530   0.017   6.539  11.690 -0.1209 -0.0243  0.8803
14372TIP3    H164531   0.058   6.531  11.604  0.0198  1.2046  0.8181
14372TIP3    H264532   0.067   6.480  11.746 -0.6557 -1.3891 -0.0102
14373TIP3   OH264533   5.001   0.084  11.536 -0.0173 -0.2029  0.1834
14373TIP3    H164534   5.061   0.055  11.468 -0.3776 -0.7359  0.0830
14373TIP3    H264535   4.926   0.120  11.489 -0.5757 -1.2070  0.2690
14374TIP3   OH264536   3.685   6.083   6.015  0.1625 -0.0502  0.2429
14374TIP3    H164537   3.698   6.093   5.921  1.3014 -0.0827  0.3853
14374TIP3    H264538   3.606   6.029   6.023  0.2011 -0.2613 -0.6978
14375TIP3   OH264539   5.486   4.486  14.241 -0.2712  0.0678 -0.0641
14375TIP3    H164540   5.480   4.516  14.331 -2.1935  0.1139 -0.1743
14375TIP3    H264541   5.543   4.410  14.245 -1.9065 -1.1530  1.5553
14376TIP3   OH264542   0.855   4.800   0.725 -0.4537  0.0131 -0.3317
14376TIP3    H164543   0.804   4.819   0.804  1.0166  0.5752  0.5252
14376TIP3    H264544   0.789   4.785   0.657 -1.7574 -1.0679  1.1147
14377TIP3   OH264545   6.058   3.836   4.660 -0.1380  0.5100  0.0595
14377TIP3    H164546   6.089   3.920   4.696  0.3231 -0.6126  2.4746
14377TIP3    H264547   5.970   3.826   4.697 -0.2722  0.0104 -0.3903
14378TIP3   OH264548   0.763   1.822  13.675 -0.6452  0.5384 -0.4212
14378TIP3    H164549   0.726   1.895  13.724  0.0528  0.2477  0.5742
14378TIP3    H264550   0.849   1.808  13.715 -1.2152 -1.5607  0.1884
14379TIP3   OH264551   5.467   0.736   4.046 -0.5087  0.1651 -0.3018
14379TIP3    H164552   5.456   0.800   3.975  2.5521 -0.0871 -1.1321
14379TIP3    H264553   5.477   0.790   4.124 -2.8656  0.4704 -0.1254
14380TIP3   OH264554   4.767   2.638  11.293  0.1223 -0.2836 -0.1762
14380TIP3    H164555   4.794   2.564  11.347  0.8588  1.3177  1.7937
14380TIP3    H264556   4.679   2.659  11.323  0.5255  0.6001  0.4361
14381TIP3   OH264557   3.398   0.546  15.854  1.4385  0.2351 -0.0975
14381TIP3    H164558   3.478   0.508  15.817  0.6040 -0.5318 -1.1684
14381TIP3    H264559   3.407   0.641  15.841  1.5520  0.0419 -1.5097
14382TIP3   OH264560   4.384   1.235  13.212  0.1406  0.3578  0.0330
14382TIP3    H164561   4.336   1.161  13.249 -0.1181 -0.6279 -2.1587
14382TIP3    H264562   4.328   1.311  13.228 -0.2879 -0.1412  0.9807
14383TIP3   OH264563   2.244   6.280  12.000  0.1329 -0.2217 -0.1376
14383TIP3    H164564   2.252   6.374  12.012 -0.5495 -0.1210 -0.4510
14383TIP3    H264565   2.334   6.250  11.985  0.3446  0.3817 -0.1004
14384TIP3   OH264566   6.542   0.441  15.065 -0.6291  0.1002  0.3115
14384TIP3    H164567   6.526   0.349  15.045 -0.4206 -0.3173  1.9653
14384TIP3    H264568   6.458   0.484  15.050 -0.6255 -0.2597 -0.8555
14385TIP3   OH264569   0.543   3.422  12.102  0.1472 -0.2581 -0.3129
14385TIP3    H164570   0.469   3.391  12.154 -0.4353 -1.1305 -1.6374
14385TIP3    H264571   0.514   3.417  12.011  1.3650  0.6651 -0.7908
14386TIP3   OH264572   3.623   5.025  13.597  0.7756  0.2693  0.2431
14386TIP3    H164573   3.640   5.069  13.680  0.2611  0.4320  0.2688
14386TIP3    H264574   3.667   4.940  13.604 -1.5163 -0.9128  1.8093
14387TIP3   OH264575   6.591   5.681   0.301  0.1403 -0.5812  0.5495
14387TIP3    H164576   6.652   5.607   0.300 -0.0036 -0.7643  2.1623
14387TIP3    H264577   6.518   5.653   0.248  1.5302 -0.2576 -1.6511
14388TIP3   OH264578   4.156   2.045  13.986 -0.1028 -0.1537 -0.3998
14388TIP3    H164579   4.108   1.964  14.005  1.1141 -0.9793 -0.7410
14388TIP3    H264580   4.231   2.044  14.045  0.3542  0.3318 -0.9543
14389TIP3   OH264581   4.243   0.257  15.907  0.3874  0.0667  0.2061
14389TIP3    H164582   4.161   0.215  15.881  1.0277  0.1920 -2.3013
14389TIP3    H264583   4.216   0.342  15.943 -0.6511 -0.6957  1.3179
14390TIP3   OH264584   4.069   3.459   1.359  0.9848 -0.3708 -0.5051
14390TIP3    H164585   4.107   3.544   1.341 -0.7067  0.3976 -0.6216
14390TIP3    H264586   4.004   3.475   1.428  3.9305 -2.4057  3.1135
14391TIP3   OH264587   0.857   1.390   1.454 -0.3972  0.1010 -0.3933
14391TIP3    H164588   0.848   1.454   1.384  2.3655 -0.6850 -1.5732
14391TIP3    H264589   0.949   1.366   1.454 -0.8045 -1.8799  1.8229
14392TIP3   OH264590   0.964   3.784  14.593 -0.7488 -0.2104 -0.2196
14392TIP3    H164591   0.983   3.878  14.601 -1.5893 -0.1416  1.2780
14392TIP3    H264592   0.941   3.772  14.501 -0.8384  1.0849 -0.3835
14393TIP3   OH264593   3.095   0.888   5.249  0.5247  0.4356 -0.1981
14393TIP3    H164594   3.128   0.956   5.190  1.5711  0.4999  0.4262
14393TIP3    H264595   3.147   0.898   5.329 -1.5697  1.0359  1.1686
14394TIP3   OH264596   0.711   3.167   1.777  0.0475  0.2279 -0.5936
14394TIP3    H164597   0.681   3.158   1.687  0.3868 -1.3394 -0.5774
14394TIP3    H264598   0.805   3.150   1.773  0.0508  0.0511  0.0498
14395TIP3   OH264599   1.833   4.496   5.025  0.1490 -0.6817 -0.4826
14395TIP3    H164600   1.829   4.564   5.092  1.6043 -1.0154 -0.0120
14395TIP3    H264601   1.848   4.543   4.943  1.7356 -0.4188 -0.0803
14396TIP3   OH264602   2.954   6.325  14.346  0.4634  0.8394  0.1782
14396TIP3    H164603   2.999   6.241  14.362 -2.3405 -0.3133  3.3780
14396TIP3    H264604   2.876   6.301  14.296  1.0906  2.0859 -1.4607
14397TIP3   OH264605   4.147   0.074   2.792 -0.2131  0.3441  0.5264
14397TIP3    H164606   4.178  -0.016   2.805 -1.4112  0.1511  2.5117
14397TIP3    H264607   4.213   0.114   2.735  2.2212 -0.8022  2.3302
14398TIP3   OH264608   2.990   0.743   1.270 -0.7032 -0.3493 -0.1855
14398TIP3    H164609   3.055   0.801   1.310 -2.9861  1.8770  0.5865
14398TIP3    H264610   2.945   0.703   1.345 -0.5567 -1.5012 -0.6970
14399TIP3   OH264611   3.636   3.692  10.241 -0.1477  0.1728  0.0472
14399TIP3    H164612   3.678   3.660  10.321  0.6710 -0.7637 -0.7211
14399TIP3    H264613   3.551   3.647  10.239 -0.5568  0.8891  0.8297
14400TIP3   OH264614   4.759   5.647   6.048 -0.2943 -0.0687  0.5725
14400TIP3    H164615   4.838   5.699   6.062 -0.6732  0.5983  0.2322
14400TIP3    H264616   4.726   5.676   5.963 -1.9175  0.9675  1.5216
14401TIP3   OH264617   6.162   1.970  14.865 -0.5905 -0.0642 -0.0926
14401TIP3    H164618   6.167   1.941  14.956  1.1883 -0.2448 -0.2176
14401TIP3    H264619   6.253   1.983  14.838 -1.0394 -0.4133 -1.9687
14402TIP3   OH264620   4.418   5.102  13.608 -0.7875  0.2781  0.2699
14402TIP3    H164621   4.460   5.018  13.587 -0.2956  0.4959  0.3948
14402TIP3    H264622   4.372   5.085  13.690  0.2718  0.4580  0.9134
14403TIP3   OH264623   2.472   6.042   0.675 -0.3029  0.1429 -0.2684
14403TIP3    H164624   2.393   6.014   0.629 -0.4884  0.7591 -0.3310
14403TIP3    H264625   2.479   5.982   0.749 -2.7397  2.1248  1.7486
14404TIP3   OH264626   0.588   2.212  14.835  0.2942  0.0185  0.3348
14404TIP3    H164627   0.511   2.269  14.838  0.7035  0.5239  1.5628
14404TIP3    H264628   0.566   2.147  14.767 -0.7218  0.8356 -0.1471
14405TIP3   OH264629   4.752   0.760  13.117 -0.2761  0.3974  0.4618
14405TIP3    H164630   4.690   0.814  13.168 -1.9523 -1.4979  0.5589
14405TIP3    H264631   4.818   0.733  13.181  0.7059  2.3759  0.3781
14406TIP3   OH264632   3.894   5.613  11.669  0.0526 -0.2765 -0.2729
14406TIP3    H164633   3.928   5.547  11.729 -1.2333 -1.0863 -0.3853
14406TIP3    H264634   3.831   5.663  11.721 -3.0344 -2.6181 -1.4396
14407TIP3   OH264635   4.912   5.770  13.677  0.4028 -0.3829 -0.5639
14407TIP3    H164636   4.843   5.776  13.743  1.8862  0.3549  1.0151
14407TIP3    H264637   4.869   5.792  13.594 -1.1651  0.3871  0.4054
14408TIP3   OH264638   4.049   3.658   3.302  0.4933 -0.3510 -0.3117
14408TIP3    H164639   4.030   3.648   3.395 -2.1286 -0.3421 -0.7877
14408TIP3    H264640   3.996   3.732   3.274 -0.1128 -1.4185 -2.1494
14409TIP3   OH264641   5.429   1.523  10.447 -0.0549  0.0721  0.2383
14409TIP3    H164642   5.341   1.547  10.417 -0.7029 -1.0435  1.1562
14409TIP3    H264643   5.414   1.465  10.522  1.4142 -1.8975 -0.8916
14410TIP3   OH264644   4.000   4.924  17.282  0.2651  0.4504 -0.0099
14410TIP3    H164645   4.018   4.847  17.228 -0.4592 -0.4503  1.0011
14410TIP3    H264646   3.983   4.889  17.369  1.2058  1.8678  0.7715
14411TIP3   OH264647   2.627   6.183  13.996  0.4732 -0.3391 -0.0430
14411TIP3    H164648   2.707   6.132  14.007 -0.1680 -1.2548  0.5583
14411TIP3    H264649   2.557   6.120  14.010 -0.3639  0.3258 -1.1449
14412TIP3   OH264650   0.238   0.594   3.954 -0.3491  0.2231 -0.2990
14412TIP3    H164651   0.150   0.632   3.960 -0.6533 -0.6709  1.5659
14412TIP3    H264652   0.239   0.550   3.869 -0.9335  1.9831 -1.2903
14413TIP3   OH264653   4.278   0.158   4.185 -0.1088 -0.7908  0.2598
14413TIP3    H164654   4.267   0.096   4.257 -1.3114 -2.8931 -1.6184
14413TIP3    H264655   4.371   0.155   4.165  0.1865 -0.4226  1.4825
14414TIP3   OH264656   1.114   2.597   1.606 -0.2791  0.5848  0.4713
14414TIP3    H164657   1.140   2.588   1.698 -0.2225 -0.0149  0.4028
14414TIP3    H264658   1.122   2.508   1.571  3.0497  1.3100 -0.9982
14415TIP3   OH264659   3.230   0.894  16.655 -0.4838  0.3383 -0.0115
14415TIP3    H164660   3.221   0.874  16.748 -0.0931 -2.6973 -0.5411
14415TIP3    H264661   3.172   0.832  16.611  0.4741  0.7062 -1.8774
14416TIP3   OH264662   5.393   0.606  13.835 -0.5139  0.1092  0.5083
14416TIP3    H164663   5.456   0.534  13.828 -0.9448 -0.3445  1.1028
14416TIP3    H264664   5.445   0.685  13.825  0.2286 -0.2467  1.3942
14417TIP3   OH264665   4.543   4.741   4.190 -0.0281 -0.2546  0.0527
14417TIP3    H164666   4.491   4.768   4.267 -0.5615 -0.4884 -0.2186
14417TIP3    H264667   4.525   4.648   4.181 -1.3684  0.0943 -1.3882
14418TIP3   OH264668   5.787   3.421   3.162 -0.0685 -0.1566  0.2464
14418TIP3    H164669   5.802   3.337   3.120 -1.7160 -0.0060 -0.7491
14418TIP3    H264670   5.787   3.484   3.090 -1.0469  0.3770  0.6982
14419TIP3   OH264671   3.615   4.196  15.722  1.1433  0.0951 -0.1864
14419TIP3    H164672   3.667   4.143  15.782  0.3848  0.4916  0.8366
14419TIP3    H264673   3.564   4.254  15.778 -0.4912 -0.3492 -1.1575
14420TIP3   OH264674   6.011   0.743   5.975  0.2222  0.4749  0.5790
14420TIP3    H164675   6.093   0.774   5.936  0.1986 -0.2173 -0.0317
14420TIP3    H264676   6.040   0.684   6.045  0.2554 -0.2405 -0.0231
14421TIP3   OH264677   1.258   4.184  11.490  0.1747 -0.0216 -0.2511
14421TIP3    H164678   1.250   4.121  11.562 -0.8326  0.3218 -0.0514
14421TIP3    H264679   1.252   4.130  11.411  1.6251 -0.4447 -0.1092
14422TIP3   OH264680   4.218   3.419   2.634 -0.0295  0.5749 -0.1465
14422TIP3    H164681   4.203   3.350   2.570  0.8768  0.2805 -0.0563
14422TIP3    H264682   4.193   3.500   2.589 -2.1722  0.1256  0.1155
14423TIP3   OH264683   2.015   2.940  16.708 -0.0631  0.0813  0.1517
14423TIP3    H164684   2.086   2.876  16.703  0.7273  0.5967  2.8886
14423TIP3    H264685   1.953   2.901  16.769 -0.8861  0.7558 -0.2449
14424TIP3   OH264686   3.210   4.007   5.108 -0.2789  0.2499 -0.2471
14424TIP3    H164687   3.207   3.922   5.151  1.6664 -0.6366 -1.7278
14424TIP3    H264688   3.239   4.068   5.176  1.9509 -0.9735 -0.0273
14425TIP3   OH264689   0.088   0.108   1.745 -0.4839  0.4091  0.3862
14425TIP3    H164690   0.146   0.156   1.804 -0.0405  1.4088 -0.8323
14425TIP3    H264691   0.099   0.016   1.771 -0.6513  0.8354  2.1438
14426TIP3   OH264692   6.536   6.779  13.901  0.2798  0.6948  0.6959
14426TIP3    H164693   6.452   6.733  13.911 -0.3502  1.6629  0.0398
14426TIP3    H264694   6.598   6.710  13.879 -0.2795 -0.0768  1.4458
14427TIP3   OH264695   2.672   2.055  13.348  0.0508  0.1303  0.0480
14427TIP3    H164696   2.632   2.081  13.265  0.8925 -0.8103 -0.6759
14427TIP3    H264697   2.670   1.959  13.347  1.9761  0.0397  0.1248
14428TIP3   OH264698   6.558   2.048   4.634  0.1237 -0.1106 -0.0481
14428TIP3    H164699   6.526   2.029   4.546  0.9028  1.1067 -0.6289
14428TIP3    H264700   6.544   1.967   4.683 -4.1787  0.4138 -0.0699
14429TIP3   OH264701   2.779   6.593  13.561 -0.3434  0.0086 -0.4319
14429TIP3    H164702   2.814   6.553  13.481 -0.0096 -1.9276  0.6162
14429TIP3    H264703   2.705   6.646  13.532  0.4824  0.2816 -2.1355
14430TIP3   OH264704   2.522   5.718  13.561 -0.3388 -0.7888  0.1450
14430TIP3    H164705   2.560   5.689  13.644 -2.3811  2.0576  2.3050
14430TIP3    H264706   2.448   5.773  13.587  1.1984  3.5458 -3.4347
14431TIP3   OH264707   1.002   2.438   3.039 -0.3765  0.1915  0.3668
14431TIP3    H164708   0.951   2.512   3.005  0.3043  0.1865 -0.6984
14431TIP3    H264709   1.086   2.443   2.993  0.5893  0.1796  2.0686
14432TIP3   OH264710   1.521   2.326  12.736  0.4634 -0.5252  0.0209
14432TIP3    H164711   1.497   2.284  12.654 -0.0774  0.5501 -0.3863
14432TIP3    H264712   1.462   2.401  12.744  1.4891  0.2538  0.6508
14433TIP3   OH264713   1.503   5.830  14.148  0.6079 -0.5273 -0.2931
14433TIP3    H164714   1.546   5.893  14.091 -0.1731 -1.3641 -1.8945
14433TIP3    H264715   1.414   5.822  14.113  0.1527 -1.2360  0.9253
14434TIP3   OH264716   1.097   6.699   3.822  0.3855 -0.1664 -0.2073
14434TIP3    H164717   1.030   6.764   3.842  0.4058 -0.3371  0.4105
14434TIP3    H264718   1.050   6.616   3.819  0.2940 -0.1019 -1.3539
14435TIP3   OH264719   0.667   4.969   3.555 -0.1757  0.1368  0.1214
14435TIP3    H164720   0.684   4.889   3.505 -0.6826  0.1183 -0.0223
14435TIP3    H264721   0.706   4.952   3.641 -0.0102 -0.1426 -0.0064
14436TIP3   OH264722   2.496   2.508  14.571 -0.4149  0.3409 -0.2144
14436TIP3    H164723   2.534   2.480  14.488 -0.7294 -0.8647  0.0235
14436TIP3    H264724   2.542   2.456  14.638 -1.7246 -0.4174  0.1582
14437TIP3   OH264725   1.903   5.367   4.460 -0.1290 -0.0468 -0.1601
14437TIP3    H164726   1.989   5.376   4.420  0.1414  0.3336  0.4787
14437TIP3    H264727   1.921   5.328   4.546 -0.3239  2.0260  0.8983
14438TIP3   OH264728   6.739   3.505   0.475  0.1415 -0.1466 -0.3963
14438TIP3    H164729   6.795   3.575   0.441 -0.0298 -0.2180 -0.8224
14438TIP3    H264730   6.758   3.503   0.569  1.8073 -1.0125 -0.7147
14439TIP3   OH264731   3.162   0.133   6.068 -0.1385 -0.7242 -0.4330
14439TIP3    H164732   3.116   0.199   6.120  0.1967  0.1551 -1.2105
14439TIP3    H264733   3.096   0.066   6.050 -1.1154  0.4481 -1.4098
14440TIP3   OH264734   4.054   3.277   5.940 -0.4890  0.4443 -0.1994
14440TIP3    H164735   4.061   3.247   5.849 -1.0362 -1.6242  0.3899
14440TIP3    H264736   3.961   3.298   5.951 -0.6078 -0.2259  0.1291
14441TIP3   OH264737   3.357   0.217  17.104 -0.3736  0.0157  0.2764
14441TIP3    H164738   3.330   0.159  17.175 -2.1004  2.0703  1.4131
14441TIP3    H264739   3.435   0.261  17.138 -0.7877  0.4777  0.6570
14442TIP3   OH264740   1.822   4.573  16.795  0.4633 -0.8600 -0.0018
14442TIP3    H164741   1.900   4.588  16.742  0.2314  0.9940  0.1244
14442TIP3    H264742   1.848   4.504  16.857  1.3121 -1.7354 -1.2937
14443TIP3   OH264743   1.009   4.823   5.374 -0.4832 -0.3866  0.1562
14443TIP3    H164744   1.071   4.872   5.428 -0.3011  0.7357 -1.0378
14443TIP3    H264745   1.031   4.731   5.390 -0.4441 -0.1044  1.9827
14444TIP3   OH264746   6.701   2.932  14.515 -0.2553  0.4846  0.1806
14444TIP3    H164747   6.622   2.895  14.555 -0.9334  1.5620 -0.1211
14444TIP3    H264748   6.676   2.947  14.424  0.3309  0.7382  0.0601
14445TIP3   OH264749   4.336   4.411   0.649  0.3101 -0.1180 -1.1288
14445TIP3    H164750   4.269   4.407   0.581 -1.2129 -1.8987  0.3785
14445TIP3    H264751   4.399   4.344   0.624  0.7807  0.5357 -1.7518
14446TIP3   OH264752   1.610   4.978  13.392 -0.2793 -1.1679  0.0453
14446TIP3    H164753   1.574   5.057  13.433  0.1389  0.9060 -3.2093
14446TIP3    H264754   1.541   4.949  13.332  0.7461 -1.3357 -1.0984
14447TIP3   OH264755   4.385   4.163  15.768 -0.5800 -0.4297  0.1366
14447TIP3    H164756   4.383   4.180  15.862  0.0046  0.8066 -0.0522
14447TIP3    H264757   4.293   4.147  15.744 -0.6772 -1.2236  0.9759
14448TIP3   OH264758   0.106   4.317  14.007  0.6694  0.4148  0.4687
14448TIP3    H164759   0.188   4.355  13.975  1.6231 -2.3803 -0.6899
14448TIP3    H264760   0.057   4.294  13.927  0.4360 -1.2850  1.0637
14449TIP3   OH264761   1.202   4.944  16.681  0.1169 -0.4628 -0.1716
14449TIP3    H164762   1.231   4.905  16.598  0.4273 -1.6396  0.4600
14449TIP3    H264763   1.219   5.037  16.671 -1.9425 -0.1989 -2.2930
14450TIP3   OH264764   1.330   3.698  17.220 -0.4061  0.0719 -0.2173
14450TIP3    H164765   1.266   3.692  17.150  0.5236 -0.0030 -1.0740
14450TIP3    H264766   1.340   3.792  17.236 -2.3355  0.0767  1.4683
14451TIP3   OH264767   6.604   1.788   0.255 -0.5846  0.1397  0.6467
14451TIP3    H164768   6.543   1.814   0.186 -0.6602 -0.7720  0.3493
14451TIP3    H264769   6.568   1.826   0.335 -0.7992  0.7449  0.2643
14452TIP3   OH264770   1.393   3.870   5.938  0.2721  0.1912 -0.3288
14452TIP3    H164771   1.466   3.885   5.998 -0.2221  1.3623  0.0096
14452TIP3    H264772   1.366   3.780   5.955  1.0624  0.0382  0.1738
14453TIP3   OH264773   3.957   2.924   5.361  0.2331 -0.0871  0.2135
14453TIP3    H164774   3.931   2.832   5.354  2.5996 -0.7380 -1.0563
14453TIP3    H264775   3.896   2.970   5.304 -1.0721 -0.8195  0.9770
14454TIP3   OH264776   0.978   6.548  11.776 -0.0121  0.4007  0.1948
14454TIP3    H164777   0.926   6.529  11.698  1.9623  0.8153 -1.2848
14454TIP3    H264778   0.996   6.642  11.772  2.0555  0.0381 -0.1668
14455TIP3   OH264779   5.393   5.265   1.622  0.3677  0.2128  0.2510
14455TIP3    H164780   5.374   5.253   1.715 -0.6139  2.7887  0.4546
14455TIP3    H264781   5.488   5.273   1.618  0.3529  0.9618  1.1753
14456TIP3   OH264782   5.451   2.811  16.635 -0.1356 -0.3208 -0.1176
14456TIP3    H164783   5.383   2.745  16.627 -0.7333 -0.1177  2.3685
14456TIP3    H264784   5.410   2.892  16.604  0.1105 -0.7930 -1.7489
14457TIP3   OH264785   4.534   6.702   0.632  0.0110  0.0240  0.0527
14457TIP3    H164786   4.586   6.655   0.568 -3.0220 -0.2776 -2.3763
14457TIP3    H264787   4.503   6.780   0.586 -1.1986  0.5063  1.5765
14458TIP3   OH264788   5.643   1.473   0.715  0.0564  0.3018  0.4690
14458TIP3    H164789   5.553   1.498   0.694 -0.2538 -0.0266  1.3375
14458TIP3    H264790   5.636   1.382   0.744  0.9104 -0.2615 -0.9857
14459TIP3   OH264791   1.761   4.024   1.216 -0.4417  0.0619 -0.4145
14459TIP3    H164792   1.806   4.040   1.133 -1.6462  1.4688 -0.8228
14459TIP3    H264793   1.810   4.076   1.280  0.5008 -1.0406 -0.1963
14460TIP3   OH264794   0.718   6.229  13.281 -0.6012 -0.0988  0.0122
14460TIP3    H164795   0.643   6.262  13.331  0.2756 -0.5858  1.7303
14460TIP3    H264796   0.680   6.195  13.200 -1.9230  1.9494 -0.3056
14461TIP3   OH264797   6.416   3.070  15.264  0.1652  0.0794 -0.5801
14461TIP3    H164798   6.416   2.997  15.325 -0.8952  0.7863  0.2987
14461TIP3    H264799   6.390   3.032  15.180  1.2532 -0.8265 -0.5309
14462TIP3   OH264800   0.589   1.830  12.590 -0.1922 -0.3524 -0.2012
14462TIP3    H164801   0.659   1.895  12.597  0.4279 -1.1114  0.7376
14462TIP3    H264802   0.524   1.857  12.655  0.0903 -0.6930  0.2269
14463TIP3   OH264803   0.445   3.628   4.401 -0.0001 -0.4906  0.1805
14463TIP3    H164804   0.360   3.585   4.390  0.1553 -0.8791  0.4989
14463TIP3    H264805   0.499   3.591   4.331 -0.2977  0.2924 -0.4812
14464TIP3   OH264806   1.834   0.430  12.142 -0.1255 -0.2399 -0.1481
14464TIP3    H164807   1.905   0.366  12.148 -0.3713 -0.4822  0.2413
14464TIP3    H264808   1.867   0.497  12.082  0.8257  0.1664  0.7891
14465TIP3   OH264809   2.881   4.260   3.200 -0.5857 -0.7602 -0.4652
14465TIP3    H164810   2.900   4.331   3.140 -1.8382  0.9503  1.0694
14465TIP3    H264811   2.823   4.202   3.152  0.3725 -0.7418 -1.6997
14466TIP3   OH264812   4.995   6.225   3.697 -0.0641  0.4972 -0.1951
14466TIP3    H164813   5.038   6.253   3.617 -1.7252  0.8282 -1.0110
14466TIP3    H264814   5.067   6.199   3.755  1.1832  0.5552 -1.6564
14467TIP3   OH264815   6.486   6.749  12.467 -0.2212  0.3380 -0.0961
14467TIP3    H164816   6.447   6.707  12.544 -1.2335  1.9016  0.2941
14467TIP3    H264817   6.420   6.812  12.439  0.8218  0.9339 -1.2705
14468TIP3   OH264818   3.403   6.461   3.624  1.0579 -0.5261 -0.1344
14468TIP3    H164819   3.362   6.398   3.684  2.0555  1.4564  2.8326
14468TIP3    H264820   3.497   6.440   3.628  1.1253 -0.5069 -1.2482
14469TIP3   OH264821   2.493   2.552   3.981  0.0871 -0.0735  0.2151
14469TIP3    H164822   2.570   2.496   3.998  2.3370  2.7784  0.2140
14469TIP3    H264823   2.493   2.564   3.887  0.0141  0.4124  0.2766
14470TIP3   OH264824   5.617   2.499   3.533 -0.1626 -0.0456 -0.2842
14470TIP3    H164825   5.605   2.430   3.469  0.7190  0.4468 -1.0156
14470TIP3    H264826   5.553   2.566   3.509  0.2649  0.2013 -0.7530
14471TIP3   OH264827   0.989   2.828  17.258  0.2304  0.1893  0.3922
14471TIP3    H164828   0.990   2.846  17.352 -2.8084  0.0347  0.5646
14471TIP3    H264829   1.006   2.913  17.218  0.6660  0.4408  1.0916
14472TIP3   OH264830   0.759   6.422   2.332  0.4419 -0.0501  0.5311
14472TIP3    H164831   0.830   6.482   2.309  1.0951 -0.6869  0.8814
14472TIP3    H264832   0.711   6.410   2.250  0.4908  0.6909  0.3842
14473TIP3   OH264833   4.592   0.472  14.630  0.2280 -0.7007 -0.0556
14473TIP3    H164834   4.649   0.446  14.558  1.0959  0.9998 -0.0126
14473TIP3    H264835   4.650   0.508  14.696 -0.7310 -0.5637  0.7451
14474TIP3   OH264836   0.399   6.261  12.671 -0.0218 -0.6459 -0.9184
14474TIP3    H164837   0.451   6.290  12.596  1.3252 -0.4409  0.0322
14474TIP3    H264838   0.378   6.342  12.718  1.7372 -0.9165  0.4857
14475TIP3   OH264839   3.843   0.548   5.810 -0.2895  0.3252 -0.1620
14475TIP3    H164840   3.934   0.549   5.782  0.4166  0.5973  1.9160
14475TIP3    H264841   3.828   0.637   5.843 -1.2706  0.2503 -0.3930
14476TIP3   OH264842   4.341   1.030  12.115  0.1940  0.7653  0.0462
14476TIP3    H164843   4.349   1.121  12.145  1.9324  0.6863 -0.0552
14476TIP3    H264844   4.430   1.007  12.087  0.1123 -1.4206  1.3740
14477TIP3   OH264845   5.033   4.340   3.787 -0.4925 -0.6954  0.7770
14477TIP3    H164846   5.077   4.273   3.838 -0.2115 -0.4329  0.8802
14477TIP3    H264847   5.071   4.422   3.817  0.1943 -0.5794 -0.3484
14478TIP3   OH264848   5.996   2.092   1.450  0.4054 -0.0428 -0.5408
14478TIP3    H164849   5.969   2.082   1.541  2.7954  1.3797  0.4290
14478TIP3    H264850   5.918   2.071   1.399 -1.1828 -0.2682  1.8306
14479TIP3   OH264851   3.857   0.857   3.877  0.2387 -0.3635 -0.2444
14479TIP3    H164852   3.792   0.927   3.877 -1.7244 -2.0803 -0.3159
14479TIP3    H264853   3.807   0.777   3.863  2.3076 -1.8693  0.3029
14480TIP3   OH264854   2.551   6.375  13.823 -0.4206  0.0196  0.3942
14480TIP3    H164855   2.561   6.331  13.739 -2.5935 -0.8443  0.5310
14480TIP3    H264856   2.581   6.310  13.887  1.6301  0.8224  0.3470
14481TIP3   OH264857   6.713   4.255  16.665  0.6321 -0.3941 -0.6428
14481TIP3    H164858   6.726   4.208  16.583 -0.9294  0.4439 -1.4351
14481TIP3    H264859   6.786   4.316  16.670  0.2722  0.1848 -1.9236
14482TIP3   OH264860   0.549   4.949   2.010 -0.1698  0.3783 -0.1412
14482TIP3    H164861   0.574   4.932   2.100  2.5015 -0.5876 -0.9920
14482TIP3    H264862   0.508   5.036   2.012  1.7516  1.3006  1.6880
14483TIP3   OH264863   6.620   3.195   2.370  0.5517  0.1384 -0.3174
14483TIP3    H164864   6.560   3.199   2.295 -0.8618  1.6722  0.8237
14483TIP3    H264865   6.663   3.281   2.370  0.7607  0.0376  0.4428
14484TIP3   OH264866   5.461   3.142   0.530  0.2029  0.8250 -0.1957
14484TIP3    H164867   5.508   3.219   0.562  0.3090  0.7338 -0.1334
14484TIP3    H264868   5.385   3.178   0.484  1.7093  1.1163 -2.6441
14485TIP3   OH264869   3.277   4.092   4.113  0.0926 -0.2048  0.0976
14485TIP3    H164870   3.228   4.153   4.057  1.0911  1.9579  1.4588
14485TIP3    H264871   3.344   4.056   4.056 -1.8099 -1.7576 -1.2928
14486TIP3   OH264872   1.530   4.196  12.310 -0.6532 -0.0596 -0.1977
14486TIP3    H164873   1.621   4.197  12.341  0.4454  1.8029 -3.0687
14486TIP3    H264874   1.477   4.197  12.390  1.8390 -0.3789  1.5704
14487TIP3   OH264875   4.314   0.667  15.413 -0.0752 -0.3833 -0.0663
14487TIP3    H164876   4.331   0.623  15.496  1.2285 -0.2706 -0.2513
14487TIP3    H264877   4.401   0.687  15.378 -0.6028  1.7787 -0.2746
14488TIP3   OH264878   4.099   5.196  15.209  0.1201  0.4685  0.3693
14488TIP3    H164879   4.013   5.225  15.177  0.0935 -0.0957 -0.0749
14488TIP3    H264880   4.124   5.264  15.272 -0.5394  0.7692  0.3235
14489TIP3   OH264881   4.877   3.767  11.127 -0.0399 -0.1315 -0.1202
14489TIP3    H164882   4.849   3.838  11.185 -0.2272 -0.0644 -0.2919
14489TIP3    H264883   4.955   3.731  11.169  1.5124  1.7241 -1.2083
14490TIP3   OH264884   0.991   1.927  13.098 -0.1474 -0.5041 -0.0368
14490TIP3    H164885   0.951   1.879  13.026  2.1739 -0.2979 -1.5765
14490TIP3    H264886   1.073   1.961  13.061  1.9665 -1.7134  3.1272
14491TIP3   OH264887   5.719   6.669   5.326 -0.2772  0.4259  0.0972
14491TIP3    H164888   5.747   6.590   5.279  1.0044 -0.4440  2.1720
14491TIP3    H264889   5.799   6.721   5.335 -0.7182  1.0599  0.3846
14492TIP3   OH264890   4.830   2.055   0.077 -0.8556 -0.1485 -0.8511
14492TIP3    H164891   4.800   1.979   0.027 -0.1520 -0.0915 -1.3836
14492TIP3    H264892   4.917   2.029   0.109 -0.9578  0.1246 -0.3481
14493TIP3   OH264893   4.892   6.724   4.856  0.4968 -0.7304 -0.4704
14493TIP3    H164894   4.849   6.684   4.780  0.8820  2.4656 -2.5554
14493TIP3    H264895   4.822   6.774   4.899  0.1888 -2.8037  1.6761
14494TIP3   OH264896   5.679   0.845  15.937  0.6431  0.1720  0.0404
14494TIP3    H164897   5.743   0.785  15.900  0.6233 -0.4702  0.9981
14494TIP3    H264898   5.717   0.932  15.924  1.6790 -0.1899  0.5247
14495TIP3   OH264899   4.280   4.480   3.407 -0.2682 -0.7326 -0.2850
14495TIP3    H164900   4.269   4.417   3.336  0.6707 -1.5472  0.2645
14495TIP3    H264901   4.289   4.426   3.485  2.8034 -0.0656 -0.0627
14496TIP3   OH264902   4.514   0.734   4.884 -1.1018  0.0322  0.4105
14496TIP3    H164903   4.453   0.678   4.836  0.7343 -1.7039  0.0040
14496TIP3    H264904   4.538   0.802   4.821 -2.4598  0.6587  0.5329
14497TIP3   OH264905   6.516   0.793  14.910 -0.3372  0.2831  0.3052
14497TIP3    H164906   6.507   0.889  14.910 -1.3412  0.2499 -1.9707
14497TIP3    H264907   6.451   0.763  14.973 -0.9715  1.0634  0.0452
14498TIP3   OH264908   6.576   2.926  12.945  0.5169 -0.0329  0.3329
14498TIP3    H164909   6.488   2.927  12.908  0.5979  0.2694  0.1452
14498TIP3    H264910   6.601   2.833  12.945 -0.0655 -0.1908  1.0242
14499TIP3   OH264911   6.733   4.175  12.549  0.0771 -0.2706  1.1805
14499TIP3    H164912   6.705   4.112  12.615 -0.5289 -2.0964 -0.7257
14499TIP3    H264913   6.828   4.182  12.560  0.0701 -1.0661  1.7836
14500TIP3   OH264914   4.688   2.578   0.795 -0.3305 -0.1550  0.1015
14500TIP3    H164915   4.649   2.651   0.746 -1.6163  0.9643  2.5835
14500TIP3    H264916   4.782   2.592   0.789 -0.4742  0.3179 -1.4231
14501TIP3   OH264917   1.132   3.300   3.646 -0.1267 -0.4328  0.1417
14501TIP3    H164918   1.038   3.296   3.661 -0.2243  0.0853 -0.3145
14501TIP3    H264919   1.158   3.386   3.678  0.4178 -1.0627  1.4631
14502TIP3   OH264920   0.170   2.487   5.576 -0.1452  0.3825  0.0934
14502TIP3    H164921   0.232   2.541   5.527  1.5729 -1.1677  0.4746
14502TIP3    H264922   0.091   2.541   5.581  1.1099  2.3875 -0.4978
14503TIP3   OH264923   5.226   6.298   5.541  0.1242 -0.1042 -0.1193
14503TIP3    H164924   5.237   6.263   5.453 -1.1944 -0.3327 -0.2105
14503TIP3    H264925   5.132   6.296   5.556  0.3728 -0.6783  1.5479
14504TIP3   OH264926   4.371   0.493   1.522 -0.3934 -0.3209 -1.0805
14504TIP3    H164927   4.374   0.585   1.495 -4.3677  0.1550 -0.5394
14504TIP3    H264928   4.401   0.493   1.613  2.3197 -0.1139 -1.9081
14505TIP3   OH264929   4.076   0.262  12.084  0.0193 -0.3428  0.3861
14505TIP3    H164930   3.995   0.274  12.034  0.1338  0.9125  0.4469
14505TIP3    H264931   4.050   0.273  12.175  0.3798  0.9627  0.3499
14506TIP3   OH264932   3.386   3.236   3.299  0.4135  0.3141 -0.4203
14506TIP3    H164933   3.440   3.312   3.322  0.5093  0.0815  0.1348
14506TIP3    H264934   3.296   3.267   3.310  0.4075  0.8007 -1.6577
14507TIP3   OH264935   2.207   3.699   4.008 -0.0100  0.1756  0.1225
14507TIP3    H164936   2.190   3.674   4.099 -1.1483 -1.0348 -0.3821
14507TIP3    H264937   2.129   3.749   3.983 -0.1630 -0.3516 -0.4696
14508TIP3   OH264938   5.715   5.806   6.060 -0.4357  0.2581 -0.0166
14508TIP3    H164939   5.720   5.895   6.095 -0.4550  0.3675 -0.2923
14508TIP3    H264940   5.733   5.816   5.967 -0.5917 -0.0092 -0.0748
14509TIP3   OH264941   1.319   4.421   1.788 -0.0660  0.0739 -0.3680
14509TIP3    H164942   1.299   4.331   1.763  2.3267 -0.4668 -0.4999
14509TIP3    H264943   1.312   4.421   1.884  0.9753 -0.5570 -0.2780
14510TIP3   OH264944   6.581   1.895   2.520 -0.0558 -0.0936 -0.4134
14510TIP3    H164945   6.522   1.872   2.592 -0.6894 -0.5124 -1.0531
14510TIP3    H264946   6.571   1.824   2.458 -0.4003  0.8289 -1.4419
14511TIP3   OH264947   3.926   3.498  10.891  0.0673 -0.8229 -0.0958
14511TIP3    H164948   3.853   3.539  10.845 -0.3528 -2.3114 -0.8065
14511TIP3    H264949   3.884   3.438  10.954  0.6608 -0.2336  0.8873
14512TIP3   OH264950   4.017   1.127   3.169 -0.3400  0.2846  0.9274
14512TIP3    H164951   4.091   1.129   3.230  0.3244 -0.2063  0.1552
14512TIP3    H264952   4.010   1.036   3.143 -0.9252  0.4145  0.6287
14513TIP3   OH264953   0.444   5.220   4.539 -0.2941 -0.4709  0.4087
14513TIP3    H164954   0.532   5.182   4.541  0.5425  1.3504  0.4932
14513TIP3    H264955   0.427   5.245   4.629  0.6542  2.3532 -0.0705
14514TIP3   OH264956   5.191   0.224   4.098 -0.2026 -0.5838 -0.1203
14514TIP3    H164957   5.226   0.311   4.115 -2.1391  0.3922 -0.7940
14514TIP3    H264958   5.228   0.199   4.014 -0.7911  0.2684 -0.6518
14515TIP3   OH264959   2.777   1.323  15.054  0.1035  0.2069 -0.0557
14515TIP3    H164960   2.700   1.372  15.083  0.3174  0.9329 -0.6622
14515TIP3    H264961   2.775   1.242  15.105 -0.0950  0.9864  1.2236
14516TIP3   OH264962   6.464   5.704   5.314 -0.6127  0.5231 -0.3201
14516TIP3    H164963   6.441   5.635   5.376  0.0720 -0.1287 -0.7666
14516TIP3    H264964   6.464   5.785   5.365  0.6135 -0.0843  0.7044
14517TIP3   OH264965   3.769   2.142   0.674  0.3831 -0.1250 -0.1429
14517TIP3    H164966   3.794   2.213   0.733 -1.6386 -0.0728  0.7143
14517TIP3    H264967   3.779   2.062   0.726 -0.3374 -0.1759 -0.0676
14518TIP3   OH264968   1.253   1.365  12.360 -0.1449 -0.1805  0.9129
14518TIP3    H164969   1.179   1.426  12.372  1.0044  1.4925 -0.0665
14518TIP3    H264970   1.212   1.283  12.333 -1.6501  0.7411  0.2767
14519TIP3   OH264971   3.960   2.234  16.917 -0.2541 -0.8935  0.2438
14519TIP3    H164972   4.022   2.165  16.895 -0.3121 -0.9304  0.1986
14519TIP3    H264973   3.877   2.189  16.931 -0.4905 -0.7323 -0.6357
14520TIP3   OH264974   1.862   1.779   0.590 -0.5925  0.0818 -0.1400
14520TIP3    H164975   1.932   1.820   0.540  1.0832 -1.9959  0.3584
14520TIP3    H264976   1.795   1.759   0.525 -0.0797  0.7201 -0.8911
14521TIP3   OH264977   5.624   1.782  14.174 -0.3507  0.4213  0.3280
14521TIP3    H164978   5.699   1.841  14.179 -0.3249  0.3211  1.3218
14521TIP3    H264979   5.642   1.715  14.240  0.3745 -1.5943 -1.7863
14522TIP3   OH264980   5.308   0.375   2.761 -0.8387  0.3226  0.1245
14522TIP3    H164981   5.260   0.312   2.707 -2.8119  1.8026  0.0171
14522TIP3    H264982   5.240   0.420   2.811  0.6053  1.5876  1.0253
14523TIP3   OH264983   4.459   2.264  17.197  0.0534  0.3689  0.0232
14523TIP3    H164984   4.497   2.179  17.220 -0.6862  0.5889  2.2561
14523TIP3    H264985   4.365   2.253  17.210  0.0444  1.8419  1.5436
14524TIP3   OH264986   6.144   0.900  12.287  0.4188 -0.3631  0.0976
14524TIP3    H164987   6.087   0.951  12.229 -0.4231 -1.5478 -0.1455
14524TIP3    H264988   6.220   0.957  12.302 -0.0881  0.6034 -0.8588
14525TIP3   OH264989   6.572   0.128   4.709  0.1239  0.4464  0.6632
14525TIP3    H164990   6.484   0.137   4.673 -0.8094  1.2948  2.9499
14525TIP3    H264991   6.626   0.184   4.653 -0.8823  0.4123 -0.3971
14526TIP3   OH264992   1.044   0.766   1.892 -0.1382  0.6822 -0.7745
14526TIP3    H164993   0.986   0.783   1.817  0.6921 -1.9281 -2.1349
14526TIP3    H264994   1.132   0.781   1.857  0.1973  0.8101  0.1130
14527TIP3   OH264995   1.408   1.187   4.712  0.0485  0.1027 -0.1827
14527TIP3    H164996   1.476   1.245   4.677  1.4783 -0.2873  1.7458
14527TIP3    H264997   1.361   1.242   4.775  0.3925 -0.3908  0.5082
14528TIP3   OH264998   6.046   3.163  10.705  0.3041 -0.0518  0.4635
14528TIP3    H164999   6.030   3.241  10.758 -0.1544 -0.1326  0.4475
14528TIP3    H265000   6.095   3.195  10.630 -1.5937  0.6017 -0.5821
14529TIP3   OH265001   3.986   1.522  10.095 -0.2328  0.2276 -0.2144
14529TIP3    H165002   4.059   1.521  10.157 -0.3947  0.3692 -0.0190
14529TIP3    H265003   3.913   1.482  10.143 -0.2537 -0.0115 -0.4457
14530TIP3   OH265004   1.023   5.227   6.151 -0.5269  0.3547 -0.5211
14530TIP3    H165005   1.030   5.299   6.213  0.5507 -0.1342 -0.0368
14530TIP3    H265006   1.063   5.152   6.197 -1.7334 -0.5897 -0.9490
14531TIP3   OH265007   5.618   0.118   3.675 -0.2682  0.5752  0.7674
14531TIP3    H165008   5.700   0.078   3.704 -0.8320 -0.5192  0.9071
14531TIP3    H265009   5.597   0.182   3.744  0.6337  1.1184  0.5509
14532TIP3   OH265010   4.049   5.389  14.496  0.2957  0.0670 -0.2928
14532TIP3    H165011   4.128   5.334  14.498  0.1262 -0.2012 -0.7404
14532TIP3    H265012   4.081   5.477  14.518  1.0724  0.3614 -2.3259
14533TIP3   OH265013   6.038   3.043   3.650 -1.4030 -0.2843 -0.5682
14533TIP3    H165014   6.069   3.090   3.572 -1.6496  2.4902  0.8855
14533TIP3    H265015   5.944   3.060   3.653 -1.1467  1.1096  1.1750
14534TIP3   OH265016   4.907   1.027  12.695 -0.4055 -0.1029 -0.1412
14534TIP3    H165017   4.924   0.971  12.620 -0.3082 -1.5613  0.9387
14534TIP3    H265018   4.896   0.967  12.768 -0.3214  1.2896  1.0563
14535TIP3   OH265019   2.648   5.557  12.125  0.4476 -0.1532 -0.2677
14535TIP3    H165020   2.634   5.513  12.042  0.4778  1.1120 -0.9636
14535TIP3    H265021   2.584   5.517  12.184 -0.8578  0.1797 -1.3871
14536TIP3   OH265022   0.781   1.034   4.966  0.5124  0.0771  0.0281
14536TIP3    H165023   0.858   1.071   5.010  0.9085  1.6686 -1.8184
14536TIP3    H265024   0.811   0.950   4.932  0.5417 -0.6289  1.7027
14537TIP3   OH265025   1.204   4.601   3.063  0.3957  0.2079 -0.4370
14537TIP3    H165026   1.181   4.512   3.089  0.5768  0.6927  1.5614
14537TIP3    H265027   1.120   4.647   3.058  0.3500  0.0828 -0.9077
14538TIP3   OH265028   6.560   6.420  16.032  0.1067  0.2198 -0.2985
14538TIP3    H165029   6.531   6.365  15.960 -2.7418  0.0320  0.8580
14538TIP3    H265030   6.491   6.485  16.042  1.0418  1.0268  1.4434
14539TIP3   OH265031   0.588   1.972  15.466 -0.1121 -0.1717 -0.1700
14539TIP3    H165032   0.620   1.992  15.554 -0.5614 -0.0491 -0.0301
14539TIP3    H265033   0.493   1.966  15.476 -0.0906 -1.0941 -0.4675
14540TIP3   OH265034   0.441   2.982  11.661 -0.2103  0.2063 -0.5270
14540TIP3    H165035   0.444   2.961  11.568 -0.4001  2.9445 -1.2358
14540TIP3    H265036   0.348   2.979  11.683 -0.1514 -0.6008 -0.3683
14541TIP3   OH265037   5.741   1.804   5.751 -0.4299 -0.4129 -0.3548
14541TIP3    H165038   5.656   1.809   5.708 -0.8248 -0.3499  0.4082
14541TIP3    H265039   5.763   1.711   5.750 -1.1280 -0.6015  0.5957
14542TIP3   OH265040   1.621   0.449  15.956  0.4946 -0.0561 -0.5615
14542TIP3    H165041   1.604   0.399  16.036 -0.2633 -1.1667 -1.3839
14542TIP3    H265042   1.550   0.512  15.952  2.2247  2.2135  1.2435
14543TIP3   OH265043   1.359   4.563  15.870  0.6105  0.2684  0.0103
14543TIP3    H165044   1.375   4.477  15.832 -1.0175  0.0767 -0.2904
14543TIP3    H265045   1.374   4.624  15.799 -0.6000  0.0413 -0.4611
14544TIP3   OH265046   5.667   5.885   3.716 -0.0178 -0.2344 -0.2602
14544TIP3    H165047   5.636   5.927   3.636  0.1428 -1.2021 -0.8415
14544TIP3    H265048   5.597   5.823   3.739  0.5774 -0.9940 -0.4686
14545TIP3   OH265049   3.867   1.100   1.224 -0.5418 -0.6487 -0.0744
14545TIP3    H165050   3.902   1.060   1.144  2.8943 -1.8796  1.8218
14545TIP3    H265051   3.844   1.025   1.279 -0.7702  0.1359  0.9127
14546TIP3   OH265052   5.748   4.668  10.905 -0.0663  0.0505  0.3092
14546TIP3    H165053   5.813   4.656  10.974  0.4447  0.9997  0.0097
14546TIP3    H265054   5.771   4.751  10.864 -1.3448  0.3158  0.0621
14547TIP3   OH265055   4.850   5.807  14.660  0.1155 -0.0691 -0.3810
14547TIP3    H165056   4.784   5.835  14.724 -0.0095  0.5814 -0.7901
14547TIP3    H265057   4.896   5.888  14.636 -0.4301 -0.1529 -1.7874
14548TIP3   OH265058   1.504   6.717   3.390  1.0791 -0.3403  0.0401
14548TIP3    H165059   1.423   6.715   3.440  0.5563 -0.9865 -0.8024
14548TIP3    H265060   1.509   6.631   3.349  0.5699  0.7115 -2.4224
14549TIP3   OH265061   0.441   6.352   3.799  0.4320 -0.1589 -0.2441
14549TIP3    H165062   0.495   6.360   3.720  0.2055 -0.8501 -0.4769
14549TIP3    H265063   0.451   6.261   3.826 -1.1083 -0.4817 -0.6643
14550TIP3   OH265064   6.379   1.506  13.456  0.5946  0.2157  0.1622
14550TIP3    H165065   6.428   1.427  13.479 -0.0003  0.1165  1.1367
14550TIP3    H265066   6.446   1.566  13.424  1.1531 -0.4291  0.0827
14551TIP3   OH265067   1.464   1.760  11.152  0.2844  0.6693  0.4665
14551TIP3    H165068   1.422   1.846  11.154 -2.1405 -0.4052 -0.6703
14551TIP3    H265069   1.556   1.778  11.171  0.0968  3.6471 -0.8766
14552TIP3   OH265070   3.433   5.271   0.183  0.1038  0.1297 -0.3605
14552TIP3    H165071   3.400   5.288   0.095  2.6480 -0.5525 -1.5546
14552TIP3    H265072   3.521   5.308   0.184  0.9344 -1.6569  1.1934
14553TIP3   OH265073   6.656   5.353  16.293  0.8269  0.3715 -0.1060
14553TIP3    H165074   6.629   5.428  16.347  2.0642  2.1506 -1.8213
14553TIP3    H265075   6.586   5.343  16.229 -0.6842 -1.7966  1.7029
14554TIP3   OH265076   5.070   5.989  14.085  0.1700  0.2104  0.2893
14554TIP3    H165077   5.015   6.041  14.143 -0.0304 -0.2487  0.5163
14554TIP3    H265078   5.143   5.961  14.140 -0.3636 -0.7881  0.5185
14555TIP3   OH265079   0.756   4.092   4.859 -1.0965  0.7237  0.2438
14555TIP3    H165080   0.778   4.060   4.772  0.7636  0.8178  0.6341
14555TIP3    H265081   0.713   4.176   4.844  0.2829  1.3100 -0.5598
14556TIP3   OH265082   2.227   6.188  15.398 -0.1875  0.1696  0.3643
14556TIP3    H165083   2.237   6.098  15.368  1.8986  0.1068  1.0892
14556TIP3    H265084   2.203   6.181  15.490 -1.2769  0.3726  0.1065
14557TIP3   OH265085   3.387   0.154  12.978 -0.6048 -0.0386 -0.6467
14557TIP3    H165086   3.299   0.120  12.965 -1.1395  1.8158 -2.6029
14557TIP3    H265087   3.413   0.186  12.891  1.5570  0.4501  0.1166
14558TIP3   OH265088   3.712   6.016   1.750  0.6377 -0.0392 -0.0829
14558TIP3    H165089   3.699   6.081   1.818  2.6931 -0.4375  0.7459
14558TIP3    H265090   3.728   5.934   1.797  0.4748 -0.6729 -1.0791
14559TIP3   OH265091   5.885   0.630  11.720 -0.2791 -0.2320 -0.1973
14559TIP3    H165092   5.897   0.552  11.775 -1.6405  1.5847  2.9266
14559TIP3    H265093   5.794   0.624  11.690 -1.4272  1.4227  2.5317
14560TIP3   OH265094   1.040   2.070   2.770 -0.2603 -0.5713 -0.3466
14560TIP3    H165095   1.046   2.083   2.675  0.3446  0.6245 -0.1652
14560TIP3    H265096   0.970   2.006   2.780 -0.3380 -0.7252 -1.6034
14561TIP3   OH265097   6.483   2.442  15.462 -0.5551 -0.1155 -0.6419
14561TIP3    H165098   6.451   2.493  15.388  0.3775  0.7413 -0.4828
14561TIP3    H265099   6.535   2.371  15.422 -1.6646 -0.8249 -0.8553
14562TIP3   OH265100   5.935   3.838   3.500  0.0230 -0.7948 -0.4401
14562TIP3    H165101   5.941   3.869   3.591 -2.3893 -0.1657 -0.4379
14562TIP3    H265102   6.015   3.786   3.488  0.5009 -0.7654  1.9862
14563TIP3   OH265103   3.696   5.998   2.316 -0.2356  0.2070  0.3552
14563TIP3    H165104   3.623   6.051   2.284 -0.3576 -0.0901  0.1410
14563TIP3    H265105   3.654   5.931   2.371  0.0709  1.7398  2.6245
14564TIP3   OH265106   1.117   6.570  17.123  0.1436  0.3257  0.3939
14564TIP3    H165107   1.116   6.607  17.211 -1.9479 -3.0114  2.0024
14564TIP3    H265108   1.131   6.476  17.137 -3.8442 -0.9432 -2.4308
14565TIP3   OH265109   0.966   4.672   2.933 -0.3104  0.1395  0.2524
14565TIP3    H165110   0.989   4.764   2.927  0.0285  0.3464  3.2014
14565TIP3    H265111   0.879   4.666   2.895  0.9323  0.9704 -3.0587
14566TIP3   OH265112   6.636   1.193   5.606  0.1349  0.5628  0.4806
14566TIP3    H165113   6.649   1.107   5.646  0.5364 -0.0278 -0.8550
14566TIP3    H265114   6.724   1.219   5.577 -0.4026  0.1172 -1.6532
14567TIP3   OH265115   1.056   4.520  13.155 -0.2186 -0.1003 -0.3147
14567TIP3    H165116   0.977   4.541  13.104 -0.6658 -0.4407  0.2274
14567TIP3    H265117   1.113   4.474  13.094  0.6209  2.2367 -1.4422
14568TIP3   OH265118   0.997   3.996  12.226 -0.5594  0.1428 -0.0650
14568TIP3    H165119   1.040   3.971  12.144  0.6310 -0.2756  0.6577
14568TIP3    H265120   0.981   4.090  12.217 -0.8317  0.0252 -0.9352
14569TIP3   OH265121   1.772   3.153  16.822  0.4742  0.2583 -0.2231
14569TIP3    H165122   1.713   3.099  16.769 -2.0077  2.6095 -0.0590
14569TIP3    H265123   1.789   3.231  16.769  0.6290  1.1788  1.1279
14570TIP3   OH265124   1.301   1.443   3.385  0.2169  0.3352 -0.4421
14570TIP3    H165125   1.313   1.348   3.381 -1.1397  0.1378 -0.3066
14570TIP3    H265126   1.294   1.470   3.293 -1.3747  0.0006 -0.4467
14571TIP3   OH265127   4.056   2.526  12.419  0.6356 -0.3702 -0.0427
14571TIP3    H165128   3.983   2.477  12.380  0.7016 -0.5029  0.0021
14571TIP3    H265129   4.134   2.485  12.383  0.6857  0.0736 -0.4600
14572TIP3   OH265130   2.926   0.012   5.318 -0.2754 -0.0781  0.4902
14572TIP3    H165131   2.868   0.064   5.375 -0.4698  0.0981  0.1368
14572TIP3    H265132   2.919   0.055   5.233  1.1645  0.5648  0.6716
14573TIP3   OH265133   0.497   0.343  15.113  0.1905  0.0121  0.2803
14573TIP3    H165134   0.566   0.329  15.049 -1.4561  0.7028 -1.7493
14573TIP3    H265135   0.518   0.428  15.152  0.7533 -0.0404  0.1067
14574TIP3   OH265136   0.801   5.953   2.467  0.4624 -0.2473  0.1160
14574TIP3    H165137   0.737   5.951   2.396  0.9387 -0.3457 -0.3195
14574TIP3    H265138   0.818   6.046   2.480  0.8892 -0.2447 -0.3860
14575TIP3   OH265139   4.577   2.726  14.150  0.3132  0.1708 -0.2092
14575TIP3    H165140   4.582   2.811  14.193 -1.1080  0.3628 -0.3570
14575TIP3    H265141   4.502   2.683  14.190 -0.0594 -0.2910 -1.3502
14576TIP3   OH265142   4.266   6.392   0.961  0.1176 -0.0624  0.0724
14576TIP3    H165143   4.361   6.396   0.970  0.1261 -0.0614 -0.0173
14576TIP3    H265144   4.245   6.456   0.893  0.1137 -0.4743 -0.3232
14577TIP3   OH265145   0.546   0.376  14.602  0.1419  0.7376 -0.1633
14577TIP3    H165146   0.523   0.439  14.670 -0.3116  2.4489 -1.8212
14577TIP3    H265147   0.473   0.380  14.540 -0.0992 -1.7526 -0.1468
14578TIP3   OH265148   2.862   6.185   5.621  0.4208 -0.1736 -0.1026
14578TIP3    H165149   2.868   6.280   5.616  1.0976 -0.1485  0.9686
14578TIP3    H265150   2.839   6.167   5.713 -0.2442 -1.0236 -0.4186
14579TIP3   OH265151   2.837   4.701  17.106 -0.8213 -0.0836 -0.3121
14579TIP3    H165152   2.822   4.792  17.081 -2.8775 -0.3484 -0.2810
14579TIP3    H265153   2.928   4.683  17.082 -0.9460  1.4027 -2.1102
14580TIP3   OH265154   0.696   2.655   4.854  0.3548 -0.0737 -0.0966
14580TIP3    H165155   0.668   2.593   4.921  0.0031  0.4889  0.2938
14580TIP3    H265156   0.652   2.737   4.877  1.1392  0.4387 -0.3534
14581TIP3   OH265157   5.067   5.221   1.749  0.0984  0.3918 -0.2784
14581TIP3    H165158   5.156   5.231   1.783  0.8152 -0.7857 -1.7369
14581TIP3    H265159   5.022   5.301   1.777  0.6792 -0.3000  3.1224
14582TIP3   OH265160   0.306   5.778  14.383  0.1633  0.6350  0.4434
14582TIP3    H165161   0.350   5.748  14.303 -0.6774  1.0061 -0.1809
14582TIP3    H265162   0.328   5.871  14.389 -2.3905  1.4954 -1.2555
14583TIP3   OH265163   4.172   5.911   5.672 -0.6570  0.4676  0.0632
14583TIP3    H165164   4.121   5.842   5.714 -1.4740  1.7650  1.2729
14583TIP3    H265165   4.109   5.980   5.653  0.7970  2.8950  3.2269
14584TIP3   OH265166   0.571   4.745   6.540  0.2067  0.4888 -0.1615
14584TIP3    H165167   0.652   4.794   6.552 -0.0856  0.6662  1.2283
14584TIP3    H265168   0.502   4.804   6.569 -0.2980 -0.1403 -0.0517
14585TIP3   OH265169   6.359   3.901  13.419 -0.1240 -0.0887 -0.2187
14585TIP3    H165170   6.409   3.840  13.365 -1.4693 -1.5982  0.1540
14585TIP3    H265171   6.385   3.881  13.509 -0.7599 -0.3320 -0.0793
14586TIP3   OH265172   6.603   0.503   2.071 -0.1111 -0.4561 -0.1080
14586TIP3    H165173   6.666   0.574   2.080 -0.2316 -0.3433 -0.1612
14586TIP3    H265174   6.519   0.546   2.062 -0.4085 -0.6419  1.5815
14587TIP3   OH265175   6.075   6.581  10.643 -0.2384  0.1505  0.1274
14587TIP3    H165176   6.067   6.520  10.570 -0.2901 -0.4942  0.6603
14587TIP3    H265177   6.113   6.660  10.605  1.0073 -0.6488 -0.3440
14588TIP3   OH265178   5.117   3.684  14.822  0.4466 -0.1116 -0.2552
14588TIP3    H165179   5.171   3.686  14.743  0.3036 -0.1104 -0.3558
14588TIP3    H265180   5.178   3.693  14.894  0.3592  2.8932 -0.4305
14589TIP3   OH265181   1.520   6.103   1.462 -0.7224  0.3226  0.0429
14589TIP3    H165182   1.517   6.014   1.495  1.8462 -1.0595 -2.9186
14589TIP3    H265183   1.467   6.102   1.382 -1.4294  1.7375  0.4507
14590TIP3   OH265184   3.631   4.807  14.306  0.6175  0.0507 -0.0623
14590TIP3    H165185   3.675   4.725  14.329  0.5536 -0.1973 -0.7807
14590TIP3    H265186   3.542   4.797  14.338  0.6638 -0.0847  0.0225
14591TIP3   OH265187   6.744   0.049   4.038 -0.2098  0.0647 -0.1939
14591TIP3    H165188   6.775   0.114   3.975  1.5693 -0.0794  0.4825
14591TIP3    H265189   6.735   0.097   4.120  3.6638 -0.9090  0.9989
14592TIP3   OH265190   5.287   2.978   4.218 -0.7400  0.5289  0.7177
14592TIP3    H165191   5.369   3.016   4.188 -0.1000 -1.1663  0.2384
14592TIP3    H265192   5.222   3.007   4.154 -0.4569  1.5044  0.8518
14593TIP3   OH265193   4.382   6.616   1.526  0.0268 -0.3319 -0.0583
14593TIP3    H165194   4.458   6.671   1.548  0.8326 -1.2870 -0.3778
14593TIP3    H265195   4.314   6.678   1.502  0.4609  0.5814  0.9904
14594TIP3   OH265196   6.162   3.759  15.261 -0.2087  0.7757  0.3826
14594TIP3    H165197   6.149   3.751  15.166 -2.7120  1.0665  0.6265
14594TIP3    H265198   6.223   3.689  15.283 -2.0342 -1.4100 -1.0432
14595TIP3   OH265199   2.623   3.947   3.507  0.3233  0.3356  0.5324
14595TIP3    H165200   2.698   3.955   3.448  0.9609  1.6335  1.4730
14595TIP3    H265201   2.619   3.854   3.527  1.6831  0.2233  0.4273
14596TIP3   OH265202   5.593   0.408   6.498 -0.1980  0.4005  0.1390
14596TIP3    H165203   5.578   0.464   6.421 -1.3152  1.0181  0.7684
14596TIP3    H265204   5.650   0.338   6.467 -2.6038 -0.7801 -1.9419
14597TIP3   OH265205   0.479   2.961   2.673 -0.0592  0.5033 -0.1608
14597TIP3    H165206   0.441   3.027   2.615  1.7843  0.9785 -0.8998
14597TIP3    H265207   0.489   3.006   2.757  0.1844  0.8420 -0.3652
14598TIP3   OH265208   3.468   3.862  12.607 -0.5461 -0.1728  0.0686
14598TIP3    H165209   3.469   3.933  12.671 -1.4757 -0.6177  0.5950
14598TIP3    H265210   3.386   3.872  12.559 -0.1599 -0.2322 -0.6271
14599TIP3   OH265211   3.911   0.508   3.113  0.0849  0.0059  0.0573
14599TIP3    H165212   3.989   0.562   3.128  0.2571  0.0809 -0.9726
14599TIP3    H265213   3.943   0.418   3.117  0.0211  0.0101  0.6580
14600TIP3   OH265214   3.845   5.352  10.620 -0.3505  0.6856  0.2705
14600TIP3    H165215   3.765   5.303  10.636  0.4285 -1.2161 -1.2657
14600TIP3    H265216   3.874   5.380  10.707 -0.4539 -2.3082  1.3942
14601TIP3   OH265217   1.625   0.744   5.144  0.3097 -0.2262 -0.0713
14601TIP3    H165218   1.688   0.675   5.123 -0.3065 -0.5677 -0.8023
14601TIP3    H265219   1.627   0.749   5.240  1.5409 -0.1394 -0.0876
14602TIP3   OH265220   6.033   0.652  15.636 -0.0304 -0.2706  0.2452
14602TIP3    H165221   6.021   0.706  15.558  2.6632 -2.7944 -2.1638
14602TIP3    H265222   6.120   0.674  15.668  0.1424 -1.4700  0.6539
14603TIP3   OH265223   4.402   2.902  16.814 -0.2063  0.7776 -0.0626
14603TIP3    H165224   4.393   2.932  16.724 -0.6225  1.1202  0.0923
14603TIP3    H265225   4.317   2.918  16.854  0.1336  1.1431  0.5407
14604TIP3   OH265226   4.444   5.216  14.253 -0.6283  1.3656 -0.1367
14604TIP3    H165227   4.380   5.146  14.261  0.1795  0.5320 -0.7875
14604TIP3    H265228   4.393   5.292  14.224 -1.3781  0.8308 -0.2385
14605TIP3   OH265229   4.972   2.041   3.027  0.3002 -0.4316 -0.8407
14605TIP3    H165230   5.012   2.011   2.945 -0.0991 -4.0368  0.0872
14605TIP3    H265231   5.024   2.000   3.096 -0.3700  1.1335  0.6747
14606TIP3   OH265232   0.640   1.395  14.385 -0.5172 -0.1210  0.0567
14606TIP3    H165233   0.556   1.441  14.387 -1.1710 -1.0904 -2.1533
14606TIP3    H265234   0.703   1.462  14.359 -0.3695  0.8168  2.5454
14607TIP3   OH265235   4.005   5.648   0.191 -0.0462  0.6799 -0.1478
14607TIP3    H165236   4.050   5.706   0.252  0.1197 -0.6770  1.0725
14607TIP3    H265237   4.063   5.642   0.116 -0.2952  2.4548 -0.5174
14608TIP3   OH265238   0.472   3.121   2.168 -0.3577  0.5324  0.0571
14608TIP3    H165239   0.546   3.149   2.114 -0.9060  0.7913 -0.5690
14608TIP3    H265240   0.440   3.042   2.124 -0.6588  0.6100  0.1370
14609TIP3   OH265241   3.369   3.850  17.167 -0.5475 -0.0232 -0.1618
14609TIP3    H165242   3.453   3.828  17.207 -0.0377  0.2778 -1.0507
14609TIP3    H265243   3.359   3.944  17.183 -1.5789 -0.3602  1.4957
14610TIP3   OH265244   6.199   3.446  15.608  0.0201 -0.4508 -0.5125
14610TIP3    H165245   6.108   3.415  15.607  0.4628 -1.8300  0.2115
14610TIP3    H265246   6.243   3.391  15.672  1.1876  0.7822 -0.2010
14611TIP3   OH265247   0.626   1.382   4.426 -0.0777 -0.3130 -0.4531
14611TIP3    H165248   0.548   1.422   4.387 -0.1829 -1.4201 -1.4295
14611TIP3    H265249   0.633   1.297   4.383  0.1430 -1.3496  1.5332
14612TIP3   OH265250   2.196   4.430   4.839 -0.1327  0.2622  0.1719
14612TIP3    H165251   2.190   4.388   4.925 -3.2298  0.9831  0.4173
14612TIP3    H265252   2.225   4.519   4.858  0.6219  0.0056  0.2733
14613TIP3   OH265253   2.857   4.001   2.152 -0.3143 -0.5293 -0.0126
14613TIP3    H165254   2.862   3.928   2.089 -0.0753  1.2222 -2.1574
14613TIP3    H265255   2.939   4.048   2.140 -0.7494  0.4871  0.8318
14614TIP3   OH265256   3.731   5.747   1.482 -0.2420 -0.1411 -0.0038
14614TIP3    H165257   3.687   5.710   1.406 -0.4330 -1.3414  0.6607
14614TIP3    H265258   3.670   5.813   1.515  0.0523  0.7282 -1.1404
14615TIP3   OH265259   6.470   0.180   4.051  0.0849 -0.5608 -0.3921
14615TIP3    H165260   6.414   0.256   4.034  1.5358  0.5856 -0.2231
14615TIP3    H265261   6.552   0.201   4.007  0.1236 -2.6078 -1.3985
14616TIP3   OH265262   0.104   0.654   1.644  0.4097 -0.4999 -0.1842
14616TIP3    H165263   0.193   0.621   1.657  0.6013  0.7891  2.3616
14616TIP3    H265264   0.062   0.645   1.729 -1.0421  1.3961 -0.6253
14617TIP3   OH265265   1.394   1.717   4.092  0.0376  0.0382  0.0806
14617TIP3    H165266   1.420   1.627   4.073  1.5267  0.6775 -1.1815
14617TIP3    H265267   1.312   1.709   4.139  0.8934 -2.0267  1.3496
14618TIP3   OH265268   1.888   1.085   6.421  0.6145 -0.1281  0.0339
14618TIP3    H165269   1.977   1.094   6.456  0.8003  1.2554 -0.7188
14618TIP3    H265270   1.832   1.126   6.486  0.4654 -1.3635  0.7027
14619TIP3   OH265271   6.527   4.100   2.302  0.2983  0.4896 -0.6102
14619TIP3    H165272   6.584   4.060   2.236 -1.7631  0.4695 -2.5111
14619TIP3    H265273   6.525   4.193   2.278  0.7484  0.7791  0.4205
14620TIP3   OH265274   2.706   3.512   0.636  0.0879 -0.1795  0.2414
14620TIP3    H165275   2.634   3.511   0.573  0.3342 -0.1944 -0.0377
14620TIP3    H265276   2.776   3.559   0.592 -0.8549  2.9242  1.7049
14621TIP3   OH265277   4.756   6.666  13.904 -0.1302 -0.0355 -0.7551
14621TIP3    H165278   4.748   6.706  13.990  3.5046 -1.9822  0.7068
14621TIP3    H265279   4.738   6.737  13.842 -2.8608  1.4304  1.4649
14622TIP3   OH265280   1.234   2.273  15.050  0.0505 -0.0358  0.2168
14622TIP3    H165281   1.308   2.242  15.101  0.3703  0.2942 -0.0441
14622TIP3    H265282   1.164   2.284  15.114  0.2510 -0.2604  0.4779
14623TIP3   OH265283   4.070   2.283  14.179  0.5119 -0.6288 -0.3993
14623TIP3    H165284   4.106   2.218  14.240  0.6800 -0.0665  0.1076
14623TIP3    H265285   4.078   2.242  14.093  1.2951 -0.9912 -0.1625
14624TIP3   OH265286   2.423   5.115   0.910  0.5087 -0.3153  0.7940
14624TIP3    H165287   2.398   5.084   0.823  0.9903 -1.7229  1.1299
14624TIP3    H265288   2.465   5.199   0.894 -1.8263  0.7648 -0.0437
14625TIP3   OH265289   5.625   4.333  11.023 -0.6009  0.0862  0.0407
14625TIP3    H165290   5.589   4.254  11.062 -1.2517 -0.1912 -1.0817
14625TIP3    H265291   5.559   4.361  10.960  0.8738 -0.0893 -1.6389
14626TIP3   OH265292   3.760   5.671   0.057 -0.0868  0.3946  0.1426
14626TIP3    H165293   3.768   5.743  -0.005 -0.1735  0.5723  0.3343
14626TIP3    H265294   3.846   5.665   0.098  0.0123  0.1847 -0.0934
14627TIP3   OH265295   5.187   5.332   5.696  0.0485  0.0910  0.7254
14627TIP3    H165296   5.273   5.368   5.717  0.5451 -0.5163 -0.2082
14627TIP3    H265297   5.126   5.383   5.749  1.0949 -0.4193  2.4998
14628TIP3   OH265298   1.381   0.150  11.444 -0.2774  0.3078 -0.4189
14628TIP3    H165299   1.339   0.225  11.400 -0.6707  0.6148  0.4520
14628TIP3    H265300   1.471   0.150  11.410 -0.3010  1.1137 -0.5133
14629TIP3   OH265301   6.535   1.279  13.835  0.3377 -0.0488  0.1809
14629TIP3    H165302   6.586   1.291  13.915 -1.2900 -1.6663  1.5564
14629TIP3    H265303   6.467   1.346  13.839 -0.2742 -0.6864  0.6283
14630TIP3   OH265304   3.885   5.267   0.421  0.0074 -0.0884  0.4875
14630TIP3    H165305   3.805   5.315   0.401  1.3679  2.6132  0.9454
14630TIP3    H265306   3.949   5.300   0.359  0.8119 -2.2185  0.1013
14631TIP3   OH265307   3.615   1.639   0.858 -0.0460 -0.1989  0.1377
14631TIP3    H165308   3.590   1.614   0.769 -0.1878  1.2445 -0.2519
14631TIP3    H265309   3.532   1.663   0.900  0.1620  0.2955  0.2669
14632TIP3   OH265310   2.808   3.803  10.890  0.2854 -0.5978 -0.1784
14632TIP3    H165311   2.884   3.776  10.839 -0.8630  0.5277 -2.6614
14632TIP3    H265312   2.839   3.877  10.943  1.1185 -0.6690 -0.5579
14633TIP3   OH265313   3.706   3.717   2.314  0.2272  0.4887 -0.2440
14633TIP3    H165314   3.640   3.653   2.287  0.3484  0.1202  0.3179
14633TIP3    H265315   3.771   3.716   2.244  0.1402  0.1162 -0.3207
14634TIP3   OH265316   1.825   1.146   4.867 -0.1458  0.4211 -0.4798
14634TIP3    H165317   1.742   1.099   4.870 -0.6471  1.2695 -0.5129
14634TIP3    H265318   1.875   1.103   4.798 -1.5568  1.4411 -2.2499
14635TIP3   OH265319   0.614   4.311  11.143 -0.3937 -0.0942 -0.2361
14635TIP3    H165320   0.686   4.257  11.175 -0.5141  0.4749  1.0641
14635TIP3    H265321   0.626   4.314  11.048  1.6928  0.5527  0.0108
14636TIP3   OH265322   4.456   1.781   4.478 -0.2917 -0.1922  0.4809
14636TIP3    H165323   4.388   1.779   4.544  0.0863 -2.0954  0.8796
14636TIP3    H265324   4.527   1.728   4.515  0.5635  0.0237 -0.7721
14637TIP3   OH265325   3.878   3.111  13.946  0.3004  0.2699 -0.5421
14637TIP3    H165326   3.789   3.076  13.951  0.0600  0.9848  1.2119
14637TIP3    H265327   3.885   3.147  13.858 -0.5128 -1.3663 -1.3143
14638TIP3   OH265328   4.973   3.187  13.614 -0.0384 -0.3179 -0.1194
14638TIP3    H165329   4.885   3.149  13.618 -0.6308  1.0292  3.0368
14638TIP3    H265330   4.963   3.265  13.559 -1.2610  0.5954  1.2928
14639TIP3   OH265331   4.766   6.489  15.319 -0.1986  0.8748  0.0807
14639TIP3    H165332   4.800   6.548  15.251  0.0470  2.4384  1.4835
14639TIP3    H265333   4.746   6.547  15.393 -0.7201 -0.7256  1.2472
14640TIP3   OH265334   0.456   1.553  15.319 -0.6204  0.3633  0.4606
14640TIP3    H165335   0.394   1.586  15.384 -1.7691  1.4423 -1.0914
14640TIP3    H265336   0.524   1.621  15.314 -1.2857  0.9928 -0.4330
14641TIP3   OH265337   6.283   5.084  12.118 -0.2767  0.1574  0.0105
14641TIP3    H165338   6.275   4.996  12.082  2.6907 -0.1082 -0.2631
14641TIP3    H265339   6.279   5.072  12.213  2.6953 -0.7735  0.1269
14642TIP3   OH265340   5.620   1.201  10.930 -0.4477  0.0890  0.2606
14642TIP3    H165341   5.594   1.115  10.896 -0.4140 -0.0113  0.4882
14642TIP3    H265342   5.537   1.242  10.957 -0.4576  0.1029  0.2082
14643TIP3   OH265343   5.796   4.969  15.160  0.3763 -0.3803 -0.2211
14643TIP3    H165344   5.781   4.941  15.070 -0.1199  0.5325 -0.4342
14643TIP3    H265345   5.891   4.974  15.168  0.4230 -0.5596 -0.6662
14644TIP3   OH265346   1.224   0.312   0.168  0.1262  0.2568  0.6277
14644TIP3    H165347   1.264   0.241   0.219  2.4112  0.2929 -0.9711
14644TIP3    H265348   1.286   0.328   0.097 -1.2908  2.5464 -0.1856
14645TIP3   OH265349   2.170   4.961  11.634 -0.7786  0.0357  0.2856
14645TIP3    H165350   2.105   4.962  11.564 -0.1019  1.0717 -0.3477
14645TIP3    H265351   2.248   4.922  11.594 -0.1460  1.3388  0.2232
14646TIP3   OH265352   4.479   3.307  16.725  0.1461 -0.2148 -0.2000
14646TIP3    H165353   4.518   3.270  16.646 -0.3734  0.6128 -0.8614
14646TIP3    H265354   4.547   3.299  16.792 -0.4120 -3.7844  0.1697
14647TIP3   OH265355   3.020   5.202  13.416 -0.3509 -0.1316 -0.2591
14647TIP3    H165356   2.944   5.257  13.397 -0.8017  0.6422  3.1403
14647TIP3    H265357   2.985   5.113  13.419 -0.4048 -0.2005 -1.8699
14648TIP3   OH265358   5.648   2.967   3.454  0.2215 -0.0344 -0.5410
14648TIP3    H165359   5.670   3.049   3.500  0.2474 -0.5502  0.3917
14648TIP3    H265360   5.732   2.928   3.433  0.2997 -1.5522  2.2034
14649TIP3   OH265361   5.292   5.857  13.628 -0.1520  0.1507  0.1878
14649TIP3    H165362   5.292   5.938  13.577 -0.8150 -0.5016 -0.8964
14649TIP3    H265363   5.234   5.874  13.701  0.2154  0.8596  0.3204
14650TIP3   OH265364   5.947   1.846  15.372 -0.1624  0.5644  0.0433
14650TIP3    H165365   6.026   1.898  15.380 -0.5146  1.2749 -0.9072
14650TIP3    H265366   5.954   1.780  15.441  1.6391  0.0926 -0.5516
14651TIP3   OH265367   5.561   2.914   5.869  0.4498  0.3383  0.8263
14651TIP3    H165368   5.579   2.997   5.913 -0.3806 -0.1316  2.1103
14651TIP3    H265369   5.480   2.882   5.909 -1.5254  0.7814 -2.3995
14652TIP3   OH265370   0.503   2.207   1.998  0.2514  0.3449 -1.0424
14652TIP3    H165371   0.573   2.143   2.012 -0.0045 -0.3354 -2.6435
14652TIP3    H265372   0.549   2.289   1.979  0.5986  0.0780 -1.3674
14653TIP3   OH265373   4.984   4.175  12.884 -0.1970 -0.5047 -0.7243
14653TIP3    H165374   4.944   4.259  12.904  0.2989 -0.4052 -0.1447
14653TIP3    H265375   5.063   4.197  12.835  1.6274 -0.4236  2.0678
14654TIP3   OH265376   3.540   6.269  11.389 -0.5030  0.5779  0.2944
14654TIP3    H165377   3.625   6.247  11.427 -0.7005  0.2120  0.5365
14654TIP3    H265378   3.531   6.210  11.314 -0.4307  0.7966  0.1134
14655TIP3   OH265379   6.557   5.593   6.083 -0.0207  0.4121 -0.3526
14655TIP3    H165380   6.562   5.567   6.175 -0.0016  2.4016  0.2590
14655TIP3    H265381   6.567   5.688   6.085  1.0122  0.4054 -2.5068
14656TIP3   OH265382   3.969   1.521  17.250  0.6796  0.2236 -0.0704
14656TIP3    H165383   3.904   1.550  17.314  0.8006  0.6069 -0.1225
14656TIP3    H265384   4.019   1.453  17.296  0.9487  0.6926  0.3392
14657TIP3   OH265385   1.898   3.364   5.848 -0.0950 -0.6219 -0.1673
14657TIP3    H165386   1.826   3.334   5.905  0.4968  0.6633  1.3137
14657TIP3    H265387   1.927   3.446   5.887  1.6514 -0.6957 -1.2165
14658TIP3   OH265388   1.645   2.276   3.226 -0.2915  0.3596  0.5401
14658TIP3    H165389   1.658   2.214   3.299 -0.0842  0.0266  0.2241
14658TIP3    H265390   1.639   2.220   3.149 -0.2510  0.7306  0.2696
14659TIP3   OH265391   3.156   0.550  11.567 -0.1477  0.6978 -0.3585
14659TIP3    H165392   3.236   0.522  11.524  0.5218 -0.0163  1.2772
14659TIP3    H265393   3.173   0.640  11.593  1.0970 -0.1470  2.0389
14660TIP3   OH265394   3.554   0.553  13.016 -0.7819  0.4654 -0.2762
14660TIP3    H165395   3.637   0.520  12.982 -0.4558  0.5677  0.3922
14660TIP3    H265396   3.560   0.540  13.111 -2.3608 -1.4097 -0.3783
14661TIP3   OH265397   3.484   4.676  16.788  0.0521 -0.4794  0.6886
14661TIP3    H165398   3.428   4.598  16.789  1.3867 -1.4751  0.0278
14661TIP3    H265399   3.549   4.659  16.856  0.7243 -0.2310  0.1107
14662TIP3   OH265400   0.416   2.156   1.112  0.7215  0.2494  0.3796
14662TIP3    H165401   0.346   2.137   1.051 -0.2903 -0.0208  1.5863
14662TIP3    H265402   0.467   2.075   1.116  2.6964  1.2095 -2.4179
14663TIP3   OH265403   2.958   3.933   4.240 -0.0189  0.3129  0.2102
14663TIP3    H165404   3.007   4.000   4.288 -0.4212 -0.0582  1.1422
14663TIP3    H265405   2.917   3.879   4.307 -3.1352  1.6138 -0.4425
14664TIP3   OH265406   0.832   0.279  11.475 -0.3290 -0.3220 -0.3122
14664TIP3    H165407   0.919   0.256  11.445 -0.3485 -1.2792  0.3378
14664TIP3    H265408   0.780   0.199  11.466 -0.7796 -0.1485  0.5886
14665TIP3   OH265409   4.345   0.883   5.227  0.7448  0.0014  0.1718
14665TIP3    H165410   4.358   0.905   5.134 -0.7683  1.2261  0.2090
14665TIP3    H265411   4.407   0.812   5.243  1.1905 -0.1074 -1.7198
14666TIP3   OH265412   5.873   3.194  13.461  0.3537  0.2516 -0.7067
14666TIP3    H165413   5.921   3.111  13.459  2.0166  1.1630 -1.5730
14666TIP3    H265414   5.930   3.255  13.414 -0.8526  1.8737 -0.1552
14667TIP3   OH265415   4.803   0.437   3.203 -0.5688  0.0901 -0.1166
14667TIP3    H165416   4.782   0.522   3.164  1.1371  0.2628 -0.7321
14667TIP3    H265417   4.872   0.457   3.266  1.7252 -1.1295 -2.0997
14668TIP3   OH265418   2.166   5.216  14.040  0.5350 -0.0233  0.1407
14668TIP3    H165419   2.191   5.262  14.120  2.0753 -1.4561  0.5426
14668TIP3    H265420   2.234   5.239  13.977 -0.3134  0.5801 -0.5800
14669TIP3   OH265421   3.328   3.591   5.517 -0.4480  0.2309  0.4716
14669TIP3    H165422   3.260   3.612   5.580 -0.4444 -0.3828  0.6914
14669TIP3    H265423   3.305   3.503   5.486 -0.7253  0.7276 -0.7582
14670TIP3   OH265424   5.544   6.646  16.979 -0.3998 -0.5618 -0.1042
14670TIP3    H165425   5.609   6.612  16.917  0.8774 -2.3483  2.0761
14670TIP3    H265426   5.520   6.732  16.944  3.7326  0.5948 -0.6691
14671TIP3   OH265427   3.934   4.519   0.121 -0.0453 -0.0679 -0.4164
14671TIP3    H165428   3.979   4.453   0.173  1.1553 -1.2268 -2.7548
14671TIP3    H265429   3.987   4.598   0.131  1.1644 -0.7533 -1.2004
14672TIP3   OH265430   3.040   2.626  15.014  0.4383  0.3217  0.7902
14672TIP3    H165431   3.009   2.543  14.978 -2.3636  0.7936  1.8769
14672TIP3    H265432   3.129   2.608  15.043  0.4444 -1.8622 -0.3895
14673TIP3   OH265433   1.004   1.779   4.562  0.5285  0.3402  0.4170
14673TIP3    H165434   1.031   1.806   4.650  0.8688  0.3432  0.3160
14673TIP3    H265435   0.914   1.750   4.571  0.4338  0.7261  0.6893
14674TIP3   OH265436   0.320   0.576  17.151  0.4102  0.3717  0.7540
14674TIP3    H165437   0.377   0.543  17.081  0.1065 -0.7363  1.0040
14674TIP3    H265438   0.376   0.635  17.202  1.0323  0.1166  0.3773
14675TIP3   OH265439   2.018   4.395   0.975  0.4076  0.0996  0.1398
14675TIP3    H165440   2.016   4.470   1.035  2.5999  1.3544 -1.2029
14675TIP3    H265441   1.958   4.419   0.904 -0.8761 -0.6284  0.9395
14676TIP3   OH265442   1.909   5.750   1.693  0.0054 -0.4594  0.1018
14676TIP3    H165443   1.981   5.750   1.630 -0.0987  0.2192 -0.0268
14676TIP3    H265444   1.949   5.782   1.774  0.5219 -2.8465  0.8619
14677TIP3   OH265445   0.429   4.196  11.371  0.0659 -0.0208  0.0652
14677TIP3    H165446   0.459   4.262  11.309  0.2165 -0.2990 -0.1588
14677TIP3    H265447   0.509   4.160  11.410  0.0618 -1.0417 -0.8194
14678TIP3   OH265448   3.823   4.297  14.562 -0.4592 -0.1325 -0.0214
14678TIP3    H165449   3.873   4.369  14.600 -2.2183  1.5252 -0.6819
14678TIP3    H265450   3.877   4.219  14.578  0.2438  0.8756  3.2166
14679TIP3   OH265451   5.032   0.186   3.293  0.7324  0.0222  0.2424
14679TIP3    H165452   5.092   0.123   3.332 -0.3604 -1.2625 -0.0802
14679TIP3    H265453   4.945   0.153   3.314  0.0769 -0.3724 -2.5651
14680TIP3   OH265454   6.145   0.112   0.224 -0.0171 -0.5573 -0.5501
14680TIP3    H165455   6.123   0.096   0.132  1.2646  1.4453 -1.2624
14680TIP3    H265456   6.203   0.039   0.248 -0.3313 -1.0725 -1.3407
14681TIP3   OH265457   2.708   6.732  16.036  0.2422 -0.0653  0.2941
14681TIP3    H165458   2.709   6.776  15.951  2.1321  1.5100  1.0453
14681TIP3    H265459   2.793   6.688  16.042  0.6995  0.9327  1.8346
14682TIP3   OH265460   3.434   5.231  16.578 -0.9925 -0.1134  0.4948
14682TIP3    H165461   3.426   5.326  16.589 -0.7052 -0.0843  0.4436
14682TIP3    H265462   3.521   5.218  16.542  0.4526 -0.6474  3.7814
14683TIP3   OH265463   4.965   3.995  13.618  0.3549  0.6140  0.1972
14683TIP3    H165464   4.947   3.910  13.659  2.4282  0.2467  0.4729
14683TIP3    H265465   4.956   3.978  13.524  2.9325 -0.6037  0.0721
14684TIP3   OH265466   4.952   6.722   0.065 -0.2854  0.4628  0.5589
14684TIP3    H165467   4.961   6.634   0.028  1.1744 -0.1775  2.2832
14684TIP3    H265468   4.872   6.756   0.025  0.2850 -0.7688 -1.8391
14685TIP3   OH265469   4.948   5.522  16.182  0.5058  0.1906  0.1437
14685TIP3    H165470   4.921   5.592  16.123  0.9550  0.3612  0.1349
14685TIP3    H265471   4.875   5.511  16.243  0.3936  0.5977  0.0858
14686TIP3   OH265472   5.461   2.488   5.515  1.5200  0.5941  0.3299
14686TIP3    H165473   5.493   2.543   5.586  1.0886  0.0601  0.9483
14686TIP3    H265474   5.383   2.534   5.482  0.6830 -0.0454  1.3862
14687TIP3   OH265475   5.560   6.001  15.534 -1.1460  0.2334 -0.3334
14687TIP3    H165476   5.612   5.945  15.476  0.0777  1.0808 -0.1092
14687TIP3    H265477   5.555   5.952  15.616  1.4492  1.0853  0.4671
14688TIP3   OH265478   2.399   4.343  13.480  0.2693 -0.1199 -0.9316
14688TIP3    H165479   2.406   4.383  13.567  0.3585 -1.6297 -0.2160
14688TIP3    H265480   2.307   4.321  13.471  0.0959  0.8137 -1.6055
14689TIP3   OH265481   1.725   5.959   5.042  0.0501  0.5317 -0.2634
14689TIP3    H165482   1.780   5.974   5.119  0.5820 -2.1135 -0.0282
14689TIP3    H265483   1.640   5.934   5.077  0.6614 -1.9954 -0.4178
14690TIP3   OH265484   0.609   0.996  11.608  0.1266  0.3726 -0.3015
14690TIP3    H165485   0.602   1.092  11.608  1.0219  0.4790  1.7102
14690TIP3    H265486   0.543   0.967  11.671 -0.5219 -0.4025 -1.3080
14691TIP3   OH265487   5.437   3.224  14.535  1.2027  0.2726 -0.4972
14691TIP3    H165488   5.424   3.131  14.521  1.6593  0.3300 -1.4190
14691TIP3    H265489   5.349   3.261  14.539  0.9501 -0.4148  1.7109
14692TIP3   OH265490   1.326   1.792   5.692  0.4576 -0.6918 -0.2835
14692TIP3    H165491   1.396   1.730   5.671 -1.6079 -3.0130 -0.7710
14692TIP3    H265492   1.296   1.824   5.607  0.1819 -0.5564 -0.1366
14693TIP3   OH265493   3.627   5.452   6.376 -0.0752  0.2013  0.0147
14693TIP3    H165494   3.685   5.390   6.331  0.7024  0.1820  1.0039
14693TIP3    H265495   3.538   5.425   6.351  0.3246  0.0938 -1.3485
14694TIP3   OH265496   2.694   2.742   2.502 -0.2447 -0.5563  0.1711
14694TIP3    H165497   2.705   2.710   2.412 -0.0451  1.3708 -0.5436
14694TIP3    H265498   2.599   2.750   2.513 -0.3120 -1.6597  0.4749
14695TIP3   OH265499   3.710   4.929   6.262 -0.1774 -0.4000  0.3764
14695TIP3    H165500   3.773   4.977   6.209 -1.4107  1.3507  0.4228
14695TIP3    H265501   3.691   4.987   6.336 -1.3530 -1.1574  0.7019
14696TIP3   OH265502   4.050   4.155  12.335 -0.5086 -0.0540 -0.2109
14696TIP3    H165503   4.134   4.174  12.377 -1.6312  1.1702  1.6477
14696TIP3    H265504   4.061   4.188  12.246  0.8648  0.4193  0.0965
14697TIP3   OH265505   3.352   2.630   2.546  0.2719 -0.1094  0.4723
14697TIP3    H165506   3.352   2.726   2.539  1.7896 -0.1735 -0.7627
14697TIP3    H265507   3.423   2.610   2.608  0.2127 -0.4594  0.4287
14698TIP3   OH265508   2.934   0.890  15.342  0.4319 -0.1915  0.0889
14698TIP3    H165509   2.954   0.831  15.415  2.9162 -0.6361 -0.8513
14698TIP3    H265510   3.007   0.878  15.281 -0.3348  1.9456 -1.3588
14699TIP3   OH265511   2.446   0.686  13.511  0.0990 -0.1055 -0.0608
14699TIP3    H165512   2.411   0.669  13.598  1.4695 -0.2691  0.4820
14699TIP3    H265513   2.446   0.782  13.504 -1.6419 -0.0984 -0.6083
14700TIP3   OH265514   4.184   0.243  15.441  0.2291  0.1329  0.2184
14700TIP3    H165515   4.134   0.166  15.467  0.0051 -0.8654 -2.7740
14700TIP3    H265516   4.258   0.246  15.502 -0.5821 -1.5272  1.3498
14701TIP3   OH265517   0.186   4.415  14.519 -0.0196  0.1816 -0.2515
14701TIP3    H165518   0.097   4.417  14.552  0.1196 -0.2711  0.1531
14701TIP3    H265519   0.186   4.345  14.454  0.5244 -1.2129  1.1847
14702TIP3   OH265520   0.510   6.626  14.117 -0.4048 -0.7051  0.5563
14702TIP3    H165521   0.521   6.576  14.036 -0.0463  1.4862 -0.8064
14702TIP3    H265522   0.583   6.598  14.172  1.8661  0.7094 -1.5159
14703TIP3   OH265523   5.658   4.581  14.683 -0.4277 -0.0583 -0.6550
14703TIP3    H165524   5.646   4.518  14.753 -3.0619  0.1933 -0.7829
14703TIP3    H265525   5.605   4.547  14.610  0.3953  0.8505 -1.7261
14704TIP3   OH265526   0.402   0.212   4.965 -0.3692  0.2532  0.5138
14704TIP3    H165527   0.343   0.267   5.017 -0.9194 -1.1908  1.4604
14704TIP3    H265528   0.464   0.176   5.029  1.7900  1.9550 -0.4881
14705TIP3   OH265529   3.766   3.575  10.468 -0.0634  0.0607 -0.5071
14705TIP3    H165530   3.795   3.500  10.519 -2.1969 -0.1316  0.5399
14705TIP3    H265531   3.808   3.650  10.510 -0.7885 -0.2252  0.7916
14706TIP3   OH265532   6.699   5.327  15.224  0.1224 -0.0125 -0.0341
14706TIP3    H165533   6.647   5.372  15.291 -1.8819 -0.7294 -1.0287
14706TIP3    H265534   6.771   5.287  15.273 -0.6151  0.4582  1.5109
14707TIP3   OH265535   2.113   6.226  13.181 -0.1570 -0.4331 -0.3742
14707TIP3    H165536   2.203   6.217  13.213 -0.5068  0.8292  1.1014
14707TIP3    H265537   2.095   6.320  13.185 -1.4404 -0.6251 -0.9597
14708TIP3   OH265538   4.620   1.040  13.130 -0.3498  0.3788 -0.1240
14708TIP3    H165539   4.555   1.106  13.107  0.2111  1.5625  1.4736
14708TIP3    H265540   4.609   1.028  13.225  0.9484 -0.2986 -0.0390
14709TIP3   OH265541   4.366   1.009   2.539 -0.2813 -0.4047 -0.4772
14709TIP3    H165542   4.364   0.935   2.479 -2.6888 -0.5546 -0.2972
14709TIP3    H265543   4.294   1.065   2.512  1.3926  1.8913 -0.5386
14710TIP3   OH265544   1.708   1.415  11.258 -0.0667  0.3068  0.3732
14710TIP3    H165545   1.782   1.475  11.266  0.9293 -0.7882 -0.2490
14710TIP3    H265546   1.637   1.458  11.304  0.4365  2.2164 -0.5560
14711TIP3   OH265547   3.001   3.330  13.769  0.4024  0.0652 -0.5205
14711TIP3    H165548   2.998   3.420  13.738  1.1546 -0.1394 -1.2151
14711TIP3    H265549   2.913   3.314  13.803  1.2665  2.3116  3.3337
14712TIP3   OH265550   5.154   5.208   0.234 -0.2237  0.0032  0.2677
14712TIP3    H165551   5.249   5.212   0.220 -0.0573 -0.2225  1.2549
14712TIP3    H265552   5.127   5.299   0.244  0.2032 -0.0202  1.8566
14713TIP3   OH265553   6.346   5.666   3.940  0.0872  0.1574  0.6777
14713TIP3    H165554   6.287   5.741   3.950  1.2048  0.9597  1.6481
14713TIP3    H265555   6.402   5.670   4.018  1.1716 -0.7764 -0.0252
14714TIP3   OH265556   5.937   2.923   5.269  0.1523 -0.0415  0.0154
14714TIP3    H165557   5.997   2.848   5.270 -1.4747 -1.4799 -2.1599
14714TIP3    H265558   5.966   2.976   5.194 -1.9712 -1.4716 -1.9487
14715TIP3   OH265559   5.351   4.264  11.950  0.4492  0.6629 -0.0305
14715TIP3    H165560   5.353   4.319  11.872  0.5842  1.2425  0.3802
14715TIP3    H265561   5.354   4.174  11.915  1.7026  0.9214 -0.6567
14716TIP3   OH265562   6.176   5.065   4.109  0.0271 -0.0113 -0.3562
14716TIP3    H165563   6.214   5.024   4.186 -0.6337 -0.3978 -0.2233
14716TIP3    H265564   6.195   5.158   4.118 -1.6980  0.2418  1.2789
14717TIP3   OH265565   0.998   0.502   6.933 -0.3091 -0.3008 -0.4121
14717TIP3    H165566   0.920   0.526   6.882 -0.8406  0.4833  0.7216
14717TIP3    H265567   0.979   0.415   6.966 -0.8430 -0.0134  0.0719
14718TIP3   OH265568   2.133   5.221   1.247 -0.1349  0.0160 -0.1529
14718TIP3    H165569   2.085   5.153   1.293 -0.2287  0.2866  0.1479
14718TIP3    H265570   2.164   5.178   1.167  0.7118 -0.6781  0.5279
14719TIP3   OH265571   6.536   1.329  16.087  0.5228  0.2017  0.2876
14719TIP3    H165572   6.447   1.350  16.117 -0.0685 -1.0191 -0.5165
14719TIP3    H265573   6.557   1.246  16.131  0.7315 -0.1843 -0.5203
14720TIP3   OH265574   1.695   5.385  12.345  0.5541 -0.0106  0.0519
14720TIP3    H165575   1.608   5.362  12.378  1.3476 -0.4982  1.8913
14720TIP3    H265576   1.725   5.306  12.300 -1.1620  1.1335 -3.5016
14721TIP3   OH265577   0.872   6.439  14.441 -0.3067 -1.0502  0.5821
14721TIP3    H165578   0.952   6.396  14.471  0.8244  1.8310  2.0784
14721TIP3    H265579   0.831   6.472  14.521 -1.3555  0.2265 -0.4298
14722TIP3   OH265580   5.126   5.410   4.421 -0.6371 -0.3272 -0.8236
14722TIP3    H165581   5.151   5.350   4.352 -1.3377 -1.5162 -0.0729
14722TIP3    H265582   5.202   5.468   4.431  1.3530 -2.9225  0.4474
14723TIP3   OH265583   2.323   0.746   2.591 -0.3697  0.1155  0.1784
14723TIP3    H165584   2.334   0.652   2.605  0.3601  0.2215  0.3542
14723TIP3    H265585   2.261   0.752   2.519 -0.1078 -0.5085 -0.1076
14724TIP3   OH265586   6.188   4.663   3.993  0.1883  0.0979  0.6773
14724TIP3    H165587   6.101   4.701   3.983  0.2796 -0.0238 -0.8244
14724TIP3    H265588   6.242   4.709   3.929  1.3163  0.3737  1.7898
14725TIP3   OH265589   2.619   4.241   3.423 -0.2402  0.6177 -0.6460
14725TIP3    H165590   2.668   4.272   3.348 -1.3932  1.6552 -0.9997
14725TIP3    H265591   2.612   4.317   3.481  0.1587 -0.0169  0.2592
14726TIP3   OH265592   0.779   1.317  14.056  0.9870 -0.3525 -0.2092
14726TIP3    H165593   0.774   1.281  13.967 -1.1678 -1.0441  0.1274
14726TIP3    H265594   0.694   1.359  14.069  0.3408 -2.1872  2.2519
14727TIP3   OH265595   6.352   5.925   3.547 -0.3730  0.1697 -0.2066
14727TIP3    H165596   6.348   5.989   3.618 -1.7338  0.0913 -0.1756
14727TIP3    H265597   6.271   5.939   3.498  0.1900 -0.2903 -1.2918
14728TIP3   OH265598   4.839   5.612  12.509 -0.1615  0.2668 -0.4469
14728TIP3    H165599   4.808   5.684  12.564  0.7493  0.2605  0.0903
14728TIP3    H265600   4.805   5.632  12.422 -0.8319  0.7706 -0.0705
14729TIP3   OH265601   0.961   3.327   1.787 -0.2620 -0.9683 -0.4999
14729TIP3    H165602   0.957   3.235   1.814 -1.8776 -0.9468 -0.5908
14729TIP3    H265603   0.947   3.325   1.693 -3.4462 -0.4868 -0.1499
14730TIP3   OH265604   2.234   5.709   4.982  0.1494 -0.1621  0.1815
14730TIP3    H165605   2.254   5.783   4.924 -0.4587 -0.7990 -0.8823
14730TIP3    H265606   2.222   5.635   4.922 -1.2395 -0.6871  1.0662
14731TIP3   OH265607   5.575   1.701  15.892  0.0428  0.2554  0.1553
14731TIP3    H165608   5.634   1.647  15.839 -3.6571 -1.1361 -3.0883
14731TIP3    H265609   5.541   1.641  15.959  0.8440  0.5495  0.8481
14732TIP3   OH265610   6.372   0.579  14.528  0.4398 -0.0905  0.1481
14732TIP3    H165611   6.344   0.489  14.513  1.6729 -0.6672  1.2165
14732TIP3    H265612   6.291   0.626  14.549 -0.1522 -1.0313  0.0189
14733TIP3   OH265613   5.254   0.343   4.679 -0.0715 -0.3564  0.2316
14733TIP3    H165614   5.198   0.269   4.704 -0.5488  0.3439  1.3130
14733TIP3    H265615   5.212   0.419   4.718  1.0346  0.3401  0.1097
14734TIP3   OH265616   2.642   1.214   3.960  0.1960 -0.0575  0.2752
14734TIP3    H165617   2.666   1.163   4.037  0.9057 -1.0044 -0.5637
14734TIP3    H265618   2.722   1.260   3.935  0.1324 -0.2179 -0.2446
14735TIP3   OH265619   2.117   3.308  12.216 -0.6656  0.3980 -0.3212
14735TIP3    H165620   2.041   3.261  12.248 -0.5730  0.6613  0.3158
14735TIP3    H265621   2.180   3.240  12.193 -0.4082  0.2083  0.9022
14736TIP3   OH265622   6.089   0.117   2.258  0.2366 -0.0149 -0.0207
14736TIP3    H165623   6.150   0.144   2.189  0.9260 -0.0843  0.5442
14736TIP3    H265624   6.136   0.048   2.305 -1.5295 -2.3993 -1.5249
14737TIP3   OH265625   1.729   4.854   5.023 -0.3874  0.1167 -0.7349
14737TIP3    H165626   1.717   4.824   4.933  1.1302  2.0415 -1.6745
14737TIP3    H265627   1.823   4.845   5.039 -0.5457  0.3703  0.4253
14738TIP3   OH265628   2.858   2.567   4.222  0.1756 -0.3046  0.3111
14738TIP3    H165629   2.913   2.597   4.294  1.0479  1.2754 -0.9199
14738TIP3    H265630   2.791   2.635   4.213  0.0642 -0.4907 -0.3407
14739TIP3   OH265631   5.488   0.018  11.166  0.4125 -0.0109  0.7412
14739TIP3    H165632   5.581   0.042  11.160  0.8561 -1.7821 -0.4462
14739TIP3    H265633   5.466  -0.015  11.079 -1.2326 -0.0096  1.1226
14740TIP3   OH265634   3.601   1.430   5.369 -0.2759 -0.2006  0.2839
14740TIP3    H165635   3.550   1.353   5.344  1.1730 -0.7161 -1.3204
14740TIP3    H265636   3.665   1.440   5.298  0.6593  1.4892  1.3021
14741TIP3   OH265637   2.665   2.805  14.658 -0.0933  0.0034  0.3653
14741TIP3    H165638   2.610   2.807  14.736 -1.0571 -0.7077 -0.2615
14741TIP3    H265639   2.699   2.715  14.654 -0.7232 -0.2189 -0.4536
14742TIP3   OH265640   4.238   6.242   0.162 -0.0699  0.1968  0.5535
14742TIP3    H165641   4.236   6.314   0.226 -0.0937 -1.0900  2.0535
14742TIP3    H265642   4.329   6.237   0.134 -0.2985  1.6205 -0.5591
14743TIP3   OH265643   4.852   5.736   4.890 -0.1355 -0.2817  0.1050
14743TIP3    H165644   4.847   5.691   4.975 -0.8730 -2.7290 -1.1506
14743TIP3    H265645   4.900   5.675   4.834  3.0475  2.5330 -0.5770
14744TIP3   OH265646   3.791   6.353   5.975  0.0499  0.4471  0.6364
14744TIP3    H165647   3.807   6.319   6.063  1.4323 -1.7069 -0.3625
14744TIP3    H265648   3.700   6.331   5.957  0.1360 -0.2979  1.0574
14745TIP3   OH265649   5.433   0.532   3.297  0.1388 -0.1044  0.3293
14745TIP3    H165650   5.401   0.505   3.211 -0.9858  1.2680  0.2813
14745TIP3    H265651   5.413   0.458   3.355  0.2658 -0.7476 -0.4407
14746TIP3   OH265652   5.671   3.793   5.001  0.0828 -0.0060  0.3668
14746TIP3    H165653   5.627   3.878   4.996  0.4306  0.1397 -0.2827
14746TIP3    H265654   5.733   3.802   5.073  1.4412  0.9229 -0.8742
14747TIP3   OH265655   3.921   0.045  15.082  0.4082 -0.0240 -0.3656
14747TIP3    H165656   3.854   0.096  15.127  0.1803  0.4933 -1.2594
14747TIP3    H265657   3.995   0.105  15.075 -0.1215  0.4872 -2.0954
14748TIP3   OH265658   1.035   1.998  13.624 -0.6071  0.6148 -0.9116
14748TIP3    H165659   1.009   2.069  13.683  1.9093 -0.5687  1.8891
14748TIP3    H265660   1.068   2.043  13.546  0.5008  2.5591  0.5812
14749TIP3   OH265661   4.354   2.514   5.641  0.4947 -0.3344 -0.0158
14749TIP3    H165662   4.299   2.591   5.659  1.0505 -0.0671  0.5491
14749TIP3    H265663   4.328   2.450   5.706 -0.3929 -0.8589 -0.8602
14750TIP3   OH265664   3.278   6.298   0.504  0.2358 -0.6422  0.4394
14750TIP3    H165665   3.194   6.345   0.503 -0.6965 -2.2617  0.3933
14750TIP3    H265666   3.257   6.212   0.540  1.8465 -1.1747  0.1664
14751TIP3   OH265667   5.903   5.223   5.584  0.3797 -0.2398  0.3209
14751TIP3    H165668   5.983   5.224   5.637  0.5448  0.5507  0.0622
14751TIP3    H265669   5.841   5.171   5.636  0.7942 -0.1481  0.9210
14752TIP3   OH265670   5.666   0.100  12.590  0.1359 -0.2104 -0.1785
14752TIP3    H165671   5.621   0.051  12.520 -1.8076 -0.0683  0.9015
14752TIP3    H265672   5.642   0.191  12.575 -0.5840 -0.2149  0.8427
14753TIP3   OH265673   1.124   2.845  14.882 -0.1353 -0.3177 -0.3697
14753TIP3    H165674   1.177   2.815  14.956 -1.2468  0.5948  0.8443
14753TIP3    H265675   1.121   2.769  14.823  0.8816 -1.0243  0.4326
14754TIP3   OH265676   2.762   2.925   2.996 -0.5044 -0.1711  0.4961
14754TIP3    H165677   2.821   2.983   3.045 -1.8737  0.9725  0.8670
14754TIP3    H265678   2.766   2.958   2.906 -0.1910 -0.4230  0.4169
14755TIP3   OH265679   5.923   5.880   5.138  0.6661 -0.5097 -0.1470
14755TIP3    H165680   5.947   5.971   5.118  0.1548 -0.3664 -0.1050
14755TIP3    H265681   5.837   5.886   5.179  0.1437 -1.0976 -1.1297
14756TIP3   OH265682   1.793   3.328   1.794  0.0831 -0.3626 -0.6155
14756TIP3    H165683   1.877   3.374   1.790  0.8065 -1.5744  0.0541
14756TIP3    H265684   1.730   3.394   1.820  1.1361  0.2035  0.5870
14757TIP3   OH265685   1.595   4.029   4.489  0.0221  0.2944 -0.5108
14757TIP3    H165686   1.592   3.934   4.492  0.1968  0.2647 -1.2325
14757TIP3    H265687   1.685   4.050   4.465 -0.0421  0.6414 -0.4570
14758TIP3   OH265688   2.424   2.851  12.501  0.7843  0.2726 -0.0604
14758TIP3    H165689   2.489   2.781  12.500 -0.9980 -1.4565 -0.2783
14758TIP3    H265690   2.396   2.857  12.592  1.1896  0.9816  0.0256
14759TIP3   OH265691   0.559   0.002  12.837 -0.1310  0.6454 -0.3145
14759TIP3    H165692   0.596  -0.041  12.914 -0.6544  0.0178 -0.4046
14759TIP3    H265693   0.607  -0.034  12.763 -0.5975  0.1771 -0.3934
14760TIP3   OH265694   3.138   5.854   1.365 -0.3023 -0.1461  0.3887
14760TIP3    H165695   3.073   5.923   1.376 -0.2487 -0.1105  0.4806
14760TIP3    H265696   3.214   5.884   1.415 -1.1559 -1.4298  2.6092
14761TIP3   OH265697   4.114   2.606  12.056 -0.2899 -0.2667  0.4081
14761TIP3    H165698   4.109   2.560  11.972  0.3813 -1.0707  0.7860
14761TIP3    H265699   4.025   2.639  12.071 -0.2058  0.6973 -1.0468
14762TIP3   OH265700   2.722   0.787   1.151 -0.3862  0.1421  0.3396
14762TIP3    H165701   2.816   0.798   1.166 -0.4421  0.4073  0.5020
14762TIP3    H265702   2.714   0.775   1.056 -0.2069  0.2886  0.3060
14763TIP3   OH265703   0.823   1.644  14.896 -0.2408  0.2625  0.0324
14763TIP3    H165704   0.911   1.665  14.863  0.8960  0.0864  2.7117
14763TIP3    H265705   0.802   1.559  14.857  1.2811 -0.2234  0.2129
14764TIP3   OH265706   2.650   4.509   3.090 -0.0071 -0.2240  0.1825
14764TIP3    H165707   2.604   4.443   3.037  1.2454  0.5750 -2.0323
14764TIP3    H265708   2.743   4.492   3.072  0.3435  2.8119 -1.4076
14765TIP3   OH265709   6.667   1.695  12.697  0.4500  0.4469 -0.5636
14765TIP3    H165710   6.654   1.739  12.781 -1.3885  0.1133 -0.6167
14765TIP3    H265711   6.602   1.624  12.697  0.0002  0.7911 -2.4836
14766TIP3   OH265712   4.365   3.643  14.295  0.1525  0.4186  0.7861
14766TIP3    H165713   4.327   3.557  14.309 -0.3245  0.3630 -0.6329
14766TIP3    H265714   4.398   3.640  14.205  0.4002  1.6125  0.8164
14767TIP3   OH265715   5.771   4.959   5.623  0.2711 -0.1283 -0.0971
14767TIP3    H165716   5.676   4.957   5.634  0.1704  0.5992 -0.7402
14767TIP3    H265717   5.805   4.910   5.698 -0.5832  0.2320  0.5473
14768TIP3   OH265718   1.684   3.678  13.902  0.8618  0.5917 -0.4950
14768TIP3    H165719   1.588   3.674  13.900  0.9169 -0.3754 -1.7273
14768TIP3    H265720   1.703   3.729  13.981 -0.6496  0.3505  0.0676
14769TIP3   OH265721   4.475   6.579   3.677  0.5410  0.0013  0.2953
14769TIP3    H165722   4.545   6.575   3.741  1.0860  1.8511 -0.1224
14769TIP3    H265723   4.412   6.513   3.705  1.0031  0.4212  2.4300
14770TIP3   OH265724   3.979   6.156   5.621  0.2876  0.2385 -0.5449
14770TIP3    H165725   4.050   6.217   5.641 -0.0657  0.1216  1.2234
14770TIP3    H265726   3.969   6.161   5.525  3.2233 -0.4018 -0.9638
14771TIP3   OH265727   1.294   4.132   5.867  0.2226  0.4902 -0.0375
14771TIP3    H165728   1.311   4.038   5.866  1.0614  0.6338 -0.0568
14771TIP3    H265729   1.296   4.156   5.960  3.7319  1.0911 -0.1213
14772TIP3   OH265730   1.226   6.416  13.449 -0.0396  0.1312  0.7740
14772TIP3    H165731   1.264   6.499  13.479 -0.0574  0.4247  0.0102
14772TIP3    H265732   1.293   6.351  13.466  0.2728  0.4292  0.6886
14773TIP3   OH265733   1.889   3.070   4.855  0.2025  0.9318  0.0407
14773TIP3    H165734   1.941   3.037   4.782  0.2510  0.1587  0.4116
14773TIP3    H265735   1.941   3.143   4.891  1.4127 -0.2696  0.8428
14774TIP3   OH265736   3.514   3.494  14.599  0.0301 -0.8030 -0.3032
14774TIP3    H165737   3.419   3.490  14.599 -0.2034  0.9206  2.7318
14774TIP3    H265738   3.540   3.440  14.674  1.2571  0.2148  0.0415
14775TIP3   OH265739   0.075   2.991  13.978  0.1361 -0.2484 -0.1038
14775TIP3    H165740   0.162   3.015  13.948  1.0698 -0.3569  2.2531
14775TIP3    H265741   0.049   2.918  13.922  1.3044  0.1515 -1.2121
14776TIP3   OH265742   0.861   4.811   4.296  0.0679  0.1755  0.4098
14776TIP3    H165743   0.779   4.774   4.265  0.4105  0.0148 -0.3139
14776TIP3    H265744   0.914   4.824   4.217  1.0250 -0.4130  0.9380
14777TIP3   OH265745   2.018   3.594   3.104 -0.0395 -0.4493 -0.2375
14777TIP3    H165746   2.096   3.642   3.077 -0.1376  0.0390  0.3344
14777TIP3    H265747   2.012   3.522   3.042 -0.6599  1.0420 -1.9957
14778TIP3   OH265748   5.071   5.539  11.656  0.1508 -0.3656  0.4206
14778TIP3    H165749   5.027   5.608  11.707  1.1150  0.4336  0.2131
14778TIP3    H265750   5.040   5.552  11.567  1.4240  0.7794  0.1018
14779TIP3   OH265751   1.394   2.072  13.340 -0.4367  0.3027  0.0950
14779TIP3    H165752   1.487   2.071  13.318 -0.2182 -0.4643  1.0300
14779TIP3    H265753   1.357   2.138  13.281  0.7499  0.8753 -0.0382
14780TIP3   OH265754   2.881   4.511  11.052  0.0038  0.3806 -0.2753
14780TIP3    H165755   2.949   4.516  10.984 -0.2564  0.2577 -0.5448
14780TIP3    H265756   2.930   4.516  11.135  0.4914 -1.0980 -0.4362
14781TIP3   OH265757   0.055   0.266  15.749 -0.7074  0.1544  0.0854
14781TIP3    H165758  -0.008   0.292  15.817 -0.6643 -1.8146  0.9256
14781TIP3    H265759   0.009   0.198  15.700  1.2106 -2.4942  1.6942
14782TIP3   OH265760   5.523   5.043  11.730 -0.2028 -0.4047 -0.4265
14782TIP3    H165761   5.534   5.082  11.817  0.0849 -0.1730 -0.5623
14782TIP3    H265762   5.429   5.033  11.720 -0.1862 -1.4674  0.3579
14783TIP3   OH265763   0.065   0.004  12.882  0.0646  0.6599  0.3184
14783TIP3    H165764   0.020   0.038  12.959  0.6926 -0.6224  1.2851
14783TIP3    H265765  -0.005  -0.018  12.821 -0.4819  1.0151  0.8088
14784TIP3   OH265766   4.252   3.811  16.023  0.0533  0.2693 -0.3719
14784TIP3    H165767   4.324   3.790  16.082 -0.0523  0.1670 -0.2781
14784TIP3    H265768   4.173   3.782  16.069 -0.0943  0.8265 -0.2590
14785TIP3   OH265769   4.638   1.639   3.164  0.0999  0.2730 -0.0816
14785TIP3    H165770   4.569   1.698   3.135  0.3441  0.4882 -0.2292
14785TIP3    H265771   4.592   1.562   3.196 -0.1447 -0.4533 -2.0851
14786TIP3   OH265772   1.206   0.547  11.029 -0.1049 -0.1499  0.6057
14786TIP3    H165773   1.301   0.544  11.047 -0.2440  0.3146  1.5080
14786TIP3    H265774   1.182   0.638  11.046 -1.0105 -0.6365  2.1120
14787TIP3   OH265775   0.244   4.869   2.755  0.0656 -0.2499 -0.0490
14787TIP3    H165776   0.268   4.845   2.845 -1.2263 -0.1384  0.3347
14787TIP3    H265777   0.247   4.965   2.754  0.1215 -0.2523 -0.1464
14788TIP3   OH265778   5.494   3.042   3.252  0.7941  0.3178  0.6379
14788TIP3    H165779   5.536   2.988   3.184 -0.7386  1.1276 -1.0402
14788TIP3    H265780   5.546   3.026   3.330  3.9216  0.8852 -1.1577
14789TIP3   OH265781   3.027   4.993  12.839  0.5660 -0.4967  0.1974
14789TIP3    H165782   3.010   4.970  12.748 -2.0305  1.2508  0.1385
14789TIP3    H265783   3.074   4.917  12.874  0.0855 -1.9791 -2.1161
14790TIP3   OH265784   6.671   1.761  13.237  0.2616  0.4343  0.0785
14790TIP3    H165785   6.735   1.819  13.197  0.2274  0.0916 -0.4752
14790TIP3    H265786   6.719   1.719  13.309  1.4517 -1.7027 -1.8342
14791TIP3   OH265787   5.736   3.144  15.940  0.8185 -0.2698  0.5207
14791TIP3    H165788   5.729   3.231  15.979  2.2004  1.1838 -2.1297
14791TIP3    H265789   5.829   3.122  15.948  0.3777 -1.8268  1.7041
14792TIP3   OH265790   1.324   0.759  13.604 -0.4471  0.2853  0.2849
14792TIP3    H165791   1.355   0.720  13.522  0.8465 -0.5339  1.1360
14792TIP3    H265792   1.404   0.787  13.649 -1.2076  1.8319  0.7548
14793TIP3   OH265793   2.601   5.578  13.816  0.0608  0.1429  0.8036
14793TIP3    H165794   2.555   5.506  13.774  1.2990 -0.5994  0.6707
14793TIP3    H265795   2.639   5.540  13.895  0.3711  0.7539  0.9614
14794TIP3   OH265796   5.912   3.072   5.911  0.3529  0.0826 -0.5739
14794TIP3    H165797   5.885   3.106   5.996 -0.3930 -0.7091 -0.4840
14794TIP3    H265798   5.906   2.977   5.920  2.2562 -0.1053 -0.8627
14795TIP3   OH265799   2.755   1.145   4.204  0.2935  0.3834 -0.5589
14795TIP3    H165800   2.720   1.219   4.254  0.1612 -0.1149  0.0990
14795TIP3    H265801   2.850   1.158   4.205  0.2796  0.4662 -0.3225
14796TIP3   OH265802   5.359   1.943  17.288 -0.0530 -0.1066 -0.2161
14796TIP3    H165803   5.314   2.026  17.301 -0.6105 -0.3607 -0.5052
14796TIP3    H265804   5.302   1.877  17.328  1.3197 -0.1485  1.7859
14797TIP3   OH265805   1.353   6.175   2.742 -0.1807 -0.5792 -0.3353
14797TIP3    H165806   1.307   6.133   2.669 -1.7658  0.5713 -0.0455
14797TIP3    H265807   1.350   6.269   2.722 -1.9205 -0.0817  1.8442
14798TIP3   OH265808   4.545   6.544  16.295 -0.0602  0.7857 -0.0896
14798TIP3    H165809   4.538   6.579  16.384 -2.0269  0.0794  0.0942
14798TIP3    H265810   4.639   6.533  16.281  0.2845 -0.3431  2.4145
14799TIP3   OH265811   5.915   4.680   0.642  0.1111  0.7281  0.5395
14799TIP3    H165812   5.903   4.585   0.646  0.6585  0.6916  2.9794
14799TIP3    H265813   5.853   4.714   0.706 -1.0471  2.1764 -1.2759
14800TIP3   OH265814   3.572   3.455   5.420  0.1517  0.1112 -0.2881
14800TIP3    H165815   3.495   3.499   5.455 -1.7258 -1.6588 -1.9083
14800TIP3    H265816   3.596   3.504   5.341 -0.4593 -0.3690 -0.7786
14801TIP3   OH265817   4.963   2.448   4.654  0.1242 -0.2372  0.4047
14801TIP3    H165818   4.968   2.498   4.572 -1.4356 -0.3763  0.1970
14801TIP3    H265819   4.993   2.361   4.631 -1.0469 -0.4943 -0.2391
14802TIP3   OH265820   0.772   6.372  16.210 -0.1560  0.5545  0.3480
14802TIP3    H165821   0.731   6.322  16.281 -1.4245  2.7464  1.2539
14802TIP3    H265822   0.700   6.391  16.150  0.1378  1.8820  0.3931
14803TIP3   OH265823   0.869   3.157  12.726  0.1369 -0.2222  0.7195
14803TIP3    H165824   0.776   3.164  12.707  0.3971 -0.7123 -0.8472
14803TIP3    H265825   0.906   3.240  12.696  0.2710 -0.2033  0.9332
14804TIP3   OH265826   4.916   4.726  16.305  0.4145  0.3437  0.0649
14804TIP3    H165827   4.920   4.801  16.246  1.6372  0.9850  0.9289
14804TIP3    H265828   4.929   4.650  16.248  3.2435  1.0283 -0.3562
14805TIP3   OH265829   0.004   3.378  11.517 -0.1366 -0.0841  0.0257
14805TIP3    H165830   0.023   3.305  11.458 -0.3733 -1.5450  1.6395
14805TIP3    H265831   0.073   3.441  11.501  1.1760 -1.5046 -0.1528
14806TIP3   OH265832   2.534   3.310  14.049  0.1213  0.0124  0.1409
14806TIP3    H165833   2.442   3.314  14.023  0.0283 -2.3067 -0.0669
14806TIP3    H265834   2.533   3.324  14.144 -0.6084 -1.2747  0.3384
14807TIP3   OH265835   4.742   1.226  13.398 -0.1139  0.0659  0.3444
14807TIP3    H165836   4.652   1.203  13.419  0.0708  0.3796  1.5860
14807TIP3    H265837   4.749   1.318  13.423  0.6143 -0.0197  0.4780
14808TIP3   OH265838   1.409   4.219   4.577 -0.4473 -0.2240  0.9226
14808TIP3    H165839   1.474   4.157   4.543  0.4592 -0.1071  2.3454
14808TIP3    H265840   1.458   4.274   4.638 -0.9385  2.7123 -1.1237
14809TIP3   OH265841   4.692   2.991  11.283  0.6853 -0.3365  0.4367
14809TIP3    H165842   4.711   3.085  11.288  0.8730 -0.3876  0.7190
14809TIP3    H265843   4.773   2.949  11.310  0.3002 -0.5627  1.2826
14810TIP3   OH265844   6.060   6.017  15.993  0.0023 -0.3541 -0.3042
14810TIP3    H165845   5.989   5.990  15.935 -0.2045  0.3981 -0.4082
14810TIP3    H265846   6.139   6.010  15.939 -0.0003 -1.0219 -0.2407
14811TIP3   OH265847   5.161   5.718  13.407  0.1448 -0.0620  0.0548
14811TIP3    H165848   5.187   5.753  13.492  1.2251  0.1461 -0.3417
14811TIP3    H265849   5.162   5.623  13.419  1.1967 -0.0695  0.0515
14812TIP3   OH265850   2.552   0.076   4.066 -0.1751  0.0702 -0.7118
14812TIP3    H165851   2.603   0.106   4.142 -0.3395 -0.0870 -0.5403
14812TIP3    H265852   2.464   0.062   4.100  0.2275 -2.0969 -0.4283
14813TIP3   OH265853   0.396   4.160   6.681 -0.4391  0.1421  0.1191
14813TIP3    H165854   0.355   4.095   6.624  0.3614  0.6102 -1.0504
14813TIP3    H265855   0.490   4.140   6.677 -0.3075  0.5870  0.7564
14814TIP3   OH265856   1.032   0.570   3.587 -0.5156  0.4778  0.2455
14814TIP3    H165857   1.085   0.636   3.542 -0.4305  0.8487  0.8811
14814TIP3    H265858   1.092   0.497   3.600 -0.4085  0.5506  0.1652
14815TIP3   OH265859   1.803   1.951  16.011 -0.0099 -0.0081  0.2848
14815TIP3    H165860   1.880   1.934  16.066  0.2706  3.3484  1.1256
14815TIP3    H265861   1.837   1.945  15.922  0.5903 -1.0960  0.5585
14816TIP3   OH265862   3.184   4.027   3.112 -0.5091  0.1258 -0.2753
14816TIP3    H165863   3.222   4.109   3.080 -0.6068  0.5138  0.5930
14816TIP3    H265864   3.166   3.977   3.032  0.7370  0.4148 -0.7680
14817TIP3   OH265865   5.271   6.330  12.988 -0.0445 -0.3260  0.2304
14817TIP3    H165866   5.334   6.338  13.060  2.7833  0.2863 -2.0828
14817TIP3    H265867   5.254   6.421  12.961 -2.1431 -0.4718  0.8937
14818TIP3   OH265868   6.426   3.321   3.018  0.6727 -0.0322  0.2589
14818TIP3    H165869   6.514   3.287   3.004  1.0568  0.4785  1.3421
14818TIP3    H265870   6.439   3.416   3.028  0.2799 -0.1762  2.5144
14819TIP3   OH265871   3.235   3.203  17.328 -0.0513 -0.7899 -0.2931
14819TIP3    H165872   3.190   3.219  17.411  0.0980 -2.1795  0.0920
14819TIP3    H265873   3.310   3.262  17.329 -0.7871  0.1469 -0.0482
14820TIP3   OH265874   5.763   1.812   4.679  0.1106 -0.1243  0.3482
14820TIP3    H165875   5.672   1.782   4.679  0.5501 -1.5692  0.8772
14820TIP3    H265876   5.762   1.897   4.722 -1.0020 -0.0536  0.1914
14821TIP3   OH265877   4.318   1.985  16.090 -0.1183 -0.5712 -0.8000
14821TIP3    H165878   4.235   1.985  16.042 -0.0885 -1.1625 -0.8647
14821TIP3    H265879   4.295   1.956  16.178  0.0281 -0.7856 -0.8327
14822TIP3   OH265880   1.026   3.376   2.768  0.5600 -0.7323 -0.0341
14822TIP3    H165881   1.109   3.330   2.783  0.8621 -1.2447 -2.8495
14822TIP3    H265882   0.974   3.316   2.715 -0.7668  0.4578 -0.1322
14823TIP3   OH265883   6.252   2.732  16.029 -0.1596 -0.1211  0.0802
14823TIP3    H165884   6.313   2.695  16.092  0.7036  0.7950 -0.1811
14823TIP3    H265885   6.173   2.679  16.038  1.2535 -2.5706 -0.8894
14824TIP3   OH265886   2.557   0.259   2.063  0.1158  0.3478 -0.2077
14824TIP3    H165887   2.607   0.185   2.096 -0.3679 -0.0664 -0.3864
14824TIP3    H265888   2.609   0.336   2.086  1.4279 -0.1344 -1.4286
14825TIP3   OH265889   6.180   5.977  17.252  0.0685  0.3615 -0.4154
14825TIP3    H165890   6.102   5.963  17.305 -0.6421  0.4729 -1.3961
14825TIP3    H265891   6.179   5.906  17.188  1.6260 -0.5427  0.5115
14826TIP3   OH265892   3.647   5.379   0.429  0.1635 -0.2467 -0.1198
14826TIP3    H165893   3.596   5.456   0.402 -0.3406 -0.1423  1.0383
14826TIP3    H265894   3.612   5.357   0.516  1.7880 -0.4597  0.5179
14827TIP3   OH265895   1.264   4.035  14.635 -0.1398 -0.2703 -0.6141
14827TIP3    H165896   1.211   3.982  14.695 -0.4704  0.3350 -0.3651
14827TIP3    H265897   1.235   4.125  14.650  0.8023  0.0469 -0.6370
14828TIP3   OH265898   0.434   6.038  11.042  0.0380  0.2063 -0.1702
14828TIP3    H165899   0.513   6.092  11.035  0.9300 -0.9369  0.6716
14828TIP3    H265900   0.431   5.990  10.959  0.7255 -0.3515  0.1079
14829TIP3   OH265901   0.255   1.339  12.849  0.4690 -0.1902 -0.3745
14829TIP3    H165902   0.348   1.361  12.840  0.5484 -0.4357 -0.1555
14829TIP3    H265903   0.254   1.263  12.906  0.2022 -0.7898 -1.1575
14830TIP3   OH265904   6.670   0.017   2.122  0.3903  0.0800 -0.0016
14830TIP3    H165905   6.619   0.096   2.135  0.4303  0.5884 -2.4344
14830TIP3    H265906   6.754   0.035   2.165 -0.1546  0.6960  0.8312
14831TIP3   OH265907   5.401   2.198   3.485 -0.3972 -0.0401 -0.0490
14831TIP3    H165908   5.456   2.171   3.558  1.0933 -0.5512 -1.3132
14831TIP3    H265909   5.341   2.263   3.523  0.1225 -0.5189  1.6702
14832TIP3   OH265910   5.148   4.175  14.519  0.2375 -0.3549 -0.5026
14832TIP3    H165911   5.109   4.260  14.501  1.9964  0.4428 -0.7083
14832TIP3    H265912   5.132   4.124  14.440 -1.5100 -0.5290 -0.0890
14833TIP3   OH265913   1.032   5.890   2.772 -0.4391  0.4308  0.3093
14833TIP3    H165914   0.978   5.825   2.727  3.5766 -2.4272 -0.8424
14833TIP3    H265915   1.065   5.947   2.703 -0.4833  1.0012  0.7467
14834TIP3   OH265916   1.614   0.997  16.365 -0.5875  0.1018 -0.5664
14834TIP3    H165917   1.545   1.061  16.348 -0.4819  1.0899  2.1779
14834TIP3    H265918   1.676   1.008  16.293 -2.3620  0.4666 -2.1052
14835TIP3   OH265919   1.146   4.841   4.113  0.4138 -0.2320 -0.0553
14835TIP3    H165920   1.162   4.746   4.110 -3.2517 -1.0861  1.6595
14835TIP3    H265921   1.216   4.876   4.167 -0.6947 -2.8518  3.4632
14836TIP3   OH265922   3.857   1.029  13.946 -0.0610  0.3555 -0.5147
14836TIP3    H165923   3.797   1.082  13.894 -1.3418  1.3116  1.8201
14836TIP3    H265924   3.933   1.085  13.961  0.0558  0.2863 -0.8316
14837TIP3   OH265925   2.073   1.706   4.792  0.4046  0.0090  0.2414
14837TIP3    H165926   2.073   1.801   4.785 -0.4542  0.1763  1.8829
14837TIP3    H265927   2.129   1.676   4.721  0.3461  1.7127 -0.5625
14838TIP3   OH265928   2.675   0.588   4.920  0.2705  0.0304 -0.4137
14838TIP3    H165929   2.738   0.566   4.990  0.7707  4.1663  0.7074
14838TIP3    H265930   2.730   0.615   4.847 -0.2776 -1.6481 -1.4833
14839TIP3   OH265931   5.526   6.731  13.611 -0.1034  0.2914 -0.5395
14839TIP3    H165932   5.501   6.652  13.660 -0.3872  1.0651  0.6010
14839TIP3    H265933   5.583   6.698  13.541  0.9978 -0.7868  0.7873
14840TIP3   OH265934   2.904   5.914   0.543  0.3646  0.2085 -0.0891
14840TIP3    H165935   2.822   5.949   0.510 -1.0767 -0.0457  2.9022
14840TIP3    H265936   2.878   5.840   0.598  2.5587  0.2842  1.1607
14841TIP3   OH265937   0.440   5.022  12.050 -0.1859 -0.3099 -0.5418
14841TIP3    H165938   0.353   5.052  12.025  0.0970  0.2753 -0.8690
14841TIP3    H265939   0.487   5.014  11.967  0.1059 -0.5158 -0.3609
14842TIP3   OH265940   5.609   0.617  13.382  0.5911 -0.1270  0.1231
14842TIP3    H165941   5.533   0.621  13.324  0.6247 -1.6998 -0.0702
14842TIP3    H265942   5.678   0.579  13.329  2.3765  3.4991 -0.4993
14843TIP3   OH265943   1.385   5.315   2.464 -0.1654  0.4364  0.2086
14843TIP3    H165944   1.392   5.395   2.516  0.8205  0.6311 -0.2094
14843TIP3    H265945   1.475   5.287   2.449 -0.4709 -0.2918 -0.3602
14844TIP3   OH265946   2.000   3.147  12.932 -0.1107  0.2341  0.4949
14844TIP3    H165947   2.023   3.239  12.944 -0.3556  0.1522  1.7111
14844TIP3    H265948   1.912   3.150  12.894  0.1415  0.5031 -0.0778
14845TIP3   OH265949   3.456   1.475   4.256 -0.7152  0.2751  0.5611
14845TIP3    H165950   3.366   1.471   4.290 -0.1120 -0.7002  2.1731
14845TIP3    H265951   3.445   1.499   4.164 -2.6539 -0.1376  0.6224
14846TIP3   OH265952   6.105   1.521   0.477 -0.4274 -0.3581 -0.4541
14846TIP3    H165953   6.091   1.432   0.509 -0.5047  0.0686  0.7658
14846TIP3    H265954   6.198   1.537   0.490 -0.7324  0.3579  1.0879
14847TIP3   OH265955   3.133   5.639   0.727  0.1570 -0.2789  0.4529
14847TIP3    H165956   3.043   5.662   0.704  0.1064  0.3380  1.2483
14847TIP3    H265957   3.159   5.704   0.792 -0.5084 -3.2732  4.0214
14848TIP3   OH265958   3.880   6.053  13.554  0.4062 -0.8998  0.5007
14848TIP3    H165959   3.957   6.029  13.606  0.2927 -0.1897  1.0131
14848TIP3    H265960   3.806   6.020  13.605  0.3194 -0.6325  0.5473
14849TIP3   OH265961   0.573   6.546  12.074 -0.1401  0.1520 -0.3978
14849TIP3    H165962   0.551   6.506  12.158  0.0805 -0.4730 -0.6402
14849TIP3    H265963   0.547   6.482  12.008 -0.6257  0.7779 -0.8296
14850TIP3   OH265964   1.554   6.329   2.091  0.1430 -0.3862  0.2505
14850TIP3    H165965   1.617   6.394   2.123  0.2500  0.4896 -1.6350
14850TIP3    H265966   1.477   6.341   2.147  0.2191  1.2763  0.0504
14851TIP3   OH265967   6.260   3.249  14.404 -0.1398  0.8082  0.3970
14851TIP3    H165968   6.324   3.319  14.395  0.3814  0.3390  0.4563
14851TIP3    H265969   6.225   3.259  14.493 -0.3921  1.2645  0.2500
14852TIP3   OH265970   1.929   1.032  16.260  0.3879 -0.3272 -0.0612
14852TIP3    H165971   1.907   1.121  16.233 -0.6349 -0.1787  1.1652
14852TIP3    H265972   2.009   1.041  16.311 -0.2634  0.0588  0.9243
14853TIP3   OH265973   6.371   0.693   2.065  0.2715  0.5435  0.2650
14853TIP3    H165974   6.369   0.783   2.033  2.1997  0.8299  0.8914
14853TIP3    H265975   6.375   0.700   2.160 -1.7747 -0.2738  0.4689
14854TIP3   OH265976   5.285   0.681  16.019  0.0084 -0.0644  0.1992
14854TIP3    H165977   5.237   0.696  16.100 -3.0407 -0.3357 -1.4398
14854TIP3    H265978   5.261   0.593  15.992 -0.4979  0.6370 -1.8705
14855TIP3   OH265979   6.548   3.840  15.454 -0.0217  0.1053  0.2830
14855TIP3    H165980   6.453   3.844  15.466  0.0763  2.0775  0.8128
14855TIP3    H265981   6.565   3.750  15.428 -2.1954  0.0260 -1.2052
14856TIP3   OH265982   4.892   2.140   1.886  0.0736  0.2636  0.1196
14856TIP3    H165983   4.932   2.130   1.799  1.1948  1.2419  0.5032
14856TIP3    H265984   4.871   2.050   1.913 -2.1332  0.0462 -1.9675
14857TIP3   OH265985   6.538   1.779   3.734  0.1036 -0.2977 -0.2445
14857TIP3    H165986   6.593   1.716   3.687  1.0763  0.5154 -0.2326
14857TIP3    H265987   6.449   1.746   3.721  0.5746 -1.6684 -0.2426
14858TIP3   OH265988   0.127   3.830   5.316 -0.3744  0.4733  0.1392
14858TIP3    H165989   0.101   3.854   5.227  1.9011  1.5141 -0.3367
14858TIP3    H265990   0.068   3.878   5.373 -2.8647 -1.3682 -0.7230
14859TIP3   OH265991   5.957   5.026  13.687 -0.3797  0.1543  0.7438
14859TIP3    H165992   5.998   5.092  13.631 -1.9544 -0.0975 -0.7922
14859TIP3    H265993   5.902   4.976  13.628  0.7442 -2.5857  1.8509
14860TIP3   OH265994   2.985   2.199  14.091 -0.2954  0.3999 -0.1621
14860TIP3    H165995   3.066   2.214  14.042  0.3895  1.5036  1.2518
14860TIP3    H265996   2.971   2.104  14.085  2.7477 -0.3303  1.9916
14861TIP3   OH265997   4.301   6.067  12.039 -0.6686  0.3210  0.2988
14861TIP3    H165998   4.296   6.161  12.056 -0.7569  0.1298  1.3852
14861TIP3    H265999   4.392   6.044  12.060 -0.6362  0.1706 -0.0050
14862TIP3   OH266000   4.839   6.340  16.536 -0.3078 -0.3484 -0.2018
14862TIP3    H166001   4.815   6.382  16.619 -0.8609  0.5124 -0.7874
14862TIP3    H266002   4.777   6.268  16.527 -0.5376 -0.1656 -0.0923
14863TIP3   OH266003   4.144   0.796   4.918 -0.0090  0.1136  0.1644
14863TIP3    H166004   4.089   0.841   4.983 -1.1894  0.3266 -0.9256
14863TIP3    H266005   4.171   0.715   4.961 -2.1837 -0.5716  0.3717
14864TIP3   OH266006   1.802   3.005   0.911  0.2204 -0.2134 -0.2393
14864TIP3    H166007   1.756   2.922   0.925 -0.2833  0.1521  0.2741
14864TIP3    H266008   1.845   2.994   0.826 -1.3346 -0.3275 -1.0504
14865TIP3   OH266009   2.723   5.017   3.773  0.3471 -0.0240 -0.4363
14865TIP3    H166010   2.697   5.053   3.858  2.3189  2.2928 -0.7115
14865TIP3    H266011   2.818   5.010   3.777  0.5416  0.5297 -2.5577
14866TIP3   OH266012   1.908   1.962  13.206 -0.1602 -0.6382  0.0632
14866TIP3    H166013   1.957   2.045  13.208  0.1318 -0.7689 -0.9448
14866TIP3    H266014   1.871   1.959  13.118 -1.9906 -0.5658  0.8004
14867TIP3   OH266015   3.215   2.138  12.221  0.4116  0.0297  0.3225
14867TIP3    H166016   3.295   2.098  12.185  0.8819  1.1266  0.1095
14867TIP3    H266017   3.159   2.063  12.242  1.1597 -0.7363 -0.2969
14868TIP3   OH266018   0.450   0.588  16.341  0.4367 -0.5216  0.0807
14868TIP3    H166019   0.390   0.524  16.380  0.2001 -2.0285 -2.5193
14868TIP3    H266020   0.393   0.650  16.297  0.7252 -0.8408 -0.7610
14869TIP3   OH266021   6.008   4.791  14.032  0.1544 -0.0028  0.4533
14869TIP3    H166022   6.038   4.811  13.944  0.4374  0.4348  0.6478
14869TIP3    H266023   5.958   4.868  14.059 -0.0757 -0.2041  0.6119
14870TIP3   OH266024   6.140   4.651  10.588 -0.5288  1.0253  0.3927
14870TIP3    H166025   6.149   4.558  10.606 -2.1244 -0.1067 -3.5000
14870TIP3    H266026   6.048   4.662  10.565 -0.4543  3.6772  1.0591
14871TIP3   OH266027   0.724   2.739  12.944  0.2446 -0.1534 -0.8748
14871TIP3    H166028   0.752   2.763  12.856  1.4672  3.2904  0.2867
14871TIP3    H266029   0.629   2.750  12.944  0.5231  3.4726 -0.9744
14872TIP3   OH266030   2.985   4.645   0.055  0.1252 -0.1629  0.2708
14872TIP3    H166031   2.913   4.673  -0.001 -1.9281 -2.4834  1.5665
14872TIP3    H266032   3.019   4.566   0.014 -0.2794 -0.9224  1.3542
14873TIP3   OH266033   1.107   6.264   5.018  0.1320 -0.0120 -0.5583
14873TIP3    H166034   1.013   6.246   5.023  0.2313 -0.2652  0.8152
14873TIP3    H266035   1.130   6.297   5.105  1.6418 -1.6374 -0.2774
14874TIP3   OH266036   5.630   4.338   2.844 -0.2079  0.0866 -0.1511
14874TIP3    H166037   5.688   4.390   2.899 -0.1698 -0.1424  0.0280
14874TIP3    H266038   5.542   4.362   2.871 -0.2780  1.9542 -1.8046
14875TIP3   OH266039   2.761   1.700   3.355  0.7795  0.2892 -0.1544
14875TIP3    H166040   2.730   1.771   3.412  1.7462 -0.0941  0.8960
14875TIP3    H266041   2.687   1.681   3.298 -0.7713 -0.2384  1.8928
14876TIP3   OH266042   5.146   4.557  16.156 -0.2580  0.0926  0.1186
14876TIP3    H166043   5.111   4.509  16.231 -1.2807  0.0791 -0.3379
14876TIP3    H266044   5.108   4.512  16.080 -0.7353  1.2308 -0.3402
14877TIP3   OH266045   4.316   4.935   0.133 -0.3023 -0.5765  0.0606
14877TIP3    H166046   4.292   4.890   0.215  1.1056 -0.4606  0.5628
14877TIP3    H266047   4.241   4.921   0.076 -0.9661 -1.3964  1.0806
14878TIP3   OH266048   0.497   2.803   1.397 -0.0504 -0.4365 -0.0393
14878TIP3    H166049   0.542   2.723   1.371 -0.1104 -0.4128 -0.2164
14878TIP3    H266050   0.408   2.793   1.362 -0.0393 -0.2664 -0.1177
14879TIP3   OH266051   4.906   2.820  16.775 -0.2307 -0.4190  0.0260
14879TIP3    H166052   4.978   2.877  16.800 -0.0718 -1.3271  1.8408
14879TIP3    H266053   4.948   2.737  16.752 -0.4068  0.2565 -3.1651
14880TIP3   OH266054   2.674   4.179  12.445  0.5173 -0.4210 -0.2435
14880TIP3    H166055   2.735   4.215  12.380 -0.7307  0.1496 -1.1320
14880TIP3    H266056   2.685   4.236  12.521  1.6027 -0.7696 -0.1196
14881TIP3   OH266057   6.716   6.109  11.607 -0.2632 -0.0173  0.1686
14881TIP3    H166058   6.695   6.107  11.701  1.6500 -0.3119  0.6313
14881TIP3    H266059   6.798   6.158  11.602  0.2066 -0.8910 -1.2218
14882TIP3   OH266060   3.281   2.457   2.939  0.0898 -0.0975 -0.1339
14882TIP3    H166061   3.376   2.450   2.943  0.3070  1.3809 -1.5537
14882TIP3    H266062   3.249   2.384   2.993  2.0007  0.5724  2.0585
14883TIP3   OH266063   5.828   2.585  15.059 -0.2299 -0.2838 -0.7896
14883TIP3    H166064   5.860   2.648  15.124 -0.6140  0.5350 -1.3651
14883TIP3    H266065   5.754   2.630  15.018 -0.8251 -1.3245 -0.8789
14884TIP3   OH266066   2.242   6.175   2.418 -0.2677  0.0020 -0.1932
14884TIP3    H166067   2.261   6.119   2.493 -1.9061  0.6629  0.7610
14884TIP3    H266068   2.313   6.157   2.356  0.5087 -1.3835  1.0397
14885TIP3   OH266069   6.494   5.689  16.917 -0.4985 -0.2139  0.0914
14885TIP3    H166070   6.429   5.742  16.870  0.9872  0.6895 -1.0270
14885TIP3    H266071   6.525   5.626  16.852  1.0314  0.5585  0.0207
14886TIP3   OH266072   5.030   1.918   2.791 -0.0763  0.1366  0.7224
14886TIP3    H166073   5.091   1.946   2.722 -0.4192 -0.4154  0.1827
14886TIP3    H266074   4.992   1.836   2.758 -2.2492  1.2324  0.3356
14887TIP3   OH266075   4.509   1.773   2.100 -0.1882 -0.0019  0.1454
14887TIP3    H166076   4.518   1.774   2.004 -1.1529 -1.6000  0.0065
14887TIP3    H266077   4.443   1.839   2.119 -0.8020 -0.4392 -0.4169
14888TIP3   OH266078   1.394   6.525  15.190 -0.2333  0.1526 -0.3543
14888TIP3    H166079   1.336   6.539  15.265  1.7938  1.1328  1.1081
14888TIP3    H266080   1.380   6.433  15.167 -0.9930 -0.1492  1.1369
14889TIP3   OH266081   1.691   5.430   5.601  0.2850  0.4201 -0.3540
14889TIP3    H166082   1.737   5.438   5.517  0.9279 -0.1170 -0.0566
14889TIP3    H266083   1.633   5.355   5.590  0.2043  0.4886 -0.3943
14890TIP3   OH266084   1.210   2.837   1.447  0.0701  0.1191 -0.1842
14890TIP3    H166085   1.194   2.913   1.503 -0.6805  0.6611 -1.1051
14890TIP3    H266086   1.150   2.770   1.480  2.5914 -1.0896  2.3857
14891TIP3   OH266087   4.210   6.088   0.903  0.0807 -0.1041 -0.4183
14891TIP3    H166088   4.277   6.110   0.968  0.7959 -0.7772 -0.9074
14891TIP3    H266089   4.135   6.143   0.927  0.2721 -0.4307  1.0569
14892TIP3   OH266090   2.014   5.877  13.751  0.1434  0.3168  0.0719
14892TIP3    H166091   1.936   5.913  13.793 -1.0170 -1.5693 -0.3438
14892TIP3    H266092   1.985   5.854  13.663  1.5549  0.8513 -0.5538
14893TIP3   OH266093   6.518   2.604  12.681  0.0185  1.0109  0.3291
14893TIP3    H166094   6.526   2.542  12.609 -0.8164  2.1447 -0.7730
14893TIP3    H266095   6.470   2.556  12.749 -0.8498  0.5250 -0.6017
14894TIP3   OH266096   6.700   3.821   5.830 -0.0456 -0.8089 -0.3359
14894TIP3    H166097   6.636   3.876   5.786  1.6279  1.4427 -0.1322
14894TIP3    H266098   6.660   3.798   5.913 -0.5173  0.7414 -0.1208
14895TIP3   OH266099   2.495   4.874   4.364  0.3195  0.2519 -0.5140
14895TIP3    H166100   2.566   4.916   4.412 -0.0409  1.4835 -1.0233
14895TIP3    H266101   2.511   4.780   4.375  1.1185  0.5046  0.6975
14896TIP3   OH266102   3.306   5.973  13.082 -0.0171  0.0732  0.0881
14896TIP3    H166103   3.234   5.997  13.024 -0.7100 -2.1826 -0.0766
14896TIP3    H266104   3.288   6.020  13.163 -2.3206 -1.2038  0.4095
14897TIP3   OH266105   6.585   4.817  17.207 -0.7991 -0.1096  0.0740
14897TIP3    H166106   6.657   4.879  17.194 -0.0661 -0.6860  1.1500
14897TIP3    H266107   6.529   4.828  17.131  1.5439 -1.1545 -1.9421
14898TIP3   OH266108   5.593   4.439  13.633  0.3783 -0.2444  0.1538
14898TIP3    H166109   5.665   4.435  13.696  0.3195 -0.4895  0.2048
14898TIP3    H266110   5.612   4.518  13.581  2.3009 -1.8250 -1.7667
14899TIP3   OH266111   2.199   6.183  16.336  0.2424 -0.0079 -0.0545
14899TIP3    H166112   2.291   6.159  16.336  0.2901  0.1568  0.4700
14899TIP3    H266113   2.198   6.273  16.303  0.3066  0.1152  0.2771
14900TIP3   OH266114   1.844   5.080   5.290 -0.1121  0.2737  0.3456
14900TIP3    H166115   1.750   5.067   5.304 -0.1084  1.4451  1.8003
14900TIP3    H266116   1.885   5.001   5.324 -0.5682 -0.3743 -0.5694
14901TIP3   OH266117   5.291   2.930  12.655 -0.0003 -0.0398 -0.0291
14901TIP3    H166118   5.273   3.013  12.610  0.0376 -0.8248 -1.5318
14901TIP3    H266119   5.335   2.956  12.736 -1.1411  1.4793  0.1462
14902TIP3   OH266120   5.524   3.510  14.589  0.2513  0.1201 -0.3183
14902TIP3    H166121   5.464   3.585  14.590  0.6014  0.4122  0.6323
14902TIP3    H266122   5.468   3.434  14.606 -0.0929  0.1749 -1.1857
14903TIP3   OH266123   2.370   1.939  14.688  0.3176  0.0330 -0.2889
14903TIP3    H166124   2.437   1.875  14.714  0.8211  1.0428  1.0492
14903TIP3    H266125   2.289   1.889  14.685  0.4778 -0.4730  2.0008
14904TIP3   OH266126   1.841   5.202   2.555 -0.2626  0.5092  0.4358
14904TIP3    H166127   1.846   5.112   2.524  0.2362  0.8949 -0.6736
14904TIP3    H266128   1.895   5.252   2.493 -2.4098  1.9316 -0.4655
14905TIP3   OH266129   5.136   6.687   1.317 -0.4329  0.4641 -0.5494
14905TIP3    H166130   5.054   6.653   1.352 -0.3038  1.4154  0.7399
14905TIP3    H266131   5.109   6.743   1.244 -0.6739 -1.8832 -2.3553
14906TIP3   OH266132   5.340   4.071  16.552  0.3598  0.5475  0.1750
14906TIP3    H166133   5.255   4.043  16.519  1.0631 -0.0803 -1.1592
14906TIP3    H266134   5.403   4.013  16.510  1.4758  1.1433  0.9698
14907TIP3   OH266135   5.941   6.441  13.569 -0.2343  0.6504 -0.2085
14907TIP3    H166136   5.891   6.361  13.586 -0.2618  1.0972  2.1564
14907TIP3    H266137   6.032   6.412  13.566 -0.2870  0.4468  0.1167
14908TIP3   OH266138   5.057   4.977   4.816 -0.6754  0.0312  0.2219
14908TIP3    H166139   5.050   4.908   4.882  0.0760  0.5175  0.8321
14908TIP3    H266140   5.103   5.048   4.861  0.2211  0.2219 -0.9586
14909TIP3   OH266141   2.451   4.024   5.207 -0.3876  0.7345  0.2193
14909TIP3    H166142   2.504   3.948   5.233  0.3009  0.8482 -0.7876
14909TIP3    H266143   2.395   4.041   5.283  2.5645  2.0214  2.2850
14910TIP3   OH266144   2.591   5.846  12.234  0.1727 -0.3108  0.2009
14910TIP3    H166145   2.569   5.754  12.253  0.2200 -0.5567 -0.8806
14910TIP3    H266146   2.674   5.840  12.185  0.2831  0.3244  0.3106
14911TIP3   OH266147   4.554   4.213  12.253  0.4156 -0.1538  0.4950
14911TIP3    H166148   4.501   4.134  12.238  1.2710 -0.4099 -1.4861
14911TIP3    H266149   4.528   4.243  12.340 -1.5674 -1.3492  0.3735
14912TIP3   OH266150   6.729   3.659   2.388 -0.0269 -0.2841 -0.1010
14912TIP3    H166151   6.811   3.656   2.437  0.7254 -0.2357 -1.3135
14912TIP3    H266152   6.748   3.613   2.306 -1.1541 -0.1056 -0.4872
14913TIP3   OH266153   2.355   3.681  14.411 -0.5793  0.6826 -0.2251
14913TIP3    H166154   2.319   3.597  14.383  2.6041 -0.9978  0.2851
14913TIP3    H266155   2.418   3.704  14.343  1.2327  0.7431  1.3951
14914TIP3   OH266156   1.871   4.342   0.519  0.2882 -0.0778 -0.5815
14914TIP3    H166157   1.805   4.412   0.518 -0.6347 -0.9186 -1.8995
14914TIP3    H266158   1.955   4.388   0.525 -0.3144  1.1288 -1.0289
14915TIP3   OH266159   4.269   2.895  15.762  0.1822  1.0655  0.0397
14915TIP3    H166160   4.305   2.806  15.754 -2.1816  0.1220 -0.9657
14915TIP3    H266161   4.320   2.947  15.700 -0.4001 -0.3226 -1.6792
14916TIP3   OH266162   3.636   6.607   1.773 -0.1670  0.1961 -0.5789
14916TIP3    H166163   3.701   6.542   1.800  0.3399  0.7148 -0.5359
14916TIP3    H266164   3.674   6.691   1.799 -0.6656  0.5375 -0.9422
14917TIP3   OH266165   6.552   4.378  16.275 -0.2622 -0.1662 -0.1585
14917TIP3    H166166   6.463   4.385  16.308  0.2481  0.2222  1.2481
14917TIP3    H266167   6.549   4.416  16.188 -1.0348  1.9917  0.7373
14918TIP3   OH266168   6.604   6.576   1.413  0.3600  0.3778  0.1560
14918TIP3    H166169   6.510   6.574   1.396 -0.1467  1.1438  2.4951
14918TIP3    H266170   6.644   6.586   1.327 -1.6988  0.0589 -0.8820
14919TIP3   OH266171   5.450   1.910   0.995 -0.0187 -0.3313  0.8312
14919TIP3    H166172   5.462   2.001   1.021  1.1911 -0.0874 -0.4917
14919TIP3    H266173   5.537   1.871   1.002 -0.2331 -1.0010  0.0004
14920TIP3   OH266174   3.885   4.239   4.621 -0.4391  0.2367 -0.1432
14920TIP3    H166175   3.924   4.198   4.544 -2.3964  0.0964 -1.1109
14920TIP3    H266176   3.910   4.331   4.614  0.6056 -0.0265 -0.1215
14921TIP3   OH266177   1.250   0.442   2.802  0.5325 -0.2745  0.4434
14921TIP3    H166178   1.316   0.375   2.820  1.4947  1.2077  2.8009
14921TIP3    H266179   1.187   0.398   2.745  1.3340 -3.0534  1.5254
14922TIP3   OH266180   4.284   1.397   5.376 -0.0722  0.0078  0.4697
14922TIP3    H166181   4.219   1.397   5.306  0.3643 -1.5429  0.0401
14922TIP3    H266182   4.363   1.431   5.336 -0.5904  2.0526  1.0338
14923TIP3   OH266183   4.781   1.779  15.200 -0.5607  0.7441 -0.2918
14923TIP3    H166184   4.834   1.827  15.136  1.9212 -0.1085  1.0379
14923TIP3    H266185   4.804   1.687  15.187 -1.4152  0.3794  0.6424
14924TIP3   OH266186   5.282   0.554  16.422 -0.4048 -0.0686 -0.1444
14924TIP3    H166187   5.203   0.589  16.380 -0.1582  0.4533 -0.1782
14924TIP3    H266188   5.309   0.482  16.365  0.6968  1.4771 -1.6806
14925TIP3   OH266189   0.855   0.229   1.728 -0.4149  0.2502  0.3142
14925TIP3    H166190   0.803   0.305   1.752  0.5155  1.3537 -1.0618
14925TIP3    H266191   0.877   0.242   1.636  3.8221  0.8233  1.1923
14926TIP3   OH266192   4.668   0.075   4.945 -0.4939  0.1722 -0.0897
14926TIP3    H166193   4.600   0.103   4.882  0.8384  1.5207 -1.0011
14926TIP3    H266194   4.692   0.155   4.991 -0.1541 -0.4723  0.8717
14927TIP3   OH266195   3.892   0.538   2.396 -0.0384  0.2455  0.5793
14927TIP3    H166196   3.798   0.525   2.386  0.0775  0.6653 -1.4689
14927TIP3    H266197   3.929   0.450   2.390 -0.1198  0.3095 -1.6030
14928TIP3   OH266198   3.032   2.191  17.310 -0.4815  0.0650  0.1212
14928TIP3    H166199   3.050   2.277  17.347  0.4428 -0.1502  0.1985
14928TIP3    H266200   3.029   2.205  17.215 -0.2871  0.1793  0.1316
14929TIP3   OH266201   6.019   5.287   1.841 -0.6938  1.0426 -0.5965
14929TIP3    H166202   5.940   5.260   1.793 -0.4939 -1.1271  0.1964
14929TIP3    H266203   5.985   5.326   1.922 -1.0517 -1.7977  0.7448
14930TIP3   OH266204   0.982   1.282   4.117 -0.1868  0.3219 -0.1127
14930TIP3    H166205   0.999   1.272   4.211  0.5062  1.8274 -0.0470
14930TIP3    H266206   0.942   1.369   4.109 -0.4467  0.1225 -1.2002
14931TIP3   OH266207   3.832   2.542   1.602 -0.0952  0.0124 -0.8872
14931TIP3    H166208   3.826   2.544   1.506 -0.1145 -0.1588 -0.8907
14931TIP3    H266209   3.811   2.631   1.630 -0.2740  0.0167 -1.0322
14932TIP3   OH266210   4.469   1.049  12.387 -0.3474 -0.1641  0.3652
14932TIP3    H166211   4.439   1.020  12.301 -0.6683 -1.8897  1.0183
14932TIP3    H266212   4.544   0.994  12.408 -0.3948  0.0859  1.2815
14933TIP3   OH266213   1.211   1.761  16.390  0.1280 -0.1266  0.7109
14933TIP3    H166214   1.274   1.692  16.371 -1.1223 -1.4099  1.0340
14933TIP3    H266215   1.252   1.841  16.357  1.6024 -1.0133  0.2993
14934TIP3   OH266216   2.771   3.009  11.804  0.5188  0.5654 -0.6093
14934TIP3    H166217   2.769   3.009  11.708  1.1760 -2.4038 -0.6976
14934TIP3    H266218   2.678   3.009  11.829  0.2735 -1.3809 -1.3542
14935TIP3   OH266219   3.954   1.082  15.144 -0.1645  0.3726  0.4241
14935TIP3    H166220   3.928   1.098  15.235  0.5921  1.7314  0.4340
14935TIP3    H266221   3.900   1.142  15.093  1.2308  1.5184  0.2393
14936TIP3   OH266222   3.570   6.136   3.106  0.2500 -0.1606  0.3400
14936TIP3    H166223   3.498   6.179   3.152 -0.7915 -0.6903 -0.7287
14936TIP3    H266224   3.558   6.043   3.125  0.1942 -0.3183 -0.4442
14937TIP3   OH266225   1.534   6.765   1.848  0.7859  0.2441 -0.2057
14937TIP3    H166226   1.534   6.854   1.883  1.6769 -0.2422  1.0847
14937TIP3    H266227   1.528   6.777   1.753  1.7165  1.7263 -0.1143
14938TIP3   OH266228   6.617   1.117  13.021  0.2208 -0.2876 -0.5504
14938TIP3    H166229   6.567   1.190  13.058  1.1257  0.0280  0.0914
14938TIP3    H266230   6.635   1.060  13.096 -1.6697 -1.9449 -1.2518
14939TIP3   OH266231   3.857   0.834   2.574 -0.0882  0.4649  0.0507
14939TIP3    H166232   3.773   0.864   2.540 -0.8591  0.2228  1.6593
14939TIP3    H266233   3.921   0.861   2.508 -1.3233  1.3964 -0.7996
14940TIP3   OH266234   2.521   3.058   1.464  0.5941 -0.1688  0.1150
14940TIP3    H166235   2.548   3.005   1.539 -0.0167  0.2362  0.6264
14940TIP3    H266236   2.552   3.147   1.484  1.0823 -0.2003 -0.4602
14941TIP3   OH266237   2.080   1.832  14.648 -0.4775  0.1909 -0.0950
14941TIP3    H166238   2.096   1.914  14.603 -1.7694  0.6558  0.2461
14941TIP3    H266239   2.033   1.856  14.728 -2.2570 -0.9616 -0.7210
14942TIP3   OH266240   3.883   3.623   3.969 -0.4979  0.3013 -0.1694
14942TIP3    H166241   3.930   3.687   3.915 -0.6022 -1.1341 -2.0881
14942TIP3    H266242   3.948   3.555   3.987 -1.2163 -0.6756 -1.0726
14943TIP3   OH266243   5.295   0.806  11.077 -0.5775 -0.1757 -0.2728
14943TIP3    H166244   5.288   0.900  11.060  1.1287  0.2372  0.9554
14943TIP3    H266245   5.207   0.772  11.060 -1.6836  1.9066  0.7929
14944TIP3   OH266246   2.022   5.953  15.266 -0.2921 -0.8740 -0.3493
14944TIP3    H166247   1.985   6.025  15.214 -0.9804 -1.4199 -0.6392
14944TIP3    H266248   2.091   5.917  15.211  0.3184 -0.1994 -0.0400
14945TIP3   OH266249   0.752   4.673   2.010  0.1925 -0.3101  0.6637
14945TIP3    H166250   0.769   4.763   1.982  1.0825 -0.5741  0.3208
14945TIP3    H266251   0.668   4.677   2.056  0.9340  0.9676  1.9811
14946TIP3   OH266252   5.028   5.457   1.111  0.2485 -0.5013  0.2194
14946TIP3    H166253   5.020   5.365   1.084  1.3095 -0.5194 -0.0871
14946TIP3    H266254   5.007   5.506   1.032 -0.7282 -0.4557  0.4917
14947TIP3   OH266255   6.390   5.183   5.402  0.5247 -0.1657 -0.9302
14947TIP3    H166256   6.301   5.150   5.388  0.2567  0.6269 -1.1599
14947TIP3    H266257   6.406   5.173   5.496 -0.9174  2.2978 -0.3220
14948TIP3   OH266258   0.146   5.429   1.655 -0.6893  0.1194 -0.1704
14948TIP3    H166259   0.164   5.343   1.618 -1.3622 -0.2774  0.3832
14948TIP3    H266260   0.115   5.411   1.744 -0.7862  0.9323 -0.0284
14949TIP3   OH266261   5.429   5.162   0.609  0.7062  0.3102  0.2843
14949TIP3    H166262   5.521   5.168   0.635  0.3277  1.0951  1.5685
14949TIP3    H266263   5.410   5.246   0.568  1.2543 -0.8676 -2.5849
14950TIP3   OH266264   2.060   6.614   1.298 -0.0797 -0.5086  0.1348
14950TIP3    H166265   2.104   6.537   1.335  1.1924  0.0053 -0.2415
14950TIP3    H266266   2.043   6.590   1.207 -1.3319 -0.9999  0.4792
14951TIP3   OH266267   4.697   3.295  17.049  0.3363  0.3148 -0.0121
14951TIP3    H166268   4.769   3.264  17.105  0.9441  0.7793 -0.5217
14951TIP3    H266269   4.655   3.215  17.018  0.2573  0.0427  0.7540
14952TIP3   OH266270   5.374   6.730   5.422 -0.0469 -0.2938  0.1002
14952TIP3    H166271   5.449   6.714   5.479  1.4940  1.4126 -1.3081
14952TIP3    H266272   5.372   6.826   5.413 -2.4045 -0.2931  0.0506
14953TIP3   OH266273   4.484   1.920   1.545  0.1156  0.5788 -0.2124
14953TIP3    H166274   4.468   1.871   1.464  0.2169 -2.1926  1.3008
14953TIP3    H266275   4.579   1.931   1.547  0.2014 -0.1368 -0.0752
14954TIP3   OH266276   0.248   1.184  14.850 -0.1358 -0.0117  0.4842
14954TIP3    H166277   0.312   1.200  14.781 -0.7816  1.2845  0.1627
14954TIP3    H266278   0.191   1.260  14.848 -0.5772 -0.2683  2.0005
14955TIP3   OH266279   5.178   3.827  16.112 -0.0219  0.2560 -0.1393
14955TIP3    H166280   5.252   3.840  16.171  0.5516 -0.1053 -0.7641
14955TIP3    H266281   5.211   3.855  16.027 -0.2379 -0.9493 -0.6402
14956TIP3   OH266282   3.601   0.642  10.464  0.2810  0.1811 -0.6092
14956TIP3    H166283   3.654   0.708  10.419 -0.7392  1.4283 -0.0625
14956TIP3    H266284   3.516   0.646  10.420  0.8317 -2.4649 -2.1146
14957TIP3   OH266285   0.501   2.615  15.818  0.3948  0.0658 -0.0233
14957TIP3    H166286   0.485   2.531  15.775 -0.2792  0.9352 -1.5214
14957TIP3    H266287   0.430   2.622  15.883 -0.6987  0.3041 -1.1968
14958TIP3   OH266288   4.357   1.474   0.979 -0.4841 -0.2541 -0.4296
14958TIP3    H166289   4.316   1.388   0.978  0.3980 -0.6887 -1.6351
14958TIP3    H266290   4.390   1.486   0.890  0.6035  0.7428  0.0761
14959TIP3   OH266291   3.451   2.589   3.253  0.0290  0.3332 -0.0423
14959TIP3    H166292   3.479   2.513   3.202 -0.0146  1.3201 -1.5876
14959TIP3    H266293   3.388   2.635   3.197  0.9660  2.1573  0.3127
14960TIP3   OH266294   0.234   2.985  13.314 -0.0644  0.6490  0.2957
14960TIP3    H166295   0.316   3.008  13.359  1.5398  0.2017 -2.2057
14960TIP3    H266296   0.166   3.031  13.363  1.5746  0.5789  2.8367
14961TIP3   OH266297   3.198   0.321   4.072  0.5914 -0.1290 -0.0680
14961TIP3    H166298   3.126   0.259   4.056  0.0098  0.7683 -1.1316
14961TIP3    H266299   3.266   0.269   4.115 -0.8026 -0.9356  1.2338
14962TIP3   OH266300   0.088   5.283   2.532  0.2775  0.1539  0.4367
14962TIP3    H166301   0.137   5.352   2.575 -0.0031  0.2536  0.5972
14962TIP3    H266302   0.086   5.309   2.440 -0.2380  0.6067  0.5714
14963TIP3   OH266303   4.973   3.720  12.991 -1.0078 -0.8605 -0.1333
14963TIP3    H166304   4.925   3.729  12.908 -2.6685 -0.3514  0.8452
14963TIP3    H266305   5.060   3.688  12.964 -1.2740 -0.0991 -2.1151
14964TIP3   OH266306   1.819   5.784  16.900 -0.6970 -0.0772 -0.1995
14964TIP3    H166307   1.734   5.797  16.944 -1.0075 -1.4910 -0.3242
14964TIP3    H266308   1.797   5.768  16.809 -0.2229  0.4328 -0.4059
14965TIP3   OH266309   1.635   0.676  16.320 -0.0147 -0.2243 -0.6480
14965TIP3    H166310   1.563   0.661  16.259 -0.2034 -0.5307 -0.3542
14965TIP3    H266311   1.706   0.709  16.265 -0.3709  0.0681 -0.9402
14966TIP3   OH266312   6.466   3.572   2.442 -0.3812  0.5928  0.0596
14966TIP3    H166313   6.479   3.532   2.528 -0.4537 -1.5388 -0.8556
14966TIP3    H266314   6.553   3.600   2.414  0.2033 -1.6416 -0.4937
14967TIP3   OH266315   1.164   5.299  17.031 -0.0976  0.2994  0.2829
14967TIP3    H166316   1.110   5.260  16.962 -0.0679 -0.0447  0.4523
14967TIP3    H266317   1.241   5.332  16.984  0.3832 -0.7936  0.2624
14968TIP3   OH266318   2.117   2.904  12.753  0.4055 -0.0337 -0.4530
14968TIP3    H166319   2.201   2.945  12.732  1.4814 -1.4668  0.8807
14968TIP3    H266320   2.082   2.957  12.825  0.8221 -0.2526 -0.0890
14969TIP3   OH266321   1.245   1.984  13.000  0.0930  0.0445  0.0941
14969TIP3    H166322   1.238   2.007  12.907  0.4146 -1.6889 -0.3837
14969TIP3    H266323   1.339   1.984  13.018  0.0178  0.7971  0.5601
14970TIP3   OH266324   4.307   2.965   4.865 -0.1892 -0.0157  0.5419
14970TIP3    H166325   4.304   2.892   4.927 -2.8180 -0.0606  0.5026
14970TIP3    H266326   4.343   3.038   4.916  0.0871 -0.6899  1.3439
14971TIP3   OH266327   1.921   6.601  15.392 -0.0084 -0.5846  0.2802
14971TIP3    H166328   1.981   6.631  15.324 -0.7434 -0.1496 -0.1831
14971TIP3    H266329   1.883   6.681  15.428 -0.3075 -0.8531  0.5708
14972TIP3   OH266330   6.706   4.161  15.973  0.7889  0.1708 -0.0384
14972TIP3    H166331   6.756   4.235  15.939  0.0125 -0.5413 -3.0223
14972TIP3    H266332   6.735   4.152  16.063  3.5951  1.8178 -0.6538
14973TIP3   OH266333   2.894   6.453  14.618 -0.1936  0.2259  0.0001
14973TIP3    H166334   2.920   6.406  14.539  0.7196  1.2399 -0.3208
14973TIP3    H266335   2.799   6.462  14.610 -0.3137 -1.0021 -0.2216
14974TIP3   OH266336   1.294   3.893  11.524  0.1081  0.4247  0.5127
14974TIP3    H166337   1.286   3.798  11.520  0.6397  0.4014 -0.0568
14974TIP3    H266338   1.300   3.912  11.618 -0.2624 -0.0711  0.6437
14975TIP3   OH266339   0.797   0.149  13.921 -0.3458 -0.4601 -0.0493
14975TIP3    H166340   0.785   0.240  13.892 -1.0583 -0.9070 -1.2618
14975TIP3    H266341   0.878   0.121  13.878 -1.9518 -1.4577 -2.6751
14976TIP3   OH266342   4.513   2.992   0.554 -0.2088 -0.5218 -0.3358
14976TIP3    H166343   4.506   2.984   0.649 -1.3540  1.2479 -0.2085
14976TIP3    H266344   4.425   2.976   0.522 -0.8476  2.8446 -0.6522
14977TIP3   OH266345   0.521   1.802   1.712  0.2437  0.4046  1.1769
14977TIP3    H166346   0.546   1.803   1.619 -0.7970 -0.7174  0.8623
14977TIP3    H266347   0.482   1.888   1.727 -1.1808 -0.0022  0.0859
14978TIP3   OH266348   2.676   5.962   4.508  0.4353  0.3983 -0.2996
14978TIP3    H166349   2.750   5.908   4.481 -0.9644 -1.7269 -0.0770
14978TIP3    H266350   2.610   5.950   4.439 -0.4196  0.6972  0.4419
14979TIP3   OH266351   5.002   1.333  14.593  0.2207  0.2191  0.3005
14979TIP3    H166352   4.969   1.372  14.512 -0.9370  1.4569  1.3074
14979TIP3    H266353   4.946   1.257  14.607 -0.6158  0.8823  0.6973
14980TIP3   OH266354   0.421   4.549  12.986 -0.0049 -0.3362  0.0682
14980TIP3    H166355   0.468   4.619  12.941  0.6673 -1.5496 -1.1899
14980TIP3    H266356   0.436   4.566  13.079  1.7494  0.1380 -0.2596
14981TIP3   OH266357   5.392   6.267  17.063 -0.1724  0.1494 -0.5182
14981TIP3    H166358   5.418   6.278  16.971 -2.3807 -0.3884 -1.2556
14981TIP3    H266359   5.403   6.354  17.101 -1.4830  0.9960 -1.9437
14982TIP3   OH266360   0.189   5.891  11.897  0.4588 -0.0045 -0.3047
14982TIP3    H166361   0.113   5.947  11.914 -0.5762 -1.3885 -0.2053
14982TIP3    H266362   0.250   5.947  11.850 -0.8256  1.0091 -0.8098
14983TIP3   OH266363   0.602   5.401   0.705 -0.1081  0.4749  0.2413
14983TIP3    H166364   0.596   5.324   0.649  0.5710  1.0260 -0.6278
14983TIP3    H266365   0.637   5.470   0.647 -0.9003  1.4899  0.9237
14984TIP3   OH266366   2.154   3.080  13.399  0.5735 -0.2819 -0.0860
14984TIP3    H166367   2.126   2.999  13.441 -1.7207 -0.2552 -1.3498
14984TIP3    H266368   2.096   3.147  13.435 -0.7037 -0.0759 -2.3483
14985TIP3   OH266369   0.048   3.473  13.488  0.4633  0.2365 -0.4917
14985TIP3    H166370   0.141   3.474  13.511  0.3132  0.8557  0.1309
14985TIP3    H266371   0.002   3.461  13.571  0.0104 -1.7018 -0.9733
14986TIP3   OH266372   1.865   2.923   3.240  0.0108  0.1837  0.7578
14986TIP3    H166373   1.817   2.847   3.207  1.5192 -0.7944  0.6924
14986TIP3    H266374   1.872   2.907   3.335  1.0795 -0.2340  0.6239
14987TIP3   OH266375   2.079   6.458  13.460 -0.0929  0.3367  0.3939
14987TIP3    H166376   2.071   6.369  13.494  0.5441  0.0792 -0.1197
14987TIP3    H266377   2.148   6.498  13.513 -0.5646  0.6239  0.8075
14988TIP3   OH266378   4.697   2.157   2.462  0.0388 -0.1204  0.9604
14988TIP3    H166379   4.724   2.229   2.518  1.6571  1.6653 -1.8835
14988TIP3    H266380   4.764   2.090   2.474  0.9966  0.7136  0.3645
14989TIP3   OH266381   0.072   4.586  17.047 -0.0845  0.0919  0.1303
14989TIP3    H166382   0.071   4.494  17.074 -0.1023 -0.1582 -0.7099
14989TIP3    H266383  -0.002   4.595  16.987 -0.4055  0.7876  0.6131
14990TIP3   OH266384   5.138   1.924  11.295  0.5518 -0.3242  0.1802
14990TIP3    H166385   5.132   1.841  11.248  0.3787 -0.0788 -0.2374
14990TIP3    H266386   5.230   1.948  11.291  0.3533  0.3409 -1.1855
14991TIP3   OH266387   0.354   6.127  11.981  0.1104 -0.3448  0.0025
14991TIP3    H166388   0.351   6.045  12.031  0.6947 -2.2412 -2.8152
14991TIP3    H266389   0.364   6.099  11.890 -2.0178  2.8436 -1.3878
14992TIP3   OH266390   2.149   3.404   4.112 -0.0109  0.2082 -0.2263
14992TIP3    H166391   2.159   3.468   4.183 -1.2887  2.3833 -1.8712
14992TIP3    H266392   2.059   3.372   4.123  0.2435 -0.4548 -0.0856
14993TIP3   OH266393   1.857   5.935  11.536 -0.0425  0.5058  0.4892
14993TIP3    H166394   1.920   5.871  11.569  1.3139  1.1507 -0.7463
14993TIP3    H266395   1.893   6.020  11.562 -0.6335  0.8676  0.1470
14994TIP3   OH266396   1.193   6.527  12.056 -0.2897  0.3004  0.3313
14994TIP3    H166397   1.150   6.481  12.129 -2.1508  1.3588 -0.0299
14994TIP3    H266398   1.199   6.618  12.084  3.6274 -0.0538  1.1516
14995TIP3   OH266399   1.850   2.026   4.545  0.4987 -0.8870  0.0457
14995TIP3    H166400   1.790   2.070   4.485  0.7790  1.5841  1.4469
14995TIP3    H266401   1.820   1.935   4.546 -1.5431 -0.3082 -1.3005
14996TIP3   OH266402   3.133   5.995   2.883 -0.3401 -0.0759 -0.9703
14996TIP3    H166403   3.114   6.012   2.975  1.6279  0.3632 -0.5874
14996TIP3    H266404   3.085   5.915   2.862 -1.0773  0.0040  0.3402
14997TIP3   OH266405   3.263   5.408  16.991 -0.2538  0.1860 -0.3221
14997TIP3    H166406   3.301   5.321  16.981  0.4258  0.5683 -1.1916
14997TIP3    H266407   3.256   5.441  16.902 -0.0254  1.2226  0.0370
14998TIP3   OH266408   0.405   5.689  13.585  0.0246 -0.1682 -0.6665
14998TIP3    H166409   0.392   5.627  13.657  0.8234 -1.5163 -1.6206
14998TIP3    H266410   0.443   5.766  13.627 -0.2998 -0.5972  0.4686
14999TIP3   OH266411   2.490   0.711  14.204 -0.2705 -0.2136 -0.5141
14999TIP3    H166412   2.574   0.722  14.159 -0.4142  0.9706 -0.5181
14999TIP3    H266413   2.468   0.798  14.234 -2.4730 -0.1183 -2.1907
15000TIP3   OH266414   0.133   6.152  13.241 -0.4510 -0.3973 -0.4465
15000TIP3    H166415   0.076   6.183  13.312  0.1690  2.3286 -0.9983
15000TIP3    H266416   0.208   6.113  13.286 -1.2111 -0.9789  0.3400
15001TIP3   OH266417   6.297   3.742  10.523 -0.4449  0.7394  0.4802
15001TIP3    H166418   6.231   3.761  10.456  2.3398  1.9376 -2.1629
15001TIP3    H266419   6.283   3.649  10.544 -1.8216  0.4690 -1.3661
15002TIP3   OH266420   5.126   2.927  15.907  0.1221 -0.2252  0.1244
15002TIP3    H166421   5.088   2.878  15.980  1.5027 -0.8654  0.4428
15002TIP3    H266422   5.216   2.944  15.934  1.1643 -1.8258 -2.0379
15003TIP3   OH266423   5.342   0.045  12.235  0.4018  0.0016 -0.3882
15003TIP3    H166424   5.405  -0.018  12.270  0.2871  0.4629  0.7068
15003TIP3    H266425   5.261   0.026  12.282  0.3547  0.9183 -0.0763
15004TIP3   OH266426   1.048   0.120   5.802 -0.4170  0.0772 -0.3240
15004TIP3    H166427   1.083   0.205   5.776 -1.0898  0.1985 -0.8819
15004TIP3    H266428   1.029   0.129   5.895  0.7159  0.1044 -0.0777
15005TIP3   OH266429   0.054   5.377  11.288 -0.2490  0.0785  0.3015
15005TIP3    H166430   0.044   5.469  11.312  0.5064 -0.1969  1.7663
15005TIP3    H266431   0.144   5.370  11.256 -0.9339  0.2354 -1.8574
15006TIP3   OH266432   6.017   2.331  11.547 -0.3951  0.0764  0.4718
15006TIP3    H166433   5.955   2.303  11.480  0.7968  0.0941 -0.6763
15006TIP3    H266434   6.054   2.249  11.580 -0.2116  0.1130  0.3553
15007TIP3   OH266435   1.883   0.461   0.370  0.4642  0.0422  0.3385
15007TIP3    H166436   1.935   0.538   0.396  0.3496  0.4048 -0.4770
15007TIP3    H266437   1.807   0.463   0.427  0.4770  0.5285  0.3433
15008TIP3   OH266438   4.828   3.243   1.466 -0.3333  0.4225  0.5886
15008TIP3    H166439   4.753   3.296   1.491 -0.6472  0.5717 -0.5983
15008TIP3    H266440   4.878   3.299   1.406  0.8482  0.4056  1.5069
15009TIP3   OH266441   5.482   3.098  13.603  0.6726 -0.0509 -0.5061
15009TIP3    H166442   5.388   3.083  13.617  0.8089 -1.8774 -1.2629
15009TIP3    H266443   5.524   3.061  13.681  0.8679 -1.5568 -1.2784
15010TIP3   OH266444   6.634   2.789  11.688 -0.0502  0.0828  0.4647
15010TIP3    H166445   6.564   2.818  11.747 -0.7660 -1.8212  0.6069
15010TIP3    H266446   6.670   2.711  11.730  1.9836  0.8501  0.2339
15011TIP3   OH266447   1.965   0.015  16.198  0.8934  0.6487 -0.5256
15011TIP3    H166448   1.919   0.093  16.168 -1.2314  0.1381  1.1014
15011TIP3    H266449   1.901  -0.056  16.187  2.4261 -0.7140 -1.0900
15012TIP3   OH266450   6.040   5.890   2.513 -0.0256  0.5400  0.6042
15012TIP3    H166451   5.989   5.947   2.456  2.4715  0.8886 -1.4765
15012TIP3    H266452   5.996   5.805   2.509 -2.1776  1.5475  1.4798
15013TIP3   OH266453   4.425   0.072   2.395  0.3842 -0.5210  0.5149
15013TIP3    H166454   4.519   0.079   2.381  0.9914 -2.3929  2.8814
15013TIP3    H266455   4.386   0.090   2.310  2.8044  1.1949 -0.3275
15014TIP3   OH266456   0.364   0.234   5.433  0.0358 -0.3317 -0.7869
15014TIP3    H166457   0.284   0.187   5.455  0.3955 -1.0091 -0.8990
15014TIP3    H266458   0.411   0.175   5.375  0.1704  0.4705 -1.5147
15015TIP3   OH266459   6.702   0.737  11.572 -0.5262  0.1862  0.0569
15015TIP3    H166460   6.783   0.698  11.603 -0.4332 -0.7874 -1.3400
15015TIP3    H266461   6.712   0.741  11.477 -2.0895  0.1181 -0.1330
15016TIP3   OH266462   3.367   3.867  13.123  0.3944 -0.2291  0.0961
15016TIP3    H166463   3.435   3.831  13.066 -0.8247 -0.5991 -1.1615
15016TIP3    H266464   3.310   3.793  13.143 -0.7230  0.4412 -0.4627
15017TIP3   OH266465   6.059   2.876  15.057 -0.4493  0.0031 -0.5517
15017TIP3    H166466   6.063   2.817  14.981 -0.2798 -2.6031  1.3406
15017TIP3    H266467   6.013   2.825  15.124  0.4884  1.7356  1.5043
15018TIP3   OH266468   1.729   4.442  12.928  0.2780 -0.0869  0.1411
15018TIP3    H166469   1.645   4.399  12.915 -0.2263  0.4751  1.3656
15018TIP3    H266470   1.790   4.393  12.874 -0.9732 -0.0227 -1.3957
15019TIP3   OH266471   5.921   6.463  14.908  0.0328  0.4532  0.3682
15019TIP3    H166472   5.964   6.544  14.881 -1.1646  0.6185 -1.2198
15019TIP3    H266473   5.979   6.393  14.878  0.0865  0.6985 -0.1097
15020TIP3   OH266474   3.818   0.475   5.489 -0.0697 -0.4662 -0.1951
15020TIP3    H166475   3.897   0.473   5.542 -0.1500  1.1383  0.0150
15020TIP3    H266476   3.775   0.391   5.508  1.1476 -0.9969  0.3210
15021TIP3   OH266477   5.635   3.570   0.030 -0.0916 -0.0706 -0.0902
15021TIP3    H166478   5.688   3.648   0.047 -1.7082  1.2845 -0.9499
15021TIP3    H266479   5.546   3.604   0.018 -0.6707 -1.9397 -1.5348
15022TIP3   OH266480   0.619   2.906   0.026 -0.1621 -0.6028 -0.1001
15022TIP3    H166481   0.665   2.985  -0.003 -2.0215  0.0849 -1.3842
15022TIP3    H266482   0.536   2.938   0.060  0.0601 -1.8395  1.7603
15023TIP3   OH266483   4.899   3.871  11.902 -0.3388  0.7172  0.2250
15023TIP3    H166484   4.899   3.909  11.989  0.6701 -0.1100  0.6097
15023TIP3    H266485   4.944   3.935  11.847  2.4618 -0.3811  1.1135
15024TIP3   OH266486   5.726   5.523  15.686  0.0008 -0.1260  0.5479
15024TIP3    H166487   5.663   5.490  15.751 -0.9499  0.3560 -0.1015
15024TIP3    H266488   5.695   5.487  15.603  0.4200  0.3608  0.1802
15025TIP3   OH266489   1.014   5.097   5.223 -0.7099  0.4827 -0.4473
15025TIP3    H166490   1.102   5.098   5.186 -0.5423  2.0459 -0.0891
15025TIP3    H266491   0.989   5.005   5.223  0.4295  0.1371 -1.6964
15026TIP3   OH266492   4.654   0.497  12.296  0.1827  0.8615 -0.4329
15026TIP3    H166493   4.743   0.528  12.312  0.8623 -0.0624 -2.1929
15026TIP3    H266494   4.665   0.409  12.261 -1.5201  0.1242  0.7503
15027TIP3   OH266495   4.141   0.441   5.236  0.8076  0.2202 -0.4964
15027TIP3    H166496   4.062   0.391   5.217 -0.0797  1.7236 -0.9482
15027TIP3    H266497   4.176   0.463   5.150  2.1059 -0.9516 -0.3100
15028TIP3   OH266498   3.056   5.676   1.172  0.1267 -0.2126 -0.0668
15028TIP3    H166499   3.124   5.720   1.121  0.0381  0.7356  0.5916
15028TIP3    H266500   3.049   5.728   1.252 -2.7403  0.9219 -0.9234
15029TIP3   OH266501   4.421   0.822  13.784 -0.7050  0.0365 -0.2095
15029TIP3    H166502   4.496   0.770  13.755 -0.3497  0.2048  0.3932
15029TIP3    H266503   4.443   0.912  13.761 -0.0609  0.2870  1.2390
15030TIP3   OH266504   1.662   3.603  11.239  0.4154  0.0096  0.3322
15030TIP3    H166505   1.717   3.607  11.318  0.7770 -1.0002  0.1380
15030TIP3    H266506   1.697   3.529  11.189  1.3401  1.6697 -1.6385
15031TIP3   OH266507   5.425   3.733   4.561 -0.1806 -0.3066  0.5787
15031TIP3    H166508   5.428   3.770   4.472 -1.4369 -0.3933  0.4857
15031TIP3    H266509   5.405   3.808   4.617 -0.0941 -0.3823  0.7117
15032TIP3   OH266510   2.958   5.680  16.180 -0.4014  0.1929 -0.0546
15032TIP3    H166511   2.880   5.658  16.231 -0.6174  0.7945 -0.1177
15032TIP3    H266512   3.027   5.691  16.246 -0.3492 -0.3800 -0.0022
15033TIP3   OH266513   5.845   5.934   1.107 -0.5683  0.4159  0.1053
15033TIP3    H166514   5.765   5.979   1.132 -0.5839  0.8292 -0.6491
15033TIP3    H266515   5.901   6.002   1.069 -0.4619 -0.1268 -0.7467
15034TIP3   OH266516   5.116   6.107   1.471  0.3760  0.1505 -0.0885
15034TIP3    H166517   5.155   6.059   1.545  0.7380 -0.4297 -0.6469
15034TIP3    H266518   5.186   6.165   1.441 -0.7065  2.7474  1.9734
15035TIP3   OH266519   6.420   5.385   3.698 -0.0993 -0.4315 -0.0661
15035TIP3    H166520   6.428   5.476   3.667  1.4280 -0.7863 -0.8110
15035TIP3    H266521   6.331   5.360   3.674  0.0345  0.3193 -1.4662
15036TIP3   OH266522   1.218   3.090  16.757  0.0680  0.0547  0.0518
15036TIP3    H166523   1.194   3.178  16.786 -0.5258  0.0420 -0.3857
15036TIP3    H266524   1.141   3.057  16.711  0.5322 -0.4242 -0.4105
15037TIP3   OH266525   5.908   6.317  10.557 -0.0229  0.0807  0.5126
15037TIP3    H166526   5.940   6.267  10.632  2.3540 -1.6577 -1.5107
15037TIP3    H266527   5.837   6.263  10.522 -1.0585  0.8394  1.3602
15038TIP3   OH266528   5.859   0.554   4.103  0.0783 -0.2945 -0.4739
15038TIP3    H166529   5.899   0.630   4.146 -2.8097  0.6478  0.7576
15038TIP3    H266530   5.861   0.575   4.010 -1.9468  2.0510 -0.0742
15039TIP3   OH266531   3.948   4.929   3.872 -0.3344 -0.1612 -1.0018
15039TIP3    H166532   3.991   4.927   3.958 -0.0118 -0.4743 -1.1724
15039TIP3    H266533   3.866   4.882   3.885 -0.2894 -0.2015 -0.8644
15040TIP3   OH266534   2.254   6.688   2.533  0.3589 -0.1109  0.7754
15040TIP3    H166535   2.229   6.781   2.534  0.2200 -0.1338  2.3936
15040TIP3    H266536   2.210   6.651   2.609  2.0124 -1.0777  1.3014
15041TIP3   OH266537   5.541   3.504   0.286  0.5011  0.5635  0.0200
15041TIP3    H166538   5.568   3.454   0.209 -0.6037 -0.1286  0.0666
15041TIP3    H266539   5.567   3.450   0.361 -0.4317  0.1824  0.0773
15042TIP3   OH266540   5.713   6.169  14.489 -0.0266 -0.2252 -0.0028
15042TIP3    H166541   5.699   6.076  14.510  1.1113 -0.1175  1.4101
15042TIP3    H266542   5.708   6.213  14.574  0.8374  0.8261 -0.4861
15043TIP3   OH266543   6.618   5.578  16.433  0.6640  0.0726  0.7928
15043TIP3    H166544   6.634   5.672  16.434 -0.3870  0.2614  1.6266
15043TIP3    H266545   6.617   5.552  16.525  0.0262 -0.5835  0.6154
15044TIP3   OH266546   0.789   6.491  12.292 -0.4935  0.1946 -0.6648
15044TIP3    H166547   0.835   6.551  12.351 -0.5333  0.9946 -1.4308
15044TIP3    H266548   0.829   6.507  12.206 -0.9896 -0.3777 -1.0067
15045TIP3   OH266549   4.033   0.261   1.386 -0.1692  0.4275 -0.1602
15045TIP3    H166550   4.084   0.192   1.344 -2.1938 -0.3363 -1.5580
15045TIP3    H266551   4.047   0.338   1.330 -0.1153  0.3704 -0.2258
15046TIP3   OH266552   4.498   1.852   0.911 -0.2160 -0.1332 -0.0518
15046TIP3    H166553   4.533   1.806   0.987  1.1842  1.5218  0.3480
15046TIP3    H266554   4.557   1.926   0.897 -1.8767  1.0593 -1.2075
15047TIP3   OH266555   4.611   0.832  14.718  0.0817 -0.8151 -0.5358
15047TIP3    H166556   4.642   0.742  14.709  0.1636 -1.1540  2.3928
15047TIP3    H266557   4.663   0.869  14.789  1.5147  2.3081 -2.9662
15048TIP3   OH266558   4.873   0.763  14.453 -0.0198 -0.4393  0.0187
15048TIP3    H166559   4.815   0.803  14.388 -1.1287 -0.1572  1.1360
15048TIP3    H266560   4.882   0.829  14.521  0.3009 -1.1030  0.6349
15049TIP3   OH266561   3.737   6.220  16.568  0.8378 -0.0909 -0.0913
15049TIP3    H166562   3.739   6.245  16.660  2.7413  1.1734 -0.4287
15049TIP3    H266563   3.665   6.156  16.562  0.0887  0.4730  2.0669
15050TIP3   OH266564   0.085   4.903  10.876  0.3355  1.1041  0.0174
15050TIP3    H166565   0.170   4.937  10.904 -0.5601  2.4122  1.3415
15050TIP3    H266566   0.098   4.809  10.867  1.5557  1.0536  1.7998
15051TIP3   OH266567   4.617   0.993   2.004 -0.3710 -0.1859 -0.2667
15051TIP3    H166568   4.713   0.999   2.000 -0.2603 -1.9985 -0.9294
15051TIP3    H266569   4.599   0.950   2.088 -0.4638 -1.9176 -1.1462
15052TIP3   OH266570   5.810   4.258  13.145  0.0182 -0.3223 -1.3639
15052TIP3    H166571   5.884   4.289  13.197  0.0584 -1.0979 -0.9490
15052TIP3    H266572   5.741   4.323  13.161 -0.1980 -0.8813  0.2167
15053TIP3   OH266573   2.169   2.772  15.999 -0.0919  0.0426  0.3271
15053TIP3    H166574   2.254   2.728  15.992 -1.0634 -1.9005  0.4429
15053TIP3    H266575   2.152   2.777  16.093 -0.2240  0.2379  0.2938
15054TIP3   OH266576   5.512   5.217  12.341 -0.5459  0.4633 -0.0049
15054TIP3    H166577   5.594   5.185  12.304 -1.0770  0.0947 -0.8831
15054TIP3    H266578   5.466   5.137  12.370 -0.5921  0.6676  0.4998
15055TIP3   OH266579   3.435   2.867   0.405  0.3350 -0.5431  0.1324
15055TIP3    H166580   3.485   2.805   0.457  2.7583  0.9587 -0.2648
15055TIP3    H266581   3.501   2.915   0.354 -1.5519  1.2305 -0.7906
15056TIP3   OH266582   5.332   2.782   1.070  0.0433  0.2742 -0.0429
15056TIP3    H166583   5.423   2.801   1.047 -0.2211  1.6634 -0.0326
15056TIP3    H266584   5.295   2.742   0.991  1.1471 -2.1566  0.5931
15057TIP3   OH266585   2.519   6.049   4.758  0.5345  0.1844  0.3640
15057TIP3    H166586   2.575   6.066   4.833  0.4929  0.8759  0.2465
15057TIP3    H266587   2.579   6.025   4.687  0.6684  0.6248  0.3223
15058TIP3   OH266588   0.686   6.123   1.605  0.3009  0.2300  1.0813
15058TIP3    H166589   0.636   6.105   1.525  1.7251 -1.3413  0.4909
15058TIP3    H266590   0.659   6.055   1.666  2.0195 -0.9392  0.5894
15059TIP3   OH266591   1.579   5.812   4.478  0.5102 -0.6520 -0.2719
15059TIP3    H166592   1.666   5.800   4.440  1.5730  1.3621  1.2988
15059TIP3    H266593   1.594   5.812   4.572 -1.3164 -0.9827  0.0524
15060TIP3   OH266594   0.475   4.651  16.202 -0.0782  0.5415  0.5233
15060TIP3    H166595   0.526   4.674  16.124 -1.5920 -1.2422 -1.0824
15060TIP3    H266596   0.489   4.557  16.213 -0.5139  0.6224  1.9530
15061TIP3   OH266597   1.742   5.488  13.470  0.3121 -0.6126  0.9215
15061TIP3    H166598   1.818   5.432  13.477  1.6668  0.7236 -1.6253
15061TIP3    H266599   1.671   5.430  13.442  1.2403 -1.3618  0.0480
15062TIP3   OH266600   4.037   5.455   4.927  0.3982  0.0219  0.4936
15062TIP3    H166601   4.101   5.456   4.998  0.9142 -0.9250  0.0712
15062TIP3    H266602   4.090   5.434   4.849 -0.4991 -1.3850  0.2286
15063TIP3   OH266603   1.871   5.184  12.257  0.3286 -0.2728  0.1093
15063TIP3    H166604   1.866   5.153  12.167  0.6649  0.7726 -0.2801
15063TIP3    H266605   1.952   5.145  12.292  0.0099 -0.9744  0.0945
15064TIP3   OH266606   5.230   2.483   1.536 -0.9400 -0.1743 -0.0505
15064TIP3    H166607   5.198   2.403   1.493  2.3970 -1.6344 -0.1136
15064TIP3    H266608   5.306   2.509   1.485 -0.2878  1.4184  1.6153
15065TIP3   OH266609   3.123   0.428  17.264 -0.2878  0.3992 -0.3333
15065TIP3    H166610   3.149   0.489  17.195 -1.0752  1.1869  0.0380
15065TIP3    H266611   3.064   0.366  17.221 -1.0548  1.0954 -0.3176
15066TIP3   OH266612   2.455   2.437  15.914  0.2131  0.3962  0.2942
15066TIP3    H166613   2.538   2.464  15.874  0.1487  0.8249  0.4508
15066TIP3    H266614   2.433   2.354  15.871 -0.0082  0.9966 -0.7621
15067TIP3   OH266615   4.298   4.240   6.190 -0.0916 -0.4243  0.4877
15067TIP3    H166616   4.369   4.176   6.195 -0.0565 -0.3977  0.3346
15067TIP3    H266617   4.339   4.324   6.211  0.3122 -0.1201 -1.3368
15068TIP3   OH266618   5.112   0.641   1.539  0.0009 -0.4887 -0.3463
15068TIP3    H166619   5.111   0.736   1.550 -0.0750 -0.5197 -0.0873
15068TIP3    H266620   5.028   0.621   1.498 -0.3523 -0.5364  0.3851
15069TIP3   OH266621   0.500   1.535  11.164  0.3836 -0.0684  0.4864
15069TIP3    H166622   0.441   1.466  11.134  0.3337 -0.1302  0.7208
15069TIP3    H266623   0.587   1.496  11.159  0.1837 -1.0648  2.9800
15070TIP3   OH266624   3.116   3.209  14.114 -0.1308  0.2766 -0.3607
15070TIP3    H166625   3.162   3.214  14.198 -1.7012 -1.4126  0.6731
15070TIP3    H266626   3.086   3.299  14.098 -1.0765  0.3595  1.6477
15071TIP3   OH266627   1.124   0.231  13.897  0.4802  0.0384 -0.3516
15071TIP3    H166628   1.155   0.276  13.819 -1.4857  0.2361 -1.0831
15071TIP3    H266629   1.195   0.172  13.922  1.6307  0.8844 -1.5381
15072TIP3   OH266630   0.145   2.841  14.195 -0.1267 -0.0647  0.8817
15072TIP3    H166631   0.129   2.887  14.113  2.0067 -0.9953 -0.1507
15072TIP3    H266632   0.059   2.811  14.224 -1.0243  1.0194 -0.5652
15073TIP3   OH266633   6.038   5.671   5.989 -0.2546  0.0076  0.8341
15073TIP3    H166634   6.039   5.735   6.060 -0.6076  1.4928 -0.4617
15073TIP3    H266635   6.129   5.667   5.958 -0.4086  0.6089  0.2925
15074TIP3   OH266636   6.731   3.002   1.723 -0.3579  0.3477  0.2139
15074TIP3    H166637   6.711   2.967   1.810 -0.2166  1.1831  0.5900
15074TIP3    H266638   6.704   2.932   1.663  1.1084 -0.9629  0.9923
15075TIP3   OH266639   1.541   0.221   1.176 -0.4955 -0.5142 -0.2953
15075TIP3    H166640   1.579   0.133   1.181 -1.1900 -0.8019  0.1625
15075TIP3    H266641   1.607   0.273   1.131 -0.3340 -1.4151 -1.1287
15076TIP3   OH266642   1.943   2.242  14.602  0.2596 -0.0252 -0.3404
15076TIP3    H166643   1.866   2.249  14.546  0.6521  0.9482 -0.7835
15076TIP3    H266644   1.987   2.327  14.593  0.8986 -0.2345  0.6147
15077TIP3   OH266645   5.618   6.197  15.260 -0.2059 -0.1533 -0.3632
15077TIP3    H166646   5.587   6.140  15.190 -0.7761 -1.5882  1.0026
15077TIP3    H266647   5.702   6.230  15.229 -0.5957 -0.4784 -1.8510
15078TIP3   OH266648   0.211   1.244  15.140 -0.1412  0.1521 -0.0069
15078TIP3    H166649   0.255   1.246  15.055  0.2376  0.8408  0.1945
15078TIP3    H266650   0.238   1.162  15.179 -1.1466 -0.6790 -0.9717
15079TIP3   OH266651   1.486   0.158   5.453 -0.0515 -0.2521 -0.0603
15079TIP3    H166652   1.431   0.198   5.519 -1.1568 -1.7071 -0.0401
15079TIP3    H266653   1.480   0.216   5.377 -2.7076 -0.9877 -0.5143
15080TIP3   OH266654   6.392   4.603  10.849  0.5410  0.3566 -0.3686
15080TIP3    H166655   6.379   4.509  10.855 -0.6602  0.3435 -2.4672
15080TIP3    H266656   6.486   4.615  10.862  0.4936 -0.9227  1.5422
15081TIP3   OH266657   3.763   1.699  11.628  0.4587 -0.2538  0.8506
15081TIP3    H166658   3.772   1.620  11.682 -0.9565 -1.2781 -0.3246
15081TIP3    H266659   3.846   1.705  11.580  0.2850 -1.5218  0.3555
15082TIP3   OH266660   2.474   3.015  15.996  0.3247 -0.0393 -0.1063
15082TIP3    H166661   2.389   3.058  15.995  0.3848  0.0783 -0.4462
15082TIP3    H266662   2.533   3.078  15.954  0.3958 -0.4938 -0.6889
15083TIP3   OH266663   1.831   5.620  15.725 -0.2123 -0.9416 -0.2447
15083TIP3    H166664   1.761   5.554  15.721 -0.4969 -0.8640  1.9540
15083TIP3    H266665   1.787   5.699  15.756  0.2683  0.1303 -2.1217
15084TIP3   OH266666   0.063   2.009  15.347 -0.4413  0.2690  0.2944
15084TIP3    H166667  -0.009   1.985  15.405 -0.6835  1.9673  0.7409
15084TIP3    H266668   0.032   1.985  15.259 -2.0630  1.9656  0.3346
15085TIP3   OH266669   3.867   0.585  11.149 -0.0186  0.1095 -0.1024
15085TIP3    H166670   3.872   0.678  11.127 -1.2157  0.7410  2.0392
15085TIP3    H266671   3.947   0.567  11.197  0.8002 -0.3249 -1.5633
15086TIP3   OH266672   6.398   4.226   1.082 -0.1458  0.2501  0.7093
15086TIP3    H166673   6.451   4.148   1.095  0.4322  0.6769  0.9319
15086TIP3    H266674   6.313   4.204   1.121 -0.4356 -0.7637 -0.4619
15087TIP3   OH266675   5.287   4.444  13.066  0.1191 -0.0917 -0.0317
15087TIP3    H166676   5.208   4.449  13.012  0.5157 -1.2512 -0.7654
15087TIP3    H266677   5.357   4.473  13.008  0.2759  0.7922  0.5736
15088TIP3   OH266678   2.125   3.972   2.119  0.0777  0.1689 -0.1549
15088TIP3    H166679   2.059   3.903   2.123 -0.3404  0.5798  0.1145
15088TIP3    H266680   2.086   4.045   2.167  1.0966  0.1086  0.8021
15089TIP3   OH266681   3.459   2.184   2.381  0.0474 -0.0468  0.5817
15089TIP3    H166682   3.407   2.264   2.381 -0.0367 -0.0853  2.0875
15089TIP3    H266683   3.449   2.150   2.292 -0.7578  1.0615  0.2205
15090TIP3   OH266684   2.206   6.505  16.574 -0.0707  0.2903  0.6030
15090TIP3    H166685   2.256   6.430  16.607  0.4463  0.3516 -0.0159
15090TIP3    H266686   2.207   6.568  16.646  1.0656  0.4302  0.4847
15091TIP3   OH266687   1.177   1.262   0.431  0.0858  0.8019  0.5762
15091TIP3    H166688   1.137   1.192   0.482  0.5353 -0.1308 -0.3334
15091TIP3    H266689   1.186   1.227   0.343  0.9019  1.7691  0.2433
15092TIP3   OH266690   6.663   5.998   2.631  0.0698  0.7193 -0.3509
15092TIP3    H166691   6.572   6.017   2.653  0.5363  1.7386  0.8506
15092TIP3    H266692   6.659   5.957   2.544 -1.6751 -1.0777  0.4994
15093TIP3   OH266693   6.014   5.189   6.624 -0.1343  0.7824 -0.1573
15093TIP3    H166694   5.936   5.221   6.669  0.5753  1.2477  0.7612
15093TIP3    H266695   6.078   5.259   6.633  0.6237  0.1230 -0.2870
15094TIP3   OH266696   4.770   0.431   6.228  0.0052 -0.6577 -0.3188
15094TIP3    H166697   4.855   0.460   6.261 -0.0697  1.2416 -1.6411
15094TIP3    H266698   4.753   0.349   6.275  0.2813  1.3425  3.7199
15095TIP3   OH266699   2.389   4.505  12.845  0.8844 -0.0582 -0.4435
15095TIP3    H166700   2.451   4.441  12.881  1.0594  0.9573  1.1303
15095TIP3    H266701   2.402   4.584  12.897 -1.0878  0.4895 -0.6992
15096TIP3   OH266702   5.738   0.554   3.474 -0.6461  0.4337 -0.3115
15096TIP3    H166703   5.710   0.587   3.388  0.5212  2.2508 -0.0338
15096TIP3    H266704   5.733   0.459   3.465 -1.8436  0.5992 -1.9427
15097TIP3   OH266705   3.845   0.223   6.354 -0.0378  0.6711  0.4446
15097TIP3    H166706   3.901   0.285   6.306  1.2301  0.0598  1.0717
15097TIP3    H266707   3.773   0.277   6.388 -0.1163  1.3919 -0.8072
15098TIP3   OH266708   6.269   4.531  12.059 -0.7242 -0.2747 -0.6420
15098TIP3    H166709   6.329   4.594  12.020  0.9274 -1.0633  0.5282
15098TIP3    H266710   6.240   4.478  11.985  1.2039 -0.8221 -1.0616
15099TIP3   OH266711   1.769   2.741  11.407  0.6250  0.2461  0.1853
15099TIP3    H166712   1.765   2.832  11.437  1.1628 -0.3180  2.1098
15099TIP3    H266713   1.694   2.732  11.349  1.5470  2.3835 -1.5182
15100TIP3   OH266714   4.516   0.990  15.463 -0.1394 -0.6742 -0.4163
15100TIP3    H166715   4.442   1.044  15.489  0.9528  1.0608 -0.7821
15100TIP3    H266716   4.532   0.933  15.539 -0.0070  0.9917  0.8641
15101TIP3   OH266717   0.554   4.748   2.428  0.7441 -0.3773 -0.1162
15101TIP3    H166718   0.637   4.709   2.454 -0.3551 -3.4376 -0.7503
15101TIP3    H266719   0.488   4.701   2.479 -0.6301  2.9528  1.4550
15102TIP3   OH266720   2.847   1.034  11.774  0.0680 -0.3055  0.7441
15102TIP3    H166721   2.766   1.076  11.805  0.3352  0.2032  0.7730
15102TIP3    H266722   2.895   1.014  11.854 -0.6018 -1.8239  0.8018
15103TIP3   OH266723   5.177   5.191   6.911 -0.0442  0.3098  0.1362
15103TIP3    H166724   5.263   5.154   6.891 -0.3935 -0.5916  0.2653
15103TIP3    H266725   5.138   5.129   6.974 -1.1090  0.2798 -0.5332
15104TIP3   OH266726   4.536   6.685  14.823 -0.5084 -0.6960 -0.3315
15104TIP3    H166727   4.559   6.684  14.915  0.7380 -0.2491 -0.6206
15104TIP3    H266728   4.517   6.593  14.802  3.8593 -1.7357 -0.7005
15105TIP3   OH266729   2.130   4.513  16.214 -0.5620  0.2037  0.3418
15105TIP3    H166730   2.221   4.481  16.211 -1.1177 -1.5307  0.8205
15105TIP3    H266731   2.139   4.607  16.227  1.1818  0.1393 -0.0775
15106TIP3   OH266732   1.388   3.972  17.283 -0.1543  0.7416  0.3022
15106TIP3    H166733   1.418   3.927  17.362 -1.2738 -0.1792  0.2360
15106TIP3    H266734   1.345   4.052  17.317 -0.2688  0.5569  0.5995
15107TIP3   OH266735   3.009   6.665   1.383  0.1825  0.2676  0.1142
15107TIP3    H166736   2.992   6.589   1.438  1.2324  0.3956  0.6415
15107TIP3    H266737   3.074   6.716   1.432  2.3256 -0.3640 -1.8705
15108TIP3   OH266738   0.019   2.984   4.458 -0.2211 -0.2777  0.4114
15108TIP3    H166739   0.069   3.052   4.412 -3.0814  2.5324  1.0581
15108TIP3    H266740   0.051   2.987   4.548  2.7462 -3.1079 -0.4023
15109TIP3   OH266741   5.164   1.974  12.889 -0.1110 -0.2412  0.3735
15109TIP3    H166742   5.178   2.049  12.948  0.8364 -2.2560  2.8913
15109TIP3    H266743   5.171   2.011  12.801  4.1174  2.0431  1.4179
15110TIP3   OH266744   4.599   5.883  14.320 -0.0604 -0.2799  0.5529
15110TIP3    H166745   4.564   5.833  14.247 -1.3774  1.5964 -0.1831
15110TIP3    H266746   4.522   5.906  14.372  0.5926  0.3802  1.2546
15111TIP3   OH266747   2.223   6.343   3.324 -0.1855 -0.3781  0.3466
15111TIP3    H166748   2.312   6.322   3.296 -0.8655 -1.9215 -0.7964
15111TIP3    H266749   2.227   6.340   3.420  1.1230  0.3016  0.3477
15112TIP3   OH266750   4.599   0.099  15.731  0.2027 -0.5321 -0.2334
15112TIP3    H166751   4.682   0.052  15.729  1.4723  1.4473  1.5839
15112TIP3    H266752   4.606   0.157  15.807 -1.2426  2.5567 -2.2621
15113TIP3   OH266753   0.886   4.033   4.159 -0.3298 -0.2273  0.5299
15113TIP3    H166754   0.841   4.071   4.084  1.1801  4.2216  1.5548
15113TIP3    H266755   0.817   4.015   4.223 -1.3373 -1.3305 -0.8198
15114TIP3   OH266756   1.050   2.211   2.185  0.3285  0.4495 -0.3070
15114TIP3    H166757   1.099   2.256   2.254 -1.6753  1.4552  0.5243
15114TIP3    H266758   1.041   2.121   2.216  0.6062  0.5598  0.0953
15115TIP3   OH266759   6.313   0.376   2.395 -0.4983 -0.0230 -0.0224
15115TIP3    H166760   6.401   0.395   2.426 -0.3381  1.1114 -1.0888
15115TIP3    H266761   6.282   0.305   2.452  1.1779 -0.6166  0.1972
15116TIP3   OH266762   5.849   5.367   3.901 -0.3209  0.1835 -0.4808
15116TIP3    H166763   5.824   5.430   3.833 -0.6969  0.4788 -0.0758
15116TIP3    H266764   5.778   5.302   3.900 -3.1864  2.8574  3.0507
15117TIP3   OH266765   3.695   1.285   1.021  0.2358  0.3197  0.5234
15117TIP3    H166766   3.663   1.199   0.994 -1.1294  0.6991  0.8696
15117TIP3    H266767   3.777   1.296   0.974 -0.0030 -0.8128 -0.1818
15118TIP3   OH266768   2.720   4.997  12.262  0.9384  0.5674 -0.3319
15118TIP3    H166769   2.782   5.021  12.194  2.2546 -0.9075  0.2969
15118TIP3    H266770   2.703   4.904  12.248 -0.8546  0.8482 -0.2508
15119TIP3   OH266771   6.488   2.802  11.286 -0.1660 -0.2297  0.0807
15119TIP3    H166772   6.518   2.727  11.338  1.5598  0.0360 -0.4776
15119TIP3    H266773   6.568   2.844  11.256 -1.0473  2.6196  1.4107
15120TIP3   OH266774   4.410   6.012  16.869  0.3235  0.3761  0.4012
15120TIP3    H166775   4.487   5.982  16.916 -0.1157 -0.6125  0.5176
15120TIP3    H266776   4.409   5.959  16.789  0.2551  1.0015 -0.0112
15121TIP3   OH266777   1.076   5.154   4.421 -0.2543  0.1659  0.6165
15121TIP3    H166778   1.049   5.237   4.461 -1.8246 -0.6413  1.3242
15121TIP3    H266779   1.065   5.090   4.491 -1.5164 -1.0269 -0.6189
15122TIP3   OH266780   1.058   5.545  13.169 -0.6702  0.2581  0.2771
15122TIP3    H166781   1.117   5.470  13.179 -0.6277  0.2236 -0.1998
15122TIP3    H266782   1.083   5.584  13.085  0.8588  2.1612  1.5233
15123TIP3   OH266783   2.973   6.079   1.392  0.3096  0.8138  0.1172
15123TIP3    H166784   2.901   6.069   1.330  0.8544  0.2006 -0.4335
15123TIP3    H266785   3.034   6.139   1.349 -0.3443  2.1869  1.0339
15124TIP3   OH266786   2.983   4.540   1.073  0.2796 -0.0068 -0.3231
15124TIP3    H166787   2.899   4.503   1.049  1.1121 -1.5179 -1.0439
15124TIP3    H266788   2.982   4.628   1.036 -0.4166 -0.5284 -1.5995
15125TIP3   OH266789   5.663   4.388  16.651 -0.2316 -0.2467 -0.3067
15125TIP3    H166790   5.605   4.440  16.595  0.1510  1.6655  1.0220
15125TIP3    H266791   5.623   4.391  16.738  0.6811 -0.8107  0.1488
15126TIP3   OH266792   0.286   1.844  14.998 -0.0580 -0.0382 -0.1044
15126TIP3    H166793   0.212   1.876  15.049 -0.4205 -0.2257 -0.5094
15126TIP3    H266794   0.360   1.899  15.025  0.1021 -1.0615  1.7008
15127TIP3   OH266795   6.224   6.392  15.576  0.8541 -0.3659 -0.2623
15127TIP3    H166796   6.140   6.373  15.534  1.4564 -0.9758 -1.2375
15127TIP3    H266797   6.202   6.405  15.668 -0.2364 -1.1045 -0.3888
15128TIP3   OH266798   6.432   1.656  11.482 -0.1518 -0.0148 -0.4510
15128TIP3    H166799   6.475   1.735  11.513 -0.8610  0.3392 -0.3505
15128TIP3    H266800   6.450   1.654  11.388 -2.2718  1.6828 -0.9677
15129TIP3   OH266801   5.259   2.243   3.827  0.9024 -0.1576 -0.2984
15129TIP3    H166802   5.344   2.266   3.864 -0.2152 -0.8709  3.1317
15129TIP3    H266803   5.203   2.318   3.847  0.2147 -0.6094 -0.4840
15130TIP3   OH266804   0.926   5.682  14.572 -0.4382 -0.2815  0.3446
15130TIP3    H166805   0.992   5.613  14.561  0.3628  0.4065  0.7068
15130TIP3    H266806   0.931   5.705  14.665 -2.4013 -1.3800  0.7838
15131TIP3   OH266807   6.600   2.170   0.222  0.0068 -0.3773 -0.3031
15131TIP3    H166808   6.559   2.256   0.233  0.5923 -0.1370  0.1160
15131TIP3    H266809   6.684   2.189   0.180  0.2881 -0.7048  0.1053
15132TIP3   OH266810   3.123   3.142   0.722  0.1983 -0.3172 -0.4635
15132TIP3    H166811   3.029   3.136   0.706 -0.0891  0.3705  0.8290
15132TIP3    H266812   3.135   3.105   0.810  0.8785  1.1861  0.1075
15133TIP3   OH266813   0.112   5.904   0.227 -0.1067 -0.7509 -0.1695
15133TIP3    H166814   0.027   5.915   0.270  0.1793 -1.0893  0.4937
15133TIP3    H266815   0.108   5.817   0.187 -0.4519 -0.3533 -1.0357
15134TIP3   OH266816   3.036   2.017  14.642  0.0238 -0.1214 -0.0651
15134TIP3    H166817   3.003   2.006  14.731 -2.5510 -1.1618 -1.0447
15134TIP3    H266818   2.974   2.078  14.601  1.9736  1.4941 -0.8102
15135TIP3   OH266819   6.498   1.529   4.691  0.0506  0.4439  0.0541
15135TIP3    H166820   6.577   1.572   4.722  0.2660  0.0952  0.0037
15135TIP3    H266821   6.448   1.598   4.648  0.7681  0.4854 -0.7631
15136TIP3   OH266822   2.920   1.885   6.132  0.4194 -0.0612 -0.3130
15136TIP3    H166823   2.961   1.896   6.046  0.6424  1.5137 -0.0406
15136TIP3    H266824   2.972   1.941   6.190 -0.4700 -0.1549  0.5997
15137TIP3   OH266825   0.165   3.589   0.991 -0.7110 -0.4458  0.3027
15137TIP3    H166826   0.234   3.538   1.032  1.1768  1.5110 -0.2544
15137TIP3    H266827   0.159   3.669   1.044 -1.9345 -0.1730 -0.1959
15138TIP3   OH266828   2.401   6.739   3.130  0.4449  0.5364  0.1489
15138TIP3    H166829   2.334   6.807   3.119  2.0821  2.0149 -1.4723
15138TIP3    H266830   2.423   6.742   3.223  0.1065  1.9008  0.2181
15139TIP3   OH266831   5.445   4.375  11.717 -0.1097 -0.1668  0.2635
15139TIP3    H166832   5.406   4.428  11.648 -0.1131 -0.2712  0.1857
15139TIP3    H266833   5.475   4.438  11.782  0.2162 -0.0489  0.0004
15140TIP3   OH266834   3.386   1.630   3.208  0.5554  0.1013 -0.6007
15140TIP3    H166835   3.306   1.666   3.168 -0.5106 -0.7668  0.6767
15140TIP3    H266836   3.423   1.703   3.257 -0.5156  0.0414  0.3519
15141TIP3   OH266837   1.322   2.766   3.758 -0.0348 -0.5333 -0.0844
15141TIP3    H166838   1.250   2.750   3.697 -0.4650 -1.5810  0.6782
15141TIP3    H266839   1.329   2.862   3.762  0.3980 -0.4030 -2.2012
15142TIP3   OH266840   0.317   2.648   1.251  0.2241 -0.4889  0.2988
15142TIP3    H166841   0.354   2.642   1.163 -0.1535 -1.8703  0.2033
15142TIP3    H266842   0.223   2.659   1.236  0.1649 -0.6809  0.5165
15143TIP3   OH266843   4.819   3.181   2.201  0.2125 -0.0784  0.7358
15143TIP3    H166844   4.871   3.238   2.258 -0.7676  0.8746  0.7137
15143TIP3    H266845   4.848   3.203   2.113  0.2151 -0.0059  0.7547
15144TIP3   OH266846   2.750   4.779   2.713 -0.4855 -0.0620  0.0970
15144TIP3    H166847   2.711   4.796   2.799  0.1049  0.5339  0.2565
15144TIP3    H266848   2.734   4.686   2.698  1.4192 -0.7721  1.9032
15145TIP3   OH266849   1.535   2.638  14.724  0.2468 -0.2479  0.3393
15145TIP3    H166850   1.497   2.689  14.653 -0.4471 -0.9438  0.1993
15145TIP3    H266851   1.461   2.592  14.764  0.7698 -0.6736  0.8475
15146TIP3   OH266852   6.563   0.372   4.474 -0.4091  0.0780 -0.1965
15146TIP3    H166853   6.639   0.406   4.427  0.4729 -0.4398  0.8216
15146TIP3    H266854   6.537   0.294   4.426  0.1766 -0.1635 -0.1252
15147TIP3   OH266855   2.211   1.935   1.674  0.4962 -0.6460 -0.4045
15147TIP3    H166856   2.231   1.895   1.589  1.7690 -0.3746 -0.2510
15147TIP3    H266857   2.194   2.027   1.653 -1.7553 -1.0617 -0.6684
15148TIP3   OH266858   4.120   3.139   5.095 -0.2238  0.2493  0.5777
15148TIP3    H166859   4.034   3.098   5.086 -0.4507  0.4938  1.5178
15148TIP3    H266860   4.131   3.152   5.189  1.2042 -0.5348  0.5597
15149TIP3   OH266861   5.488   3.362   0.800  0.3374  0.2689  0.1160
15149TIP3    H166862   5.577   3.337   0.825  0.6828 -0.8426 -1.9763
15149TIP3    H266863   5.437   3.281   0.811 -0.5018  0.9485  1.5000
15150TIP3   OH266864   6.764   2.346  12.264 -0.0536 -0.0791 -0.4692
15150TIP3    H166865   6.726   2.286  12.329 -0.5267 -0.2981 -0.9416
15150TIP3    H266866   6.691   2.403  12.239  0.1199 -0.0133 -0.8320
15151TIP3   OH266867   1.022   1.414  13.925 -0.3355 -0.5554 -0.3064
15151TIP3    H166868   0.963   1.341  13.907  0.0595 -1.1224  0.6161
15151TIP3    H266869   0.965   1.491  13.925 -0.9765 -1.0193 -0.0401
15152TIP3   OH266870   6.368   3.139   0.737  0.0163  0.1035 -0.5783
15152TIP3    H166871   6.335   3.103   0.820 -1.5530 -0.6103 -1.4622
15152TIP3    H266872   6.418   3.216   0.763 -2.3592  1.2592  0.9163
15153TIP3   OH266873   1.855   4.672  14.956 -0.0751 -0.0568 -0.2482
15153TIP3    H166874   1.802   4.751  14.957 -0.4862 -0.2866 -1.8135
15153TIP3    H266875   1.861   4.648  14.864 -0.4932 -2.1929  0.2211
15154TIP3   OH266876   2.550   3.929  13.641  0.1211  0.2142 -0.2045
15154TIP3    H166877   2.515   3.990  13.706  0.6762  0.8788 -0.5161
15154TIP3    H266878   2.641   3.957  13.629  0.6087 -1.1055  0.1575
15155TIP3   OH266879   2.219   4.625   3.770  0.0942  0.2974  0.2456
15155TIP3    H166880   2.233   4.641   3.863  0.4105  2.2184 -0.1024
15155TIP3    H266881   2.243   4.707   3.727 -0.2442 -0.4809 -1.5206
15156TIP3   OH266882   5.891   5.786  16.719  0.6220 -0.0856  0.2395
15156TIP3    H166883   5.902   5.775  16.624  0.4009 -0.1856  0.2255
15156TIP3    H266884   5.906   5.699  16.755  1.2869  0.0726  0.3522
15157TIP3   OH266885   4.427   1.251   5.162 -0.5734 -0.4580 -0.2712
15157TIP3    H166886   4.346   1.259   5.111  0.3367  0.4344 -1.6524
15157TIP3    H266887   4.486   1.201   5.106  0.3761  0.3466 -0.0137
15158TIP3   OH266888   1.732   5.114   0.482  0.1612  0.4522 -0.0809
15158TIP3    H166889   1.739   5.125   0.577  1.4475 -0.8158 -0.0059
15158TIP3    H266890   1.735   5.204   0.448 -3.0048  1.1699  1.1673
15159TIP3   OH266891   2.951   5.776   4.546  0.3794 -0.0641 -1.1912
15159TIP3    H166892   2.981   5.685   4.543  1.0007  0.1627 -2.0876
15159TIP3    H266893   2.975   5.806   4.634 -0.6739 -1.0332 -0.5378
15160TIP3   OH266894   3.248   1.807  14.676 -0.4641  0.2097  0.0053
15160TIP3    H166895   3.167   1.856  14.658 -0.7570 -0.4882 -0.6071
15160TIP3    H266896   3.271   1.768  14.592 -0.4944 -1.0918  0.5830
15161TIP3   OH266897   4.971   0.667   1.814 -0.2949 -0.4539  0.4514
15161TIP3    H166898   4.925   0.600   1.762  0.9760 -0.2770 -0.9730
15161TIP3    H266899   4.943   0.750   1.775  1.4834 -0.3529 -0.7380
15162TIP3   OH266900   3.004   0.085  12.010 -0.2008  0.2867 -0.2270
15162TIP3    H166901   2.986   0.070  12.103  0.1774  0.3994 -0.1369
15162TIP3    H266902   3.065   0.015  11.987 -0.6273 -0.0037 -0.4996
15163TIP3   OH266903   3.925   0.394   2.053  0.3000 -0.2162  0.3606
15163TIP3    H166904   3.911   0.380   1.959 -1.7105  2.5357  0.1354
15163TIP3    H266905   3.978   0.473   2.058  0.7498 -0.5695  1.5718
15164TIP3   OH266906   2.039   3.868  15.105  0.0428  0.5013 -0.2281
15164TIP3    H166907   2.051   3.930  15.033 -3.0820 -0.6225 -1.8861
15164TIP3    H266908   1.953   3.888  15.141 -0.3412 -1.7377  0.2665
15165TIP3   OH266909   4.699   5.218  17.234 -0.3812 -0.1086  0.2452
15165TIP3    H166910   4.671   5.168  17.158 -0.6712 -0.4761  0.5886
15165TIP3    H266911   4.634   5.197  17.302  1.7691 -2.5999  1.7050
15166TIP3   OH266912   0.557   3.928   6.352 -0.0096  0.0604 -0.6225
15166TIP3    H166913   0.462   3.927   6.359  0.0019  0.4000 -0.3791
15166TIP3    H266914   0.577   4.003   6.297  0.1357  0.2696 -0.2908
15167TIP3   OH266915   1.521   0.414   4.913 -0.2206 -0.3792 -0.1973
15167TIP3    H166916   1.616   0.405   4.923 -0.2824  0.7615  1.8563
15167TIP3    H266917   1.483   0.357   4.980 -1.0982 -2.1678 -2.0980
15168TIP3   OH266918   3.484   5.817  14.941  0.6265 -0.0685 -0.2531
15168TIP3    H166919   3.482   5.866  14.859 -1.9438  0.7405  0.2209
15168TIP3    H266920   3.575   5.826  14.972  1.1590  1.1992 -2.0489
15169TIP3   OH266921   1.296   3.006   4.042 -0.0723 -0.0850  0.1147
15169TIP3    H166922   1.265   3.019   4.132 -1.2146  0.1392 -0.2943
15169TIP3    H266923   1.287   3.092   4.002  1.1154 -0.0102 -0.0332
15170TIP3   OH266924   5.792   0.341  14.717 -0.0278  0.0591 -0.2189
15170TIP3    H166925   5.724   0.274  14.723 -0.3366  0.2187 -1.6779
15170TIP3    H266926   5.757   0.415  14.767  0.3340 -0.8204  1.4473
15171TIP3   OH266927   4.167   5.791   5.391  0.1032  0.1669 -0.5368
15171TIP3    H166928   4.115   5.820   5.465  1.4732  1.2434  0.0448
15171TIP3    H266929   4.163   5.864   5.329 -2.3601 -1.3292 -2.3351
15172TIP3   OH266930   0.204   1.124  13.016  0.0024  0.9693  0.1253
15172TIP3    H166931   0.225   1.034  13.041  1.5910  0.6682 -1.9520
15172TIP3    H266932   0.169   1.164  13.095  3.4815 -0.1662  2.4552
15173TIP3   OH266933   0.857   1.032  16.813  0.1183  0.8077  0.2542
15173TIP3    H166934   0.858   0.941  16.783  0.4875  1.0632 -0.5484
15173TIP3    H266935   0.770   1.065  16.786 -0.6003  0.2934  1.8452
15174TIP3   OH266936   6.671   4.494   5.509 -0.5794 -0.7190 -0.0242
15174TIP3    H166937   6.605   4.479   5.576  0.5483 -1.5066  0.9510
15174TIP3    H266938   6.671   4.414   5.456  0.8522 -1.5373  1.1345
15175TIP3   OH266939   5.299   1.204   2.128  0.1771  0.2841 -0.0570
15175TIP3    H166940   5.320   1.228   2.219 -0.4858 -1.0050  0.4639
15175TIP3    H266941   5.383   1.203   2.083  0.6590 -0.1463  0.8301
15176TIP3   OH266942   1.095   6.222   1.460  0.2763  0.8111 -0.0467
15176TIP3    H166943   1.020   6.274   1.487 -1.5679 -2.1595  1.0283
15176TIP3    H266944   1.145   6.209   1.541  0.4545  0.5008 -0.2049
15177TIP3   OH266945   4.031   4.940   6.889 -0.0239  0.0331 -0.2169
15177TIP3    H166946   4.126   4.938   6.874  0.1786 -0.2688  0.9744
15177TIP3    H266947   3.994   4.961   6.804  1.1275  0.3299 -0.6709
15178TIP3   OH266948   4.472   4.267  16.294  0.1105  0.1243  0.3135
15178TIP3    H166949   4.538   4.206  16.262  1.0940  2.3300 -2.2817
15178TIP3    H266950   4.388   4.222  16.278  0.7340 -0.2361 -2.5995
15179TIP3   OH266951   5.862   1.344   2.859  0.6166  0.0577  0.5852
15179TIP3    H166952   5.929   1.286   2.823  0.9985 -0.5313  2.1278
15179TIP3    H266953   5.795   1.284   2.893  0.1744  0.5863  0.6607
15180TIP3   OH266954   0.909   0.899   5.496  0.2579 -0.1304  0.1309
15180TIP3    H166955   0.918   0.819   5.546  3.2370  1.1680  1.9465
15180TIP3    H266956   0.958   0.883   5.415 -1.6273 -1.0425 -0.8923
15181TIP3   OH266957   4.141   5.843   0.347 -0.0239  0.3949 -0.6533
15181TIP3    H166958   4.120   5.842   0.441 -0.7936  0.7070 -0.8158
15181TIP3    H266959   4.235   5.823   0.344  0.0073  0.3459  0.1809
15182TIP3   OH266960   4.307   2.759   1.033 -0.4860  0.2816 -0.0828
15182TIP3    H166961   4.256   2.832   0.998 -1.2790  0.3737  1.1946
15182TIP3    H266962   4.251   2.721   1.101 -0.3497 -1.9164 -1.1370
15183TIP3   OH266963   3.626   5.792  11.499 -0.2190  0.0735  0.2853
15183TIP3    H166964   3.664   5.705  11.493  0.4826  0.2772  1.4659
15183TIP3    H266965   3.658   5.827  11.583 -0.4449  1.4803 -0.1814
15184TIP3   OH266966   5.247   5.639  14.330  0.1338 -0.4897 -0.0667
15184TIP3    H166967   5.284   5.646  14.242  2.0697 -0.7250  0.6802
15184TIP3    H266968   5.169   5.584  14.320  1.9952 -3.0730 -1.1866
15185TIP3   OH266969   3.600   2.055  15.522  0.1079  0.3540  0.3414
15185TIP3    H166970   3.577   2.091  15.437  0.2686  1.2465  0.6601
15185TIP3    H266971   3.637   2.129  15.570 -0.9973  0.1339  1.5771
15186TIP3   OH266972   0.475   5.198   2.550 -0.5036  0.6231 -0.4910
15186TIP3    H166973   0.436   5.176   2.635  1.1760 -0.0940  0.1338
15186TIP3    H266974   0.436   5.136   2.489 -1.4324  0.8894 -0.1841
15187TIP3   OH266975   1.557   1.276  16.245  0.0462 -0.9124 -0.0597
15187TIP3    H166976   1.578   1.364  16.214 -2.2126 -1.1287 -2.5211
15187TIP3    H266977   1.495   1.290  16.316  0.3745 -0.5309  0.1579
15188TIP3   OH266978   1.432   6.610   6.149  0.0015  0.9257  0.3925
15188TIP3    H166979   1.518   6.579   6.179 -0.0830  0.5052  0.2063
15188TIP3    H266980   1.440   6.705   6.149  0.6118  0.8874 -0.0224
15189TIP3   OH266981   3.785   4.041  12.234  0.1654  0.0542 -0.4923
15189TIP3    H166982   3.723   4.094  12.283  1.8702  0.3206  1.4901
15189TIP3    H266983   3.867   4.048  12.283  1.4335 -1.3288 -2.2952
15190TIP3   OH266984   5.719   0.171  13.487 -0.1177  0.1273 -0.2712
15190TIP3    H166985   5.781   0.133  13.424  1.4478  1.5067  0.3662
15190TIP3    H266986   5.702   0.100  13.549  3.2047  0.4648  1.2276
15191TIP3   OH266987   1.761   1.468   4.348  0.4149 -0.1143 -0.0846
15191TIP3    H166988   1.704   1.403   4.308  0.9279 -2.2815  2.4020
15191TIP3    H266989   1.847   1.452   4.309 -0.2511  2.3357 -2.9167
15192TIP3   OH266990   2.789   2.871  14.418  0.5638 -0.0095  0.1648
15192TIP3    H166991   2.760   2.859  14.509  0.3032  0.8084  0.2008
15192TIP3    H266992   2.876   2.911  14.425  1.0126 -0.9466  0.0508
15193TIP3   OH266993   0.438   0.062   3.915  0.5444  0.8546  0.4361
15193TIP3    H166994   0.380   0.134   3.889 -0.1983  1.0945  2.5748
15193TIP3    H266995   0.379  -0.003   3.953  0.9377 -1.7923 -2.9693
15194TIP3   OH266996   3.989   1.989  14.605 -0.1709 -0.5659 -0.2889
15194TIP3    H166997   4.029   1.907  14.576  3.0972  1.2010 -1.2838
15194TIP3    H266998   4.015   1.998  14.696  2.3155  0.7947 -1.0562
15195TIP3   OH266999   1.234   2.078   1.039  0.6021  0.1474 -0.2316
15195TIP3    H167000   1.151   2.078   0.990  0.6424  1.3823 -0.3253
15195TIP3    H267001   1.253   1.985   1.052 -1.7110 -0.1909  1.3444
15196TIP3   OH267002   0.201   6.463   3.773 -0.1928 -0.2687 -0.4878
15196TIP3    H167003   0.164   6.411   3.701 -2.1117 -1.8789  1.5111
15196TIP3    H267004   0.296   6.448   3.766 -0.4456 -1.5795 -1.7930
15197TIP3   OH267005   2.987   6.236   1.650 -0.1255  0.4848  0.4267
15197TIP3    H167006   3.047   6.183   1.702  0.3195  1.1178  0.5661
15197TIP3    H267007   2.975   6.187   1.569 -0.2044 -0.1263  0.8044
15198TIP3   OH267008   3.659   5.369  16.036 -0.3572 -0.2399  0.1282
15198TIP3    H167009   3.709   5.439  16.077 -0.3865  0.9073 -1.7122
15198TIP3    H267010   3.713   5.291  16.048  0.0444  0.2155  1.5085
15199TIP3   OH267011   4.634   0.794   4.257  0.7123 -0.0470 -0.2311
15199TIP3    H167012   4.712   0.748   4.288  2.0948 -0.5940 -4.0438
15199TIP3    H267013   4.652   0.887   4.271  2.2502 -0.1481 -1.3939
15200TIP3   OH267014   0.685   4.359  12.288  0.1515 -0.8053 -0.1135
15200TIP3    H167015   0.732   4.433  12.328  0.2627 -0.8767 -0.1098
15200TIP3    H267016   0.609   4.399  12.246  1.0022 -0.4880 -1.4202
15201TIP3   OH267017   4.624   1.437  13.216 -0.1630  0.5220  0.2852
15201TIP3    H167018   4.629   1.496  13.140 -0.6403 -1.1355 -1.1044
15201TIP3    H267019   4.545   1.386  13.202  0.3736 -0.6461  1.2745
15202TIP3   OH267020   6.752   2.653  16.385 -0.4191  0.3712 -0.2718
15202TIP3    H167021   6.796   2.606  16.456  0.5949  1.5505 -0.0883
15202TIP3    H267022   6.810   2.727  16.365 -0.5032 -0.1267 -2.5858
15203TIP3   OH267023   1.084   1.292  16.992  0.6182 -0.3059 -0.7050
15203TIP3    H167024   1.102   1.312  16.900  2.6416  1.3031 -0.0398
15203TIP3    H267025   1.020   1.357  17.018  1.9834  0.9459 -0.3532
15204TIP3   OH267026   0.173   3.717   5.865  0.3760  0.0665 -0.3886
15204TIP3    H167027   0.081   3.741   5.853  0.2485 -0.6486 -0.9550
15204TIP3    H267028   0.185   3.711   5.960 -0.1464  0.2291 -0.3125
15205TIP3   OH267029   4.758   1.823   1.075  0.7107 -0.9768 -0.2125
15205TIP3    H167030   4.745   1.886   1.145  0.3810  1.8819 -2.6328
15205TIP3    H267031   4.700   1.749   1.097 -2.0388  1.3107  0.8250
15206TIP3   OH267032   0.096   2.905   5.352  0.3211 -1.0189 -0.0620
15206TIP3    H167033   0.026   2.926   5.415 -0.1975 -1.4658 -0.4764
15206TIP3    H267034   0.154   2.981   5.355 -0.8302 -0.0801 -0.5869
15207TIP3   OH267035   5.859   2.454  16.723  0.4783  0.4280  0.3598
15207TIP3    H167036   5.938   2.411  16.689  0.5871  0.7824  0.1652
15207TIP3    H267037   5.809   2.383  16.764  0.7025  0.1311  0.1208
15208TIP3   OH267038   4.268   4.602  11.378  0.1634 -0.3749 -0.1317
15208TIP3    H167039   4.176   4.590  11.356 -0.1495 -1.6227  1.6255
15208TIP3    H267040   4.316   4.575  11.300 -0.9392  0.2705 -1.0628
15209TIP3   OH267041   6.754   3.566  14.469  0.2138  0.4357  0.1930
15209TIP3    H167042   6.692   3.495  14.456 -0.9312  1.5463 -0.6460
15209TIP3    H267043   6.805   3.569  14.388  0.2350  0.5921  0.2117
15210TIP3   OH267044   2.562   2.031  14.962 -0.2197  0.3024  0.2086
15210TIP3    H167045   2.537   2.050  15.052 -2.6825 -0.9078 -0.1287
15210TIP3    H267046   2.555   1.936  14.954  1.7356  0.1930 -0.8251
15211TIP3   OH267047   1.816   0.398   4.819  0.2337 -0.4803 -0.1939
15211TIP3    H167048   1.804   0.410   4.913 -0.3582 -1.7853 -0.0789
15211TIP3    H267049   1.905   0.365   4.810  0.9411  1.3285 -0.2858
15212TIP3   OH267050   0.194   1.593  13.208 -0.6486 -0.0313  0.3134
15212TIP3    H167051   0.139   1.539  13.152 -0.0825 -0.8217  0.5110
15212TIP3    H267052   0.255   1.637  13.148 -1.6192  1.0353  0.0668
15213TIP3   OH267053   2.269   3.994  14.789  0.9622  0.2712  0.2972
15213TIP3    H167054   2.320   3.990  14.869 -0.1144  0.4433  1.0116
15213TIP3    H267055   2.320   3.944  14.725  0.8588 -1.6943  1.6487
15214TIP3   OH267056   2.538   2.109   3.626  0.2037  0.0370 -0.1453
15214TIP3    H167057   2.448   2.079   3.641  0.9941 -2.2332  0.4939
15214TIP3    H267058   2.532   2.204   3.627 -2.3427 -0.0378 -1.1612
15215TIP3   OH267059   0.240   2.241  16.239 -0.0079  0.3301  0.4040
15215TIP3    H167060   0.217   2.334  16.243 -2.0901 -0.1046 -0.0259
15215TIP3    H267061   0.299   2.227  16.313 -2.0140  1.4084  2.3326
15216TIP3   OH267062   6.115   5.378   0.800 -0.3660  0.3989  0.0619
15216TIP3    H167063   6.150   5.385   0.888  0.1950 -0.0568 -0.1197
15216TIP3    H267064   6.112   5.469   0.768  1.4172  0.3904 -0.2115
15217TIP3   OH267065   6.669   5.730  13.857  0.1308 -0.3873  0.3549
15217TIP3    H167066   6.661   5.825  13.858 -0.3070 -0.4208  0.1419
15217TIP3    H267067   6.660   5.704  13.949 -0.8173 -0.3062  0.2966
15218TIP3   OH267068   3.250   2.297  13.261  0.0226  0.6018  0.2431
15218TIP3    H167069   3.202   2.315  13.342 -0.7213 -1.4021  0.3123
15218TIP3    H267070   3.341   2.292  13.289 -0.2477 -0.2990  1.0333
15219TIP3   OH267071   2.081   3.839  14.371 -0.5423  0.6137 -0.1887
15219TIP3    H167072   2.113   3.791  14.447 -1.1654  1.0004  0.3318
15219TIP3    H267073   1.986   3.841  14.382 -0.4772  2.9120  0.4083
15220TIP3   OH267074   3.370   5.640  15.714 -0.1705 -0.2279  0.2128
15220TIP3    H167075   3.441   5.609  15.770 -0.0223  0.1570  0.2406
15220TIP3    H267076   3.405   5.719  15.673 -0.3373 -0.4145 -0.2951
15221TIP3   OH267077   1.050   4.606   2.593  0.4810 -0.2207  0.0032
15221TIP3    H167078   1.080   4.696   2.603 -1.5014  0.4466  0.6051
15221TIP3    H267079   1.117   4.553   2.634  2.2223  0.8525 -1.3098
15222TIP3   OH267080   4.653   4.013   4.182  0.1171  0.1762  0.1061
15222TIP3    H167081   4.591   4.047   4.117 -0.4135  0.6839  0.8556
15222TIP3    H267082   4.625   4.054   4.264  1.7930  0.8710  0.3740
15223TIP3   OH267083   3.061   0.843   2.824  0.0687 -0.2292 -0.1236
15223TIP3    H167084   3.035   0.913   2.884  1.9375  0.1612  0.2896
15223TIP3    H267085   3.009   0.860   2.745 -0.5226  0.7965  0.4591
15224TIP3   OH267086   4.499   2.870  14.976  0.0365  0.3738 -0.1706
15224TIP3    H167087   4.449   2.829  15.046 -1.0590  1.3354 -0.3515
15224TIP3    H267088   4.568   2.919  15.021  0.8122 -0.9003  0.0852
15225TIP3   OH267089   5.534   2.261  11.731 -0.4379 -0.1311 -0.1685
15225TIP3    H167090   5.546   2.185  11.788 -0.2192  0.2416  0.2923
15225TIP3    H267091   5.614   2.264  11.678 -0.4893 -0.2812 -0.2528
15226TIP3   OH267092   2.085   4.268  11.672  0.1902  0.5667 -0.2917
15226TIP3    H167093   2.018   4.328  11.704  0.3589  0.7859 -0.3407
15226TIP3    H267094   2.157   4.277  11.735 -0.0522 -0.0998  0.0850
15227TIP3   OH267095   2.973   0.767  15.597  0.2019 -0.1551 -0.1895
15227TIP3    H167096   3.033   0.827  15.641 -0.1913  1.1466 -1.3395
15227TIP3    H267097   2.935   0.715  15.667  0.7994  0.7233  0.8182
15228TIP3   OH267098   1.811   3.969   3.414  0.2843  0.2902 -0.2507
15228TIP3    H167099   1.855   4.052   3.393  2.0446 -0.3849  0.5910
15228TIP3    H267100   1.769   3.984   3.498 -1.0816  0.9097 -1.0136
15229TIP3   OH267101   3.357   4.310  15.840 -0.0772  0.2613 -0.0734
15229TIP3    H167102   3.264   4.318  15.821  0.1435 -0.2780 -1.5214
15229TIP3    H267103   3.367   4.223  15.878  0.1135 -0.6882 -2.1348
15230TIP3   OH267104   1.929   1.389  12.712  0.0135  0.2631 -0.3507
15230TIP3    H167105   1.994   1.319  12.709 -1.5485 -1.2509 -0.5300
15230TIP3    H267106   1.860   1.356  12.770 -0.9808  1.4360 -0.8164
15231TIP3   OH267107   4.136   3.706   1.488  0.1359  0.0287  0.2455
15231TIP3    H167108   4.173   3.754   1.414  2.7706 -1.1054  0.7295
15231TIP3    H267109   4.179   3.744   1.565 -0.4875 -0.6694  0.9527
15232TIP3   OH267110   6.206   6.743  16.114  0.6799  0.1451  0.1747
15232TIP3    H167111   6.171   6.808  16.054  0.8756  1.6979  1.6723
15232TIP3    H267112   6.280   6.704  16.067  0.2495  0.6461 -0.9346
15233TIP3   OH267113   4.729   0.193   4.172 -0.2276  0.0551 -0.0640
15233TIP3    H167114   4.774   0.111   4.194 -1.1066  0.0228  1.8178
15233TIP3    H267115   4.674   0.170   4.097  1.0403 -0.5349 -0.8399
15234TIP3   OH267116   2.658   3.871   5.891  0.0004  0.2805  0.3753
15234TIP3    H167117   2.719   3.908   5.827 -0.8080 -1.4302 -1.5040
15234TIP3    H267118   2.714   3.839   5.961  1.4310 -1.8003 -1.5722
15235TIP3   OH267119   3.847   4.466   6.060  0.2322  0.4241  0.5786
15235TIP3    H167120   3.914   4.417   6.108  0.2171 -0.4496 -0.2607
15235TIP3    H267121   3.808   4.524   6.125  2.9631  2.2625  0.7757
15236TIP3   OH267122   1.335   2.958   0.750  0.1046 -0.0646 -0.3188
15236TIP3    H167123   1.426   2.930   0.738  0.0896 -0.4322  0.3370
15236TIP3    H267124   1.330   2.980   0.843 -0.0748  1.4630 -0.6747
15237TIP3   OH267125   6.538   3.212   5.043  0.0510  0.3073  0.0725
15237TIP3    H167126   6.557   3.157   4.966 -2.1280 -0.5796  0.1015
15237TIP3    H267127   6.621   3.255   5.062  0.7655  0.3069 -2.5749
15238TIP3   OH267128   4.628   1.859  15.419  1.5464 -0.5931  0.2243
15238TIP3    H167129   4.688   1.825  15.352  0.6004 -1.9253  0.0099
15238TIP3    H267130   4.637   1.799  15.492  0.7692 -0.5784  0.3401
15239TIP3   OH267131   1.329   4.201  13.252  0.1120  0.5623 -0.1548
15239TIP3    H167132   1.377   4.269  13.205  2.0204 -2.2705 -2.6382
15239TIP3    H267133   1.366   4.203  13.341 -0.2553  3.0189 -0.0004
15240TIP3   OH267134   5.811   4.902  10.801 -0.3282 -0.2289  0.7080
15240TIP3    H167135   5.889   4.899  10.856 -0.5365 -1.0152  0.9753
15240TIP3    H267136   5.844   4.909  10.711  0.1852 -3.5188  0.5320
15241TIP3   OH267137   0.971   5.895   4.202  0.0540  0.1820  0.4122
15241TIP3    H167138   0.919   5.827   4.159 -1.0513  1.5187 -0.4718
15241TIP3    H267139   0.906   5.958   4.233  1.0167  0.6000  1.6624
15242TIP3   OH267140   1.468   2.790  15.528  0.0243 -0.3867 -0.2782
15242TIP3    H167141   1.469   2.861  15.463 -1.8955  0.5385  0.6208
15242TIP3    H267142   1.538   2.731  15.500 -0.4859  0.1620 -2.9511
15243TIP3   OH267143   2.520   4.918  12.010 -0.3297 -0.2521 -0.7268
15243TIP3    H167144   2.590   4.973  11.974  0.1591  0.1967  0.8334
15243TIP3    H267145   2.565   4.838  12.038 -0.6593 -0.4911 -0.8804
15244TIP3   OH267146   6.508   4.965  11.859  0.0371 -0.2166  0.6521
15244TIP3    H167147   6.489   5.018  11.781 -0.0175 -0.6796  0.3447
15244TIP3    H267148   6.557   4.890  11.825  0.1598 -0.3367  1.0909
15245TIP3   OH267149   1.735   2.295   1.648  0.3733 -0.8448 -0.4443
15245TIP3    H167150   1.665   2.233   1.626  0.0122 -0.0879 -1.4797
15245TIP3    H267151   1.701   2.380   1.622  1.4122 -0.3790 -0.3301
15246TIP3   OH267152   0.718   2.033  11.550  0.0736 -0.2530 -0.0741
15246TIP3    H167153   0.655   2.048  11.480  1.2640  2.3559 -0.7112
15246TIP3    H267154   0.675   2.066  11.629 -0.8841 -2.3003  0.3351
15247TIP3   OH267155   6.493   1.259   2.122  0.1352  0.1137  0.3433
15247TIP3    H167156   6.469   1.179   2.169  0.0802 -0.4254 -0.5794
15247TIP3    H267157   6.410   1.293   2.089  0.1520  0.5906  0.7730
15248TIP3   OH267158   1.426   5.860  10.825 -0.2992  0.6676 -0.5241
15248TIP3    H167159   1.512   5.900  10.837 -1.1414  2.0938  1.2191
15248TIP3    H267160   1.365   5.933  10.832 -1.6995 -0.4364 -0.9411
15249TIP3   OH267161   6.160   6.275  11.257  0.3919 -0.4624 -0.0198
15249TIP3    H167162   6.106   6.277  11.178  3.5010 -0.0984 -2.3112
15249TIP3    H267163   6.243   6.314  11.231  2.5740 -2.8276  2.6742
15250TIP3   OH267164   1.161   3.125   3.441 -0.4830  0.3757  0.0433
15250TIP3    H167165   1.201   3.063   3.501  1.9216  0.9592 -0.8465
15250TIP3    H267166   1.140   3.202   3.495 -0.0738  0.1964  0.4589
15251TIP3   OH267167   2.408   3.658   4.891  0.4089 -0.6369 -0.2072
15251TIP3    H167168   2.484   3.624   4.939  1.1029 -0.2542 -0.9998
15251TIP3    H267169   2.410   3.753   4.908  1.1540 -0.3683 -1.6074
15252TIP3   OH267170   1.051   2.598  16.124  0.4545 -0.1654  0.0174
15252TIP3    H167171   1.007   2.514  16.108  0.1485 -0.2688  1.2674
15252TIP3    H267172   0.980   2.662  16.123  0.6292  0.0146 -0.5148
15253TIP3   OH267173   3.135   5.416   4.345 -0.5723 -0.3661  0.2172
15253TIP3    H167174   3.139   5.412   4.441  0.0849 -0.9645  0.1761
15253TIP3    H267175   3.142   5.325   4.318  0.8675 -0.0872 -0.4404
15254TIP3   OH267176   4.160   1.157   0.578 -0.2795 -0.1902 -0.1032
15254TIP3    H167177   4.123   1.213   0.645 -1.7392  1.2985 -2.0444
15254TIP3    H267178   4.231   1.208   0.540 -2.3169  1.0258 -2.6375
15255TIP3   OH267179   5.170   5.925  14.329 -0.3666  0.2935 -0.1366
15255TIP3    H167180   5.159   5.834  14.356 -0.8937  0.4530  0.1992
15255TIP3    H267181   5.118   5.975  14.392  0.4627  0.8831  0.1021
15256TIP3   OH267182   6.086   1.327   2.374 -0.1659  0.3621 -0.0608
15256TIP3    H167183   6.129   1.404   2.411  0.7797 -0.4686  0.6442
15256TIP3    H267184   6.070   1.350   2.283  2.0759  0.6184 -0.4491
15257TIP3   OH267185   4.161   4.149   4.529 -0.4286  0.7330 -0.3171
15257TIP3    H167186   4.178   4.236   4.564 -0.1054 -0.0178  1.4896
15257TIP3    H267187   4.184   4.089   4.600 -0.0770 -0.8668 -1.7030
15258TIP3   OH267188   4.177   1.602  13.962  0.8700 -0.0639  0.7454
15258TIP3    H167189   4.210   1.600  14.052  3.0958 -4.7712  0.1748
15258TIP3    H267190   4.256   1.610  13.908 -0.1245 -0.1763 -0.7794
15259TIP3   OH267191   5.417   5.234   0.979  0.1130  0.3220 -0.5117
15259TIP3    H167192   5.417   5.145   0.943 -1.4940 -0.4479  1.2454
15259TIP3    H267193   5.346   5.235   1.042  0.4964  2.6984 -0.0050
15260TIP3   OH267194   0.096   6.597   1.809  0.3994  0.3664 -0.2407
15260TIP3    H167195   0.043   6.551   1.743 -0.3101 -3.0780  2.4316
15260TIP3    H267196   0.185   6.565   1.795  0.6882  1.3917 -0.8676
15261TIP3   OH267197   4.998   4.765  13.171  0.6779 -0.4869 -0.5284
15261TIP3    H167198   4.916   4.715  13.181  0.8590 -0.7628 -0.3994
15261TIP3    H267199   4.970   4.856  13.163  0.3472 -0.5982 -0.6640
15262TIP3   OH267200   2.985   0.852  17.288 -0.2295  0.1733  0.8219
15262TIP3    H167201   2.904   0.808  17.261 -0.6882  0.6793  1.3288
15262TIP3    H267202   2.969   0.944  17.269  1.1189  0.0544 -1.1978
15263TIP3   OH267203   4.805   5.652  13.410 -0.4179 -0.0987  0.0139
15263TIP3    H167204   4.809   5.747  13.409  0.1291 -0.0767 -2.4052
15263TIP3    H267205   4.717   5.631  13.440 -0.6502  1.1764  0.2622
15264TIP3   OH267206   6.425   1.885   5.949  0.0121  0.1565  0.4168
15264TIP3    H167207   6.477   1.953   5.991  1.4806 -0.4927 -0.2966
15264TIP3    H267208   6.365   1.855   6.017 -1.1848  2.6211  0.5608
15265TIP3   OH267209   6.694   1.542   4.106  0.4499 -0.5056  0.1855
15265TIP3    H167210   6.743   1.471   4.064 -0.1096 -0.6976 -0.1576
15265TIP3    H267211   6.744   1.621   4.085  1.1102 -0.7973  0.6233
15266TIP3   OH267212   1.456   6.436   4.529  0.1775 -0.2648 -0.2502
15266TIP3    H167213   1.469   6.459   4.437 -0.1064  1.5905  0.1445
15266TIP3    H267214   1.377   6.382   4.529 -0.0488  0.0554 -1.0529
15267TIP3   OH267215   0.607   5.868  15.651 -1.1874 -0.2497 -0.3959
15267TIP3    H167216   0.572   5.935  15.710 -0.3584  2.5168 -2.7723
15267TIP3    H267217   0.702   5.876  15.660 -0.9094  1.7828 -3.3675
15268TIP3   OH267218   2.954   5.197  14.034 -0.3265  0.6779 -0.4015
15268TIP3    H167219   2.923   5.250  13.960 -0.9597 -0.5190 -1.0149
15268TIP3    H267220   2.909   5.233  14.110 -0.4454  1.2719 -0.7473
15269TIP3   OH267221   1.278   4.607  13.580  0.1954 -0.0846  0.0922
15269TIP3    H167222   1.281   4.541  13.649  1.2884  0.4108  0.5412
15269TIP3    H267223   1.214   4.671  13.611 -0.4195 -0.6110 -0.0645
15270TIP3   OH267224   2.368   4.233  14.678 -0.1351  0.1848  0.1047
15270TIP3    H167225   2.327   4.154  14.714  0.4946 -1.1739 -1.9840
15270TIP3    H267226   2.455   4.236  14.719 -0.4493  0.2575  0.7803
15271TIP3   OH267227   4.655   4.879  11.684 -0.0159 -0.5216 -0.1528
15271TIP3    H167228   4.730   4.937  11.682  0.4252 -1.0820 -1.8830
15271TIP3    H267229   4.587   4.925  11.634  0.0677 -1.1233 -0.8374
15272TIP3   OH267230   2.887   5.104   6.000 -0.3925  0.0839 -0.7112
15272TIP3    H167231   2.884   5.017   5.959  1.6681  0.4465 -1.7918
15272TIP3    H267232   2.818   5.154   5.956 -1.7957 -1.0472  0.1253
15273TIP3   OH267233   0.547   0.350   2.433  0.1082  0.3193  0.3484
15273TIP3    H167234   0.487   0.278   2.413  1.6468 -1.0945  0.5504
15273TIP3    H267235   0.491   0.426   2.444 -1.5827 -0.8174 -0.0041
15274TIP3   OH267236   2.497   4.665  14.035  0.2187  0.3715  0.1861
15274TIP3    H167237   2.569   4.625  13.985  1.4953  1.3467  1.1523
15274TIP3    H267238   2.432   4.596  14.044  2.0820 -1.3506  1.2870
15275TIP3   OH267239   5.849   5.593   5.205 -0.0260  0.3981  0.0636
15275TIP3    H167240   5.839   5.670   5.149  0.7329 -0.6155 -1.5449
15275TIP3    H267241   5.943   5.588   5.224 -0.0027 -0.3562 -0.2054
15276TIP3   OH267242   6.151   2.360  14.113 -0.0824  0.4553 -0.3554
15276TIP3    H167243   6.237   2.401  14.103  0.0230  0.0754 -1.0322
15276TIP3    H267244   6.169   2.267  14.124 -0.2623  0.6534  2.2267
15277TIP3   OH267245   5.776   2.375   0.524 -0.9424 -0.4893 -0.2737
15277TIP3    H167246   5.756   2.460   0.485 -0.5178 -0.2494  0.0196
15277TIP3    H267247   5.823   2.397   0.605 -1.6167 -0.9840  0.2554
15278TIP3   OH267248   1.431   5.785  16.784 -0.1942  0.1464 -0.0859
15278TIP3    H167249   1.442   5.734  16.704  2.1049  1.1000 -0.4274
15278TIP3    H267250   1.336   5.797  16.792 -0.5636 -1.3314 -1.7612
15279TIP3   OH267251   5.047   4.926  15.859 -0.2950 -0.0408 -0.3183
15279TIP3    H167252   4.976   4.861  15.861  0.5131 -0.9712 -0.8621
15279TIP3    H267253   5.052   4.953  15.767  1.3437 -1.5091 -0.7359
15280TIP3   OH267254   6.690   3.985   6.232  0.3801  0.5461  0.6561
15280TIP3    H167255   6.723   3.955   6.147  1.3455  1.2876  0.7527
15280TIP3    H267256   6.719   3.918   6.294 -0.3578 -0.0154  0.4058
15281TIP3   OH267257   0.448   4.417  13.562  0.2600 -0.5687 -0.6139
15281TIP3    H167258   0.481   4.506  13.580  1.8270 -1.6366  2.6123
15281TIP3    H267259   0.367   4.412  13.613  1.6994 -1.7939  1.7446
15282TIP3   OH267260   5.536   1.664   3.041  0.2809  0.0436 -0.6383
15282TIP3    H167261   5.449   1.701   3.060 -0.2691 -0.3180 -2.3352
15282TIP3    H267262   5.541   1.586   3.096  0.5827  1.3705  1.3581
15283TIP3   OH267263   2.809   0.744   5.214 -0.7829  0.1832  0.4110
15283TIP3    H167264   2.900   0.714   5.223 -1.5105 -2.1082  0.7325
15283TIP3    H267265   2.788   0.783   5.299 -0.2088  0.4516  0.4361
15284TIP3   OH267266   0.608   2.000  16.687  0.2512  0.1830 -0.5578
15284TIP3    H167267   0.659   2.077  16.661  2.0588 -0.7845  0.0127
15284TIP3    H267268   0.673   1.933  16.706 -1.2602 -1.2108 -0.1051
15285TIP3   OH267269   5.357   1.694  13.713 -0.3877 -0.2195 -0.3278
15285TIP3    H167270   5.404   1.762  13.761 -0.3954 -0.5641  0.1743
15285TIP3    H267271   5.358   1.618  13.771 -2.1070 -0.0526 -0.0105
15286TIP3   OH267272   4.569   0.959   1.113 -0.3504 -0.0004 -0.2542
15286TIP3    H167273   4.567   1.050   1.140 -2.8578 -0.2986  0.8534
15286TIP3    H267274   4.627   0.916   1.176  0.4508  0.7250 -0.4886
15287TIP3   OH267275   1.752   2.881   0.150  0.3350  0.2392 -0.0250
15287TIP3    H167276   1.840   2.919   0.157  0.5876 -0.5934  2.8211
15287TIP3    H267277   1.694   2.949   0.184  0.2523 -0.2118  0.7666
15288TIP3   OH267278   0.536   3.659   6.417  0.0533  0.1164  0.7479
15288TIP3    H167279   0.441   3.649   6.408 -0.2371  1.3720  2.0621
15288TIP3    H267280   0.552   3.751   6.398  1.1220 -0.2391 -0.1611
15289TIP3   OH267281   3.852   3.987   0.617 -0.1795  0.2607 -0.1796
15289TIP3    H167282   3.781   4.026   0.565  0.6110  0.7260 -0.9291
15289TIP3    H267283   3.867   4.051   0.687  0.2639  0.7140 -0.6807
15290TIP3   OH267284   3.093   2.664   3.714 -0.4125 -0.0316 -0.6367
15290TIP3    H167285   3.026   2.634   3.775  1.0003 -1.0503  0.4893
15290TIP3    H267286   3.078   2.613   3.634 -0.1409 -1.2911  0.0900
15291TIP3   OH267287   1.142   3.650   4.911 -0.6525 -0.6394 -0.3855
15291TIP3    H167288   1.234   3.622   4.908 -0.0588  1.2200 -1.4786
15291TIP3    H267289   1.095   3.575   4.948  1.3974 -1.3753  0.8811
15292TIP3   OH267290   5.087   0.069   1.906 -0.0107  0.3531  0.3711
15292TIP3    H167291   5.018   0.136   1.911 -0.1115  0.1610  2.6424
15292TIP3    H267292   5.168   0.119   1.901 -0.1830  0.6105  0.0820
15293TIP3   OH267293   0.026   2.320   5.085 -0.2634 -0.0361 -0.0793
15293TIP3    H167294   0.086   2.320   5.160  0.7644  0.3596 -0.8869
15293TIP3    H267295   0.040   2.404   5.043 -0.4002 -0.4903 -1.0567
15294TIP3   OH267296   1.128   0.294  15.727 -0.0626  0.0946  0.1278
15294TIP3    H167297   1.148   0.311  15.635  0.8349  0.6560  0.4208
15294TIP3    H267298   1.200   0.335  15.775 -0.1861 -0.7475  1.0509
15295TIP3   OH267299   2.946   4.419   0.661  0.0958 -0.0642 -0.1530
15295TIP3    H167300   2.967   4.506   0.629 -0.4315  0.2902  0.4562
15295TIP3    H267301   2.957   4.362   0.584 -0.5702  0.6805 -0.8183
15296TIP3   OH267302   4.904   3.905  16.194 -0.0132 -0.0241 -0.0531
15296TIP3    H167303   4.872   3.899  16.104 -0.5161 -3.6066  0.2109
15296TIP3    H267304   4.999   3.911  16.186  0.1134 -2.1629 -0.9314
15297TIP3   OH267305   6.020   3.115  15.934 -0.3299 -0.2520 -0.1088
15297TIP3    H167306   6.027   3.197  15.982 -0.6261 -0.4659  0.3043
15297TIP3    H267307   6.074   3.128  15.856 -0.6290  0.4430 -0.2046
15298TIP3   OH267308   1.632   3.566  10.396  0.0947  0.3520  0.0052
15298TIP3    H167309   1.715   3.604  10.424 -0.0266  1.6947 -1.3047
15298TIP3    H267310   1.566   3.615  10.446 -0.0155  1.2287 -0.9682
15299TIP3   OH267311   4.083   4.855  15.560 -0.5404  0.2264  0.1143
15299TIP3    H167312   4.173   4.850  15.527 -1.1609  1.4338 -1.9154
15299TIP3    H267313   4.068   4.770  15.601  1.8179  0.3300  1.3476
15300TIP3   OH267314   1.056   0.901   0.350  0.7037 -0.1471 -0.4409
15300TIP3    H167315   1.053   0.978   0.293 -0.0000  0.0107 -0.1965
15300TIP3    H267316   0.991   0.842   0.314  0.5906 -0.2462 -0.0801
15301TIP3   OH267317   4.531   3.256  12.386 -0.3156  0.0608 -0.1631
15301TIP3    H167318   4.594   3.316  12.346 -0.9585 -0.0368 -1.3713
15301TIP3    H267319   4.579   3.173  12.394 -0.5453 -0.2931 -1.9857
15302TIP3   OH267320   3.422   3.970  15.295 -0.2153  0.3041  0.3444
15302TIP3    H167321   3.487   4.013  15.239  0.6583 -0.3572  0.8258
15302TIP3    H267322   3.448   3.995  15.384  0.5858 -1.5348  0.6685
15303TIP3   OH267323   1.618   4.530  14.290 -0.3051 -0.1612 -0.0309
15303TIP3    H167324   1.545   4.587  14.264  0.4091  0.4780 -0.7073
15303TIP3    H267325   1.577   4.455  14.333 -1.3120  0.5007  0.1723
15304TIP3   OH267326   1.588   6.196   3.118  0.5689  0.6635 -0.2929
15304TIP3    H167327   1.558   6.142   3.191  1.7910 -0.8201 -0.8250
15304TIP3    H267328   1.568   6.144   3.040  1.8220  0.9236 -0.8223
15305TIP3   OH267329   6.076   1.473   1.623 -0.5449  0.4557 -0.5187
15305TIP3    H167330   6.032   1.433   1.699  0.4083 -1.0459 -0.7097
15305TIP3    H267331   6.042   1.425   1.548 -1.7096  2.1452 -1.1095
15306TIP3   OH267332   2.897   0.235   2.038  0.2153  0.0871  0.1349
15306TIP3    H167333   2.857   0.149   2.040  1.0763 -0.3863 -1.2466
15306TIP3    H267334   2.992   0.218   2.037  0.4153  1.0704  0.7356
15307TIP3   OH267335   5.434   5.720   2.531 -0.1189 -0.0577 -0.5521
15307TIP3    H167336   5.440   5.787   2.598  2.1545  0.1769 -0.9197
15307TIP3    H267337   5.522   5.714   2.494 -0.8176 -1.5922 -2.1427
15308TIP3   OH267338   0.624   2.730  12.169 -0.5810  0.0340 -0.4545
15308TIP3    H167339   0.548   2.672  12.166 -0.1833 -0.5569  0.3359
15308TIP3    H267340   0.618   2.782  12.089 -2.0828  0.3545 -0.1672
15309TIP3   OH267341   0.304   6.038  12.331  0.1308  0.2404 -0.4088
15309TIP3    H167342   0.244   5.972  12.297 -1.4502  0.9090  0.9574
15309TIP3    H267343   0.389   6.014  12.294 -0.5287 -2.0811 -0.5982
15310TIP3   OH267344   3.198   5.462   0.203  0.4436  0.5231  0.3135
15310TIP3    H167345   3.263   5.427   0.264  0.2162  0.5527  0.5711
15310TIP3    H267346   3.227   5.430   0.117  0.1209 -0.4800  0.5638
15311TIP3   OH267347   3.229   1.504  15.151  0.3218  0.2786  0.1011
15311TIP3    H167348   3.251   1.594  15.176  1.3224  0.1497 -0.2534
15311TIP3    H267349   3.152   1.513  15.095  1.0681  1.0311 -0.8419
15312TIP3   OH267350   3.322   5.082   2.434  0.1874 -0.6476 -0.1751
15312TIP3    H167351   3.345   5.132   2.512  0.1617 -0.2851 -0.3983
15312TIP3    H267352   3.304   5.148   2.367 -2.1229 -0.8998  0.1400
15313TIP3   OH267353   4.132   0.039  12.995 -0.4020 -0.3014  0.0961
15313TIP3    H167354   4.072   0.017  12.923  0.2633 -0.0673 -0.5389
15313TIP3    H267355   4.167  -0.045  13.024 -1.9638 -0.5754  1.3164
15314TIP3   OH267356   0.644   1.721   4.350  0.1928  0.0442  0.6537
15314TIP3    H167357   0.621   1.650   4.290 -0.0401  0.4560  0.2523
15314TIP3    H267358   0.683   1.788   4.294 -0.6805  0.7273  0.8554
15315TIP3   OH267359   3.868   5.365  13.896  0.0021 -0.4170 -0.1164
15315TIP3    H167360   3.795   5.427  13.900  0.0357 -0.4542  1.7608
15315TIP3    H267361   3.940   5.409  13.941  1.5540  0.0457 -2.8048
15316TIP3   OH267362   5.835   5.504  13.880 -0.1986  0.1546 -0.6377
15316TIP3    H167363   5.848   5.517  13.786  1.7684  2.3794 -0.1459
15316TIP3    H267364   5.907   5.447  13.906 -1.3604 -1.3772 -0.5699
15317TIP3   OH267365   5.712   5.736  16.311 -0.2811  0.4022  0.8688
15317TIP3    H167366   5.654   5.678  16.361 -1.1991  0.5057 -0.0418
15317TIP3    H267367   5.654   5.804  16.277  0.4065  0.5831  0.0408
15318TIP3   OH267368   5.657   0.450  14.449 -0.3182 -0.3999  0.0499
15318TIP3    H167369   5.725   0.429  14.513  0.2032 -2.4877 -1.0875
15318TIP3    H267370   5.579   0.465  14.502 -0.1709 -3.0925  1.2176
15319TIP3   OH267371   6.228   0.923  15.421  0.0201 -0.0270  0.2649
15319TIP3    H167372   6.145   0.881  15.443 -0.2172  0.7903  0.9909
15319TIP3    H267373   6.203   1.006  15.381  0.4833 -0.5707 -1.2155
15320TIP3   OH267374   6.060   1.719   5.863 -0.2587 -0.3010  0.2440
15320TIP3    H167375   6.086   1.724   5.771 -0.6731 -1.5259  0.0390
15320TIP3    H267376   6.040   1.626   5.877  1.7993 -0.5545  2.1099
15321TIP3   OH267377   3.867   2.684   4.265 -0.3112  0.7567 -0.4238
15321TIP3    H167378   3.904   2.700   4.178 -0.6944 -0.7758 -0.9124
15321TIP3    H267379   3.816   2.762   4.285 -0.8395  0.8244 -1.9228
15322TIP3   OH267380   4.605   2.340  12.102 -0.2654 -0.3808 -0.2367
15322TIP3    H167381   4.601   2.245  12.101 -0.0643 -0.3852 -1.1028
15322TIP3    H267382   4.672   2.362  12.038 -0.4131  0.3499 -0.1487
15323TIP3   OH267383   6.672   0.135   0.871 -0.5132  0.2993  0.4414
15323TIP3    H167384   6.722   0.156   0.793 -1.2395 -0.8110 -0.3622
15323TIP3    H267385   6.607   0.205   0.879 -0.7094  0.1936 -0.2049
15324TIP3   OH267386   5.344   2.050   2.211 -0.3761  0.2333 -0.0442
15324TIP3    H167387   5.439   2.039   2.219 -0.2129  1.6338  0.1747
15324TIP3    H267388   5.318   1.986   2.144  1.2902  2.1958 -2.7719
15325TIP3   OH267389   1.853   5.039  16.292 -0.4081  0.3293 -0.2212
15325TIP3    H167390   1.888   5.037  16.381 -1.8671  0.1570  0.3750
15325TIP3    H267391   1.923   5.004  16.238  0.9953  1.6374  0.6762
15326TIP3   OH267392   5.349   2.772  15.553  0.3781  0.0939 -0.2486
15326TIP3    H167393   5.270   2.754  15.604  1.3694  0.2037  1.4170
15326TIP3    H267394   5.341   2.864  15.528  0.2143  0.2581  0.3818
15327TIP3   OH267395   2.268   1.290   1.416  0.4627 -0.1071  0.3660
15327TIP3    H167396   2.213   1.296   1.338  1.6710 -0.3330 -0.5451
15327TIP3    H267397   2.357   1.305   1.383  0.8195  2.0309  2.0256
15328TIP3   OH267398   2.898   3.176  17.005 -0.0292 -0.3845 -0.1781
15328TIP3    H167399   2.968   3.135  16.955  0.9211 -0.7633  1.3742
15328TIP3    H267400   2.944   3.239  17.062 -1.2079  1.1197 -0.8203
15329TIP3   OH267401   3.523   5.396   1.448  0.4531  0.4896 -0.2089
15329TIP3    H167402   3.473   5.463   1.495 -0.4237  0.6146 -1.2779
15329TIP3    H267403   3.615   5.417   1.466  0.1684  0.3359  1.6912
15330TIP3   OH267404   5.149   1.578  10.751 -0.0267  0.0768 -0.0414
15330TIP3    H167405   5.068   1.536  10.721  0.0758  0.0103 -0.2259
15330TIP3    H267406   5.128   1.672  10.752 -0.2862  0.0165  0.4659
15331TIP3   OH267407   5.124   4.924   1.550  0.2559  0.9118 -0.0345
15331TIP3    H167408   5.173   4.851   1.514 -0.9648  0.8201 -1.6417
15331TIP3    H267409   5.107   4.899   1.641  1.1615 -0.0915 -0.1258
15332TIP3   OH267410   0.346   2.430   1.454 -0.4447 -0.3439 -0.1000
15332TIP3    H167411   0.415   2.488   1.421 -1.8119  0.3140 -2.0064
15332TIP3    H267412   0.274   2.489   1.474 -0.4022 -0.9883  2.1674
15333TIP3   OH267413   0.152   1.048  11.322  0.5360  0.1372  0.2280
15333TIP3    H167414   0.107   1.076  11.401 -0.3776 -0.4496 -0.0817
15333TIP3    H267415   0.145   1.123  11.262 -0.7657 -0.2423 -0.1198
15334TIP3   OH267416   2.948   1.508   4.082  0.6169 -0.1748  0.3055
15334TIP3    H167417   3.043   1.510   4.073  0.5692  2.4386 -0.2713
15334TIP3    H267418   2.933   1.484   4.174  1.8494  0.4348  0.6803
15335TIP3   OH267419   0.818   6.417  13.970  0.0680 -0.0198 -0.2776
15335TIP3    H167420   0.797   6.359  14.043 -0.2451 -0.7017 -0.8977
15335TIP3    H267421   0.862   6.361  13.906 -2.6159 -0.2884 -2.0732
15336TIP3   OH267422   5.481   3.601  13.750 -0.5358  0.2495  0.3170
15336TIP3    H167423   5.537   3.584  13.825 -0.5636  2.0957  0.7993
15336TIP3    H267424   5.499   3.692  13.726 -0.4867 -0.2891 -1.9516
15337TIP3   OH267425   3.457   1.959   1.239  0.0682  0.5449 -0.4087
15337TIP3    H167426   3.507   2.003   1.308  0.0493  1.7236 -1.1195
15337TIP3    H267427   3.471   2.014   1.161 -0.1034 -0.6233 -1.2862
15338TIP3   OH267428   2.016   4.361   4.353 -0.1898  0.5482  0.2366
15338TIP3    H167429   1.948   4.426   4.370 -0.8361 -0.0602  0.0278
15338TIP3    H267430   2.060   4.391   4.274 -0.3803  0.8042  0.2280
15339TIP3   OH267431   0.730   1.409  16.206  0.0235 -0.0395  0.0828
15339TIP3    H167432   0.672   1.485  16.203 -0.3715 -0.3230 -3.4422
15339TIP3    H267433   0.817   1.446  16.218 -0.4245  0.7055  1.2099
15340TIP3   OH267434   4.705   4.865   0.467 -0.0359 -0.0778  0.6046
15340TIP3    H167435   4.720   4.798   0.400 -1.8779  1.6180 -1.6558
15340TIP3    H267436   4.791   4.878   0.507  1.5377 -0.1832 -2.4295
15341TIP3   OH267437   5.194   4.543   3.591  0.6517 -0.3049 -0.1382
15341TIP3    H167438   5.143   4.507   3.664 -0.3221 -1.3741 -1.3113
15341TIP3    H267439   5.246   4.613   3.631  0.0962 -0.8109  1.5641
15342TIP3   OH267440   1.027   5.508   5.016  0.3405 -0.2671  0.4388
15342TIP3    H167441   1.000   5.523   5.106 -0.5413  0.8661  0.0188
15342TIP3    H267442   1.122   5.518   5.016  0.2600  0.6110  1.0987
15343TIP3   OH267443   3.958   4.605  16.632 -0.2597 -0.1076  0.4312
15343TIP3    H167444   3.978   4.632  16.542 -0.1533  0.4874  0.6250
15343TIP3    H267445   4.041   4.575  16.667  0.0018  0.9446  0.7560
15344TIP3   OH267446   4.916   5.918   4.529  0.1967 -0.2699 -0.2768
15344TIP3    H167447   4.870   5.921   4.445 -0.8207 -1.4960  0.2050
15344TIP3    H267448   4.950   5.829   4.534 -0.2341 -0.3859  0.8576
15345TIP3   OH267449   4.336   3.392   1.874 -0.1417 -0.1183  0.2323
15345TIP3    H167450   4.286   3.471   1.895 -0.0939  0.2946 -1.1296
15345TIP3    H267451   4.331   3.384   1.779  1.1671 -0.8855  0.1916
15346TIP3   OH267452   4.977   2.100  11.392  0.5213 -0.0030  0.2000
15346TIP3    H167453   5.029   2.136  11.464  1.4609  0.6668 -0.7738
15346TIP3    H267454   5.026   2.023  11.363  0.0373 -0.3914  0.3935
15347TIP3   OH267455   6.297   2.387   5.938 -0.5904 -0.1392 -0.1662
15347TIP3    H167456   6.392   2.396   5.940 -0.7629  2.8005  1.0733
15347TIP3    H267457   6.277   2.332   6.014  0.1015 -0.8681 -0.4969
15348TIP3   OH267458   1.110   4.839  13.919 -0.1673  0.4001  0.0351
15348TIP3    H167459   1.095   4.916  13.864 -2.2327  0.4747  0.6225
15348TIP3    H267460   1.050   4.773  13.885  0.0974 -0.2586  0.8257
15349TIP3   OH267461   1.491   2.345  13.481  0.2329  0.1025  0.7272
15349TIP3    H167462   1.437   2.275  13.444 -0.2497 -1.0539  3.3730
15349TIP3    H267463   1.577   2.305  13.493  1.3006  1.3970 -1.7928
15350TIP3   OH267464   1.942   2.956   5.116 -0.2514  0.2223 -0.3669
15350TIP3    H167465   1.881   3.017   5.076 -0.1100  3.3867  3.5730
15350TIP3    H267466   1.888   2.903   5.175  0.2548  0.1619  0.0510
15351TIP3   OH267467   3.836   6.456   2.885  0.0573  0.3255 -0.2304
15351TIP3    H167468   3.856   6.496   2.969  1.0269  2.6825 -1.4751
15351TIP3    H267469   3.757   6.406   2.900 -0.9675  2.3373  1.6527
15352TIP3   OH267470   4.225   4.769   4.328 -0.1038 -0.0677  0.3199
15352TIP3    H167471   4.218   4.677   4.305 -1.2468 -0.0124  0.3819
15352TIP3    H267472   4.247   4.770   4.421 -1.1987 -0.2951  0.5974
15353TIP3   OH267473   6.180   5.282  11.709  0.3739 -0.1590  0.5179
15353TIP3    H167474   6.113   5.333  11.754  0.8251  0.1920  0.7947
15353TIP3    H267475   6.187   5.201  11.760  0.5101  0.0115  0.7666
15354TIP3   OH267476   6.567   2.177   0.659 -0.4908  0.0124 -0.7936
15354TIP3    H167477   6.500   2.144   0.719 -1.2012  1.5984 -0.6736
15354TIP3    H267478   6.534   2.261   0.630  1.6414  1.0660 -0.4044
15355TIP3   OH267479   2.053   2.266  15.635 -0.3877  0.4023 -0.0435
15355TIP3    H167480   2.098   2.204  15.577 -0.7618 -2.8900  2.8582
15355TIP3    H267481   2.120   2.332  15.655  0.4634  0.2968 -2.1881
15356TIP3   OH267482   5.911   1.646   5.436  0.5834 -0.1415  0.0287
15356TIP3    H167483   5.968   1.637   5.361  2.2449  1.1090  1.0697
15356TIP3    H267484   5.847   1.712   5.410 -0.2583 -1.3479 -1.0452
15357TIP3   OH267485   3.192   5.628  13.226  0.1351 -0.0984  0.5068
15357TIP3    H167486   3.210   5.672  13.143 -0.4794  1.0729  0.9653
15357TIP3    H267487   3.142   5.550  13.201 -0.9955  0.8034 -0.1734
15358TIP3   OH267488   2.008   4.928  17.117 -0.1710  0.3213  0.1508
15358TIP3    H167489   2.048   4.843  17.137  0.5997 -0.1809 -2.9544
15358TIP3    H267490   1.921   4.924  17.155  0.1270 -1.5598  0.7238
15359TIP3   OH267491   4.694   2.626   4.778 -0.3615  0.0216  0.0375
15359TIP3    H167492   4.692   2.531   4.787 -0.6879  0.1096  1.1351
15359TIP3    H267493   4.686   2.659   4.868  1.4729  1.0738 -0.1284
15360TIP3   OH267494   4.100   2.571  15.925 -0.0712  0.6071  0.2038
15360TIP3    H167495   4.050   2.616  15.993  1.9008  2.4287  0.5410
15360TIP3    H267496   4.041   2.567  15.850 -1.2890  1.1720  1.1058
15361TIP3   OH267497   0.580   2.808   3.304  0.2164  0.0513 -0.0616
15361TIP3    H167498   0.602   2.742   3.370 -1.2360  0.3599  0.7806
15361TIP3    H267499   0.610   2.890   3.342  0.1901  0.1255 -0.2002
15362TIP3   OH267500   0.632   5.810  17.247 -0.1439 -0.4531 -0.5968
15362TIP3    H167501   0.659   5.760  17.170 -1.1610 -2.0353  0.0263
15362TIP3    H267502   0.537   5.802  17.249 -0.3929  1.8393 -0.6406
15363TIP3   OH267503   0.560   2.024  13.873  0.4467  0.1980 -0.3058
15363TIP3    H167504   0.533   2.076  13.797  1.3479 -0.9479 -1.4564
15363TIP3    H267505   0.544   2.082  13.948 -1.1719  1.0917 -1.2708
15364TIP3   OH267506   2.526   2.127  11.420  0.0736  0.7726 -0.7819
15364TIP3    H167507   2.450   2.114  11.477 -0.7269 -0.9944 -2.1541
15364TIP3    H267508   2.592   2.067  11.455  0.2110  0.9792 -0.6817
15365TIP3   OH267509   6.246   5.304   4.620  0.2650  0.4700 -0.2053
15365TIP3    H167510   6.262   5.380   4.565  2.1670 -0.2128 -0.6845
15365TIP3    H267511   6.166   5.265   4.584 -1.9026  3.2137  1.2611
15366TIP3   OH267512   3.308   5.240  15.923  0.3076 -0.0939 -0.1818
15366TIP3    H167513   3.327   5.315  15.980  0.5986  0.1542 -0.6027
15366TIP3    H267514   3.216   5.218  15.943  0.9440 -1.2226  1.7572
15367TIP3   OH267515   5.439   3.323   2.403  0.2846  0.3986 -0.3421
15367TIP3    H167516   5.520   3.370   2.381 -0.1185  0.5619 -1.5544
15367TIP3    H267517   5.375   3.392   2.418  0.1736  0.2571 -0.1654
15368TIP3   OH267518   0.425   6.486   1.215 -0.7439 -0.4112  0.2060
15368TIP3    H167519   0.424   6.451   1.126 -0.3591  0.6654 -0.2322
15368TIP3    H267520   0.353   6.548   1.217  0.3454  0.8965  0.0784
15369TIP3   OH267521   2.275   4.648  12.629 -0.2616 -0.0758  0.5435
15369TIP3    H167522   2.328   4.620  12.704  1.1318 -0.4709 -0.5391
15369TIP3    H267523   2.235   4.567  12.597  0.3482 -0.1652 -0.0187
15370TIP3   OH267524   6.304   6.651   1.093 -0.1528 -0.5026  0.1759
15370TIP3    H167525   6.324   6.712   1.164 -0.9215 -0.1504  0.0938
15370TIP3    H267526   6.305   6.565   1.135 -2.0164 -0.1987  0.9628
15371TIP3   OH267527   2.797   3.336   0.008 -0.4486  0.3754  0.2607
15371TIP3    H167528   2.720   3.280  -0.004 -0.4332  0.6195 -1.2246
15371TIP3    H267529   2.829   3.315   0.095 -1.5810 -0.5035  0.4913
15372TIP3   OH267530   2.832   3.515   0.296  0.3679  0.1148  0.2486
15372TIP3    H167531   2.751   3.540   0.253  0.0549 -0.5410  0.4261
15372TIP3    H267532   2.831   3.419   0.294  1.0480  0.0982  0.4187
15373TIP3   OH267533   2.944   4.649  11.318  0.0068  0.0073 -0.0199
15373TIP3    H167534   2.908   4.722  11.269  0.3291  0.3097  0.1941
15373TIP3    H267535   2.867   4.605  11.356 -0.1354  0.7471  0.5665
15374TIP3   OH267536   4.839   2.019  16.050 -0.2777  0.5088  0.4992
15374TIP3    H167537   4.816   2.106  16.018 -0.8792  0.0748 -0.2824
15374TIP3    H267538   4.929   2.005  16.020 -0.0726  0.9751  0.8876
15375TIP3   OH267539   3.030   2.449  12.832 -0.7321 -0.4192 -0.1029
15375TIP3    H167540   2.938   2.476  12.836 -1.1418 -1.8730  0.6422
15375TIP3    H267541   3.036   2.398  12.751 -0.3961  0.2533 -0.5163
15376TIP3   OH267542   1.553   5.481   2.241  0.1908 -0.2646 -0.5697
15376TIP3    H167543   1.478   5.496   2.183  1.2887  1.1066 -1.7006
15376TIP3    H267544   1.556   5.559   2.297 -0.2359 -1.1083  0.6653
15377TIP3   OH267545   4.031   3.603  14.358  0.0055 -0.2012  0.3860
15377TIP3    H167546   4.071   3.563  14.436  2.2272 -3.0319 -1.9852
15377TIP3    H267547   4.082   3.683  14.343  0.3950 -0.3083  1.0833
15378TIP3   OH267548   5.290   2.112  12.127  0.1040  0.1110 -0.8170
15378TIP3    H167549   5.281   2.154  12.213  0.4187 -0.2121 -0.6208
15378TIP3    H267550   5.201   2.089  12.102  0.0850 -0.5277 -0.1945
15379TIP3   OH267551   4.506   0.919   4.626  0.2607  0.0740 -0.1729
15379TIP3    H167552   4.414   0.922   4.652  0.6417  1.4620  1.2126
15379TIP3    H267553   4.508   0.862   4.550 -1.9354  1.0320 -1.0275
15380TIP3   OH267554   6.125   6.550  14.337 -0.1487  0.1571 -0.4588
15380TIP3    H167555   6.051   6.508  14.381 -0.0218 -0.5191 -0.8774
15380TIP3    H267556   6.124   6.640  14.369 -1.9948  0.5589 -1.4832
15381TIP3   OH267557   1.377   5.607   2.054 -0.1212 -0.1367  0.4014
15381TIP3    H167558   1.336   5.593   1.969  0.8135  0.1142 -0.1028
15381TIP3    H267559   1.372   5.702   2.068 -0.9233 -0.2490  0.9764
15382TIP3   OH267560   1.943   2.981  15.955 -0.3628  0.2329  0.1178
15382TIP3    H167561   1.961   2.890  15.980  0.5998  0.7258  1.3301
15382TIP3    H267562   1.853   2.980  15.923 -0.8256 -0.9188  1.3528
15383TIP3   OH267563   4.309   1.900  11.327  0.2774  0.9731 -0.2202
15383TIP3    H167564   4.234   1.870  11.276 -0.3027  2.1965 -0.1261
15383TIP3    H267565   4.349   1.820  11.360 -0.2673  0.2357 -1.2738
15384TIP3   OH267566   0.710   0.628  14.714  0.1044 -0.1673 -0.2275
15384TIP3    H167567   0.775   0.558  14.703  0.0002 -0.3847  0.5285
15384TIP3    H267568   0.631   0.583  14.744 -0.4744  0.0679 -1.3305
15385TIP3   OH267569   0.325   1.146   4.441  0.5004 -0.3900  0.9775
15385TIP3    H167570   0.337   1.066   4.491 -0.2810 -2.9555 -2.5144
15385TIP3    H267571   0.395   1.145   4.376  0.0279  1.3926  0.3733
15386TIP3   OH267572   6.339   6.581  17.207  0.3160  0.2111 -0.0723
15386TIP3    H167573   6.363   6.646  17.141  0.1479  0.9173  0.5465
15386TIP3    H267574   6.417   6.527  17.218  0.5750  0.5299 -0.3337
15387TIP3   OH267575   6.566   6.370   5.367 -0.0896  0.0039 -0.5638
15387TIP3    H167576   6.561   6.281   5.332 -0.0667  0.2722 -1.2822
15387TIP3    H267577   6.482   6.409   5.342  0.1775  0.3923 -0.8633
15388TIP3   OH267578   4.154   4.260  11.772  0.6341  0.0467 -0.2278
15388TIP3    H167579   4.184   4.169  11.780 -1.6681 -0.7632  0.3194
15388TIP3    H267580   4.169   4.282  11.680  0.7849 -1.0855 -0.4963
15389TIP3   OH267581   1.181   2.254  16.252  0.4870 -0.2189 -0.5808
15389TIP3    H167582   1.242   2.322  16.279 -1.0613  1.4437 -1.0336
15389TIP3    H267583   1.132   2.232  16.331  1.8850 -1.8534 -0.1216
15390TIP3   OH267584   2.524   1.354   2.640 -0.1722 -0.4774  0.3045
15390TIP3    H167585   2.599   1.295   2.646 -0.2968 -0.6130  0.5874
15390TIP3    H267586   2.465   1.312   2.578 -0.5152 -0.9463  0.9324
15391TIP3   OH267587   5.498   0.021   2.730  0.1707 -0.0369  0.4963
15391TIP3    H167588   5.422  -0.022   2.770  1.5824 -1.3019  1.9778
15391TIP3    H267589   5.559  -0.051   2.712  0.6573  0.8371 -1.5613
15392TIP3   OH267590   0.497   3.971  16.117  0.3485 -0.0575 -0.6751
15392TIP3    H167591   0.561   3.945  16.183  0.1035 -1.0077 -0.7972
15392TIP3    H267592   0.459   3.889  16.087 -0.3384  0.4422 -1.2015
15393TIP3   OH267593   4.013   5.428   3.730  0.2259 -0.0845  0.0261
15393TIP3    H167594   3.918   5.437   3.736  0.3515  0.6336  1.1557
15393TIP3    H267595   4.031   5.342   3.769  0.1466  0.3017  0.9144
15394TIP3   OH267596   5.818   4.981  14.078 -0.3826  0.4151  0.5848
15394TIP3    H167597   5.825   5.071  14.046  1.2239  0.6346  1.4770
15394TIP3    H267598   5.724   4.961  14.072 -0.9770  2.5962  1.5409
15395TIP3   OH267599   4.250   2.943   0.810  0.1068 -0.1045  0.0692
15395TIP3    H167600   4.290   3.028   0.790 -0.8495  0.1458 -0.9236
15395TIP3    H267601   4.179   2.963   0.870 -0.6813 -0.0497 -0.8464
15396TIP3   OH267602   4.605   0.214   4.409  0.3362  0.5437  0.5147
15396TIP3    H167603   4.677   0.203   4.347  0.5022 -2.0135  1.0632
15396TIP3    H267604   4.628   0.156   4.482 -1.7476  0.5151  1.1868
15397TIP3   OH267605   1.657   2.100  13.275  0.5153 -0.2953  0.1845
15397TIP3    H167606   1.751   2.105  13.262  0.7650 -1.6510  1.2326
15397TIP3    H267607   1.644   2.119  13.368 -0.5401  2.4112 -0.4161
15398TIP3   OH267608   6.710   3.865  11.696  0.1286  0.0471 -0.4590
15398TIP3    H167609   6.772   3.793  11.713  0.0408  0.0343 -0.1930
15398TIP3    H267610   6.757   3.922  11.635  0.0119 -0.4905 -1.0695
15399TIP3   OH267611   1.411   3.746  14.022  0.0861  0.2854 -0.1218
15399TIP3    H167612   1.442   3.809  14.087  0.5283 -0.0900  0.0380
15399TIP3    H267613   1.364   3.680  14.073 -0.9939  0.8471 -0.3624
15400TIP3   OH267614   6.486   2.664   3.290  0.6484 -0.0595 -0.3560
15400TIP3    H167615   6.470   2.662   3.196 -1.2926  0.9220 -0.1054
15400TIP3    H267616   6.438   2.589   3.325 -0.4514  0.7944  0.0399
15401TIP3   OH267617   6.372   0.441   4.047 -0.7172 -0.1128 -0.1032
15401TIP3    H167618   6.296   0.481   4.003 -0.6938  0.8192  0.6658
15401TIP3    H267619   6.440   0.507   4.040 -0.8455  0.2497  1.6949
15402TIP3   OH267620   2.880   2.506  14.467 -0.2295 -0.3134 -0.2627
15402TIP3    H167621   2.808   2.491  14.405 -0.4243 -2.1172  0.3488
15402TIP3    H267622   2.837   2.544  14.544 -0.4530 -0.9381 -0.0786
15403TIP3   OH267623   5.736   4.780   0.845 -0.6958 -0.1887  0.3063
15403TIP3    H167624   5.695   4.719   0.906 -0.5690  0.7637  1.3804
15403TIP3    H267625   5.663   4.828   0.807 -0.6591  0.8694  1.5268
15404TIP3   OH267626   2.027   3.893   3.955 -0.2468  0.0386  0.0889
15404TIP3    H167627   2.075   3.973   3.932  0.0903 -0.7229 -2.0817
15404TIP3    H267628   1.939   3.923   3.977 -0.2108  0.9806 -0.9745
15405TIP3   OH267629   4.432   4.747  14.676 -0.3466 -0.5284 -0.3803
15405TIP3    H167630   4.387   4.789  14.749  0.1150  0.3728 -0.5989
15405TIP3    H267631   4.468   4.667  14.714  1.6443  0.8939  0.9707
15406TIP3   OH267632   1.630   6.344  11.764  0.2553  0.0262  0.2816
15406TIP3    H167633   1.631   6.373  11.673  0.4934 -0.5702  0.0897
15406TIP3    H267634   1.673   6.415  11.812  3.0806 -0.9989 -0.5041
15407TIP3   OH267635   4.104   2.620  12.664  0.3755 -0.0999  0.4038
15407TIP3    H167636   4.022   2.605  12.712 -0.3166 -0.9097 -0.9829
15407TIP3    H267637   4.081   2.606  12.572  2.2617 -1.2093  0.0456
15408TIP3   OH267638   3.945   1.757   3.593  0.1711  0.6284 -0.1594
15408TIP3    H167639   3.910   1.776   3.506  1.0522  1.8938 -0.2552
15408TIP3    H267640   3.936   1.839   3.641 -0.8671 -0.2114  1.1673
15409TIP3   OH267641   1.409   3.438  11.687  0.0648  0.3062  0.4125
15409TIP3    H167642   1.389   3.424  11.779 -0.8259 -2.6498 -0.0989
15409TIP3    H267643   1.497   3.474  11.686  0.1963  0.1211  2.4015
15410TIP3   OH267644   5.468   3.851   2.707  0.2504  0.6569  0.0130
15410TIP3    H167645   5.495   3.900   2.785  2.5773 -1.4860  0.6567
15410TIP3    H267646   5.464   3.917   2.638  2.0190  2.0054  1.1117
15411TIP3   OH267647   3.862   0.042  11.031  0.1308 -0.0271  0.1585
15411TIP3    H167648   3.892   0.121  11.076 -0.6626  1.6862 -2.1603
15411TIP3    H267649   3.940   0.008  10.988 -0.1798  1.7212 -1.9458
15412TIP3   OH267650   1.079   4.361  16.338  0.0972 -0.4814 -0.0212
15412TIP3    H167651   1.026   4.354  16.259 -0.6852  0.1313  0.4350
15412TIP3    H267652   1.097   4.455  16.347  0.4859 -0.5850  0.3269
15413TIP3   OH267653   2.338   0.405  13.729 -0.2431  0.7554 -0.3324
15413TIP3    H167654   2.290   0.388  13.810  0.7082 -0.3877  0.0099
15413TIP3    H267655   2.428   0.379  13.748  0.4903  2.5855 -1.0480
15414TIP3   OH267656   0.816   1.917  14.022 -0.4919 -0.5530  0.5019
15414TIP3    H167657   0.816   1.999  14.071  1.1656  0.1408 -0.5928
15414TIP3    H267658   0.754   1.861  14.070 -0.2376  0.6648  2.3669
15415TIP3   OH267659   1.195   3.098  14.960 -0.1243  0.0875 -0.3833
15415TIP3    H167660   1.164   3.166  14.901  0.4459  2.0629  1.4637
15415TIP3    H267661   1.201   3.019  14.906 -0.9981  1.4394 -2.5567
15416TIP3   OH267662   6.285   2.691  12.234 -0.0938  0.4387 -0.1426
15416TIP3    H167663   6.252   2.626  12.295  3.0959 -0.8224  0.4753
15416TIP3    H267664   6.253   2.775  12.268 -1.9831 -0.5545  0.6679
15417TIP3   OH267665   1.979   1.993   3.767  0.4156  0.2051 -0.4051
15417TIP3    H167666   2.054   1.988   3.827  0.4587  1.9761 -0.2607
15417TIP3    H267667   1.942   1.905   3.768  3.2496 -1.1265 -1.5136
15418TIP3   OH267668   3.847   0.619   5.055  0.3233 -0.3556  0.2270
15418TIP3    H167669   3.872   0.542   5.105  3.5410  0.8845  0.7993
15418TIP3    H267670   3.886   0.605   4.968 -0.6670 -0.1576 -0.2659
15419TIP3   OH267671   5.546   4.554  11.923 -0.0494 -0.5361 -0.0329
15419TIP3    H167672   5.549   4.588  12.013  0.0636 -0.4342 -0.0749
15419TIP3    H267673   5.622   4.593  11.880 -0.2852 -0.3331 -0.2625
15420TIP3   OH267674   2.169   1.401   3.799  0.0007  0.2787  0.4617
15420TIP3    H167675   2.224   1.344   3.852 -0.9257  0.0668  1.2321
15420TIP3    H267676   2.229   1.465   3.762  0.9192 -0.6331  0.3381
15421TIP3   OH267677   1.779   0.464   4.276  0.8335  0.0359  0.6171
15421TIP3    H167678   1.774   0.558   4.257  1.2309  0.1109  0.8842
15421TIP3    H267679   1.816   0.459   4.364  0.6748 -0.3688  0.6635
15422TIP3   OH267680   0.292   5.486   2.454 -0.0924  0.1507  0.2629
15422TIP3    H167681   0.387   5.476   2.469  0.3251  3.0015 -0.0141
15422TIP3    H267682   0.276   5.441   2.371  0.9375 -0.6977  0.5008
15423TIP3   OH267683   2.226   3.707  14.963  0.0085 -1.2879 -0.3972
15423TIP3    H167684   2.148   3.745  15.004 -0.1573 -1.5698 -0.4515
15423TIP3    H267685   2.230   3.747  14.876  1.4031  0.7578  0.5218
15424TIP3   OH267686   0.436   0.992  15.526 -0.0575  0.0833  0.3102
15424TIP3    H167687   0.443   0.950  15.611 -0.4131  0.1463  0.3729
15424TIP3    H267688   0.519   1.038  15.515 -0.2153  0.5083  0.8571
15425TIP3   OH267689   3.684   2.150   4.587 -0.0348  0.1987 -0.2668
15425TIP3    H167690   3.776   2.142   4.612  0.5227  0.3600 -2.0933
15425TIP3    H267691   3.685   2.213   4.515 -1.0840 -2.2305 -2.5656
15426TIP3   OH267692   6.049   5.741   0.210 -0.0527  0.1726 -0.3327
15426TIP3    H167693   6.018   5.815   0.158 -1.3014 -0.8169 -1.0636
15426TIP3    H267694   5.979   5.724   0.272  0.5728  0.0922  0.3671
15427TIP3   OH267695   3.918   4.642   3.612 -0.1166 -0.8487 -0.8411
15427TIP3    H167696   3.902   4.561   3.563  1.5341 -1.8858  0.2062
15427TIP3    H267697   4.012   4.641   3.629 -0.2426  0.7535  0.1718
15428TIP3   OH267698   0.457   1.915  11.847  0.0361 -0.1046  0.1882
15428TIP3    H167699   0.509   1.865  11.910  2.7644  0.6936 -1.2614
15428TIP3    H267700   0.443   2.000  11.891  2.0985  0.5227 -0.2698
15429TIP3   OH267701   6.048   1.937  12.518 -0.0514  0.3413  0.5182
15429TIP3    H167702   6.136   1.900  12.522 -0.3586 -0.4902 -0.1186
15429TIP3    H267703   5.998   1.886  12.583 -0.2134  0.3671  0.4144
15430TIP3   OH267704   1.573   3.003   2.822 -0.3139 -0.0509 -0.1360
15430TIP3    H167705   1.497   3.005   2.764 -0.3352  1.6437 -0.0915
15430TIP3    H267706   1.629   3.074   2.791  0.8334 -0.6909  0.4081
15431TIP3   OH267707   3.962   1.744  16.790 -0.1787 -0.5994  0.3228
15431TIP3    H167708   3.887   1.749  16.849 -1.3547 -1.5516 -1.0440
15431TIP3    H267709   3.984   1.651  16.787  0.6059 -0.4187  0.1222
15432TIP3   OH267710   5.019   3.412  11.736  0.4995 -0.0460  0.1464
15432TIP3    H167711   5.058   3.436  11.821  0.0386 -0.2829  0.4287
15432TIP3    H267712   4.956   3.344  11.758  0.7439 -0.4717 -0.4581
15433TIP3   OH267713   0.952   2.466  14.348 -0.0596 -0.5702 -0.1948
15433TIP3    H167714   0.985   2.378  14.366  0.5447 -0.0775  1.2460
15433TIP3    H267715   1.029   2.522  14.353 -0.4145  0.0436 -1.2385
15434TIP3   OH267716   4.414   4.482  16.010 -0.2703 -0.3130  0.2866
15434TIP3    H167717   4.448   4.401  16.049 -0.4848 -0.2973  0.5060
15434TIP3    H267718   4.380   4.532  16.084 -0.5423 -0.2191  0.0986
15435TIP3   OH267719   2.961   4.188  15.754 -0.4268  0.3145 -0.2236
15435TIP3    H167720   3.043   4.176  15.706 -1.2893  0.4040 -1.8047
15435TIP3    H267721   2.899   4.217  15.687 -1.8670 -0.2135  0.8422
15436TIP3   OH267722   5.987   4.796  12.235 -0.3061  0.0102 -0.6382
15436TIP3    H167723   5.981   4.709  12.195  0.3067 -0.4379  0.1966
15436TIP3    H267724   6.077   4.824  12.220 -0.2193  0.0632 -0.0599
15437TIP3   OH267725   5.248   6.666   2.536  0.3344  0.1669 -0.3172
15437TIP3    H167726   5.271   6.757   2.517 -0.8308  0.5758  0.1288
15437TIP3    H267727   5.245   6.662   2.632  0.0010 -0.2345 -0.3401
15438TIP3   OH267728   4.496   4.717   3.034  0.2394 -0.0443  0.1174
15438TIP3    H167729   4.542   4.773   2.971  1.0309 -0.2564  0.4994
15438TIP3    H267730   4.512   4.628   3.002 -1.2823 -0.0694 -0.6717
15439TIP3   OH267731   0.373   5.436   5.102 -0.5531  0.1675 -0.8786
15439TIP3    H167732   0.310   5.384   5.052 -1.3823  0.8234 -0.5430
15439TIP3    H267733   0.321   5.508   5.138  0.1165 -0.0201  0.5291
15440TIP3   OH267734   5.785   3.581  15.199  0.3661  0.1889  0.3900
15440TIP3    H167735   5.877   3.554  15.196  1.2325  1.7086 -7.2497
15440TIP3    H267736   5.735   3.500  15.193  1.2961 -0.5193  1.7473
15441TIP3   OH267737   6.742   4.802   2.773 -0.1444 -0.0241 -0.4408
15441TIP3    H167738   6.716   4.758   2.692  2.6489 -0.0457 -1.4503
15441TIP3    H267739   6.834   4.826   2.759  1.0888 -1.6781  3.4309
15442TIP3   OH267740   3.502   0.450  12.756 -0.1899 -0.7110  0.0029
15442TIP3    H167741   3.579   0.426  12.808  0.6472 -2.0973 -1.7637
15442TIP3    H267742   3.462   0.366  12.733 -1.1767 -0.0846 -0.6311
15443TIP3   OH267743   6.374   3.370   3.296 -0.6001 -0.0963 -0.4650
15443TIP3    H167744   6.349   3.278   3.306  3.9440 -1.4916  0.5823
15443TIP3    H267745   6.391   3.380   3.203 -0.1313 -0.6731 -0.4476
15444TIP3   OH267746   4.878   1.482   3.161  0.4857 -0.1658 -0.2084
15444TIP3    H167747   4.908   1.455   3.074 -1.3770  0.5007 -1.1096
15444TIP3    H267748   4.808   1.545   3.144 -1.0697 -1.2448  1.7298
15445TIP3   OH267749   5.805   1.620  11.297  0.0839 -0.5235  0.0296
15445TIP3    H167750   5.809   1.649  11.389 -1.0568 -1.3519  0.3632
15445TIP3    H267751   5.868   1.676  11.252  0.1464  0.3908  1.1908
15446TIP3   OH267752   5.238   3.127  11.983  0.4483  0.4690  0.3949
15446TIP3    H167753   5.175   3.067  12.021 -2.0411  1.7621 -1.3455
15446TIP3    H267754   5.220   3.211  12.025  0.1407  1.1108 -0.9452
15447TIP3   OH267755   4.499   5.779  13.043 -0.0900  0.1538  0.2375
15447TIP3    H167756   4.559   5.711  13.012  1.4733  0.7701  1.7678
15447TIP3    H267757   4.554   5.840  13.092 -2.0635  0.3739  2.3538
15448TIP3   OH267758   0.151   4.072  11.311  0.0430 -0.4990 -0.3467
15448TIP3    H167759   0.209   4.145  11.287 -1.8059  0.4578 -2.1611
15448TIP3    H267760   0.099   4.055  11.232 -2.9069 -0.6072  1.4889
15449TIP3   OH267761   6.497   6.514  14.082 -0.4522  0.3078 -0.1949
15449TIP3    H167762   6.534   6.552  14.161  1.4962 -2.1763  0.2456
15449TIP3    H267763   6.440   6.444  14.113  3.1354 -3.2544 -0.6482
15450TIP3   OH267764   6.011   1.493  14.859  0.3334  0.1691  0.1587
15450TIP3    H167765   6.095   1.508  14.817  1.4216 -2.1540  1.3551
15450TIP3    H267766   6.030   1.491  14.953 -1.2417  0.5250  0.5263
15451TIP3   OH267767   6.580   4.840  10.705  0.0947 -0.2407 -0.0923
15451TIP3    H167768   6.643   4.836  10.634  2.5233 -0.2759  1.9288
15451TIP3    H267769   6.601   4.764  10.760 -0.2584  0.9293  1.7576
15452TIP3   OH267770   3.753   5.198  16.759 -0.4697 -1.0370 -0.3580
15452TIP3    H167771   3.658   5.203  16.768 -0.2183  1.3699  2.5878
15452TIP3    H267772   3.784   5.168  16.844  1.4991  1.2041 -0.1815
15453TIP3   OH267773   1.544   1.720   3.762 -0.1310  0.0838  0.2075
15453TIP3    H167774   1.491   1.641   3.752 -0.5533  0.1234  1.8306
15453TIP3    H267775   1.492   1.789   3.721 -0.3406 -0.2599 -0.1069
15454TIP3   OH267776   0.594   6.524  16.546  0.0748 -0.3290 -0.2377
15454TIP3    H167777   0.513   6.569  16.568 -0.9513 -1.4200 -1.6269
15454TIP3    H267778   0.645   6.525  16.627 -1.4546  0.0959  0.7456
15455TIP3   OH267779   5.325   0.529  13.456  0.0157 -0.2620 -0.0622
15455TIP3    H167780   5.418   0.533  13.475  0.2514  0.2702 -1.2296
15455TIP3    H267781   5.320   0.504  13.364 -0.9311  1.4057 -0.5116
15456TIP3   OH267782   5.987   2.142  10.395  0.2678 -0.2126  0.0466
15456TIP3    H167783   6.040   2.118  10.471  0.1954  2.3369  0.9820
15456TIP3    H267784   6.007   2.235  10.380 -0.5375 -0.3580 -2.3970
15457TIP3   OH267785   5.950   6.695   3.381  0.6637 -0.1442 -0.7918
15457TIP3    H167786   5.963   6.755   3.454 -0.5009  1.5361 -1.8817
15457TIP3    H267787   6.023   6.713   3.322  0.8880 -0.5708 -0.6501
15458TIP3   OH267788   6.631   2.630  15.966  0.3214  0.0631  0.1003
15458TIP3    H167789   6.584   2.673  16.038  1.1767  0.5133  0.4075
15458TIP3    H267790   6.563   2.591  15.912 -0.3604  0.0099  0.9767
15459TIP3   OH267791   2.853   6.052  11.815  0.4443  0.0201 -0.4364
15459TIP3    H167792   2.872   5.961  11.795  0.9453  0.0737 -0.2324
15459TIP3    H267793   2.804   6.084  11.740 -0.1638 -0.5481 -0.2862
15460TIP3   OH267794   1.179   5.991   4.517 -0.1175 -0.2853  0.0683
15460TIP3    H167795   1.216   5.926   4.457 -1.8647 -0.3374 -1.0462
15460TIP3    H267796   1.180   5.949   4.603  1.6563 -0.5430 -0.0450
15461TIP3   OH267797   4.307   5.055  12.098 -0.4047 -0.1332 -0.0292
15461TIP3    H167798   4.261   5.001  12.163  0.9089  0.0407  1.1051
15461TIP3    H267799   4.399   5.028  12.107  0.6500  3.5117  1.9262
15462TIP3   OH267800   2.627   4.074   3.905  0.0178  0.6475  0.7914
15462TIP3    H167801   2.586   4.099   3.988  0.5441  0.8401  1.0019
15462TIP3    H267802   2.678   3.996   3.927  1.2757  1.4862  0.9955
15463TIP3   OH267803   1.175   5.654   5.937 -0.1937  0.0664  0.4154
15463TIP3    H167804   1.181   5.660   6.032  3.8047 -2.2929  0.5461
15463TIP3    H267805   1.141   5.566   5.921  1.5685 -0.5290 -0.2332
15464TIP3   OH267806   2.279   0.045  14.508 -0.2886 -0.0041 -0.0708
15464TIP3    H167807   2.254  -0.019  14.441 -2.6654  0.1170  0.6130
15464TIP3    H267808   2.352   0.093  14.469  2.6960 -4.0192 -0.0425
15465TIP3   OH267809   5.987   4.122   2.708  0.0079  0.0736  0.3780
15465TIP3    H167810   5.951   4.033   2.703  0.4584 -0.1881  1.4601
15465TIP3    H267811   6.000   4.137   2.802 -0.2338  1.3584  0.2151
15466TIP3   OH267812   2.974   4.138  14.032  0.0044 -0.2074 -0.0545
15466TIP3    H167813   2.993   4.127  13.939  2.0580 -1.0570  0.3956
15466TIP3    H267814   2.987   4.232  14.049 -0.0443 -0.1101 -0.5550
15467TIP3   OH267815   6.461   4.922   6.785  0.1774  0.3319 -0.0817
15467TIP3    H167816   6.385   4.946   6.732 -0.3057  0.4004  0.6326
15467TIP3    H267817   6.534   4.921   6.723 -0.3513  0.5529 -0.7181
15468TIP3   OH267818   0.944   3.498   1.331  0.8643 -0.6253  0.8591
15468TIP3    H167819   0.894   3.576   1.353 -0.0269 -0.7905 -0.4878
15468TIP3    H267820   1.030   3.532   1.304  0.2395 -0.0208 -0.4546
15469TIP3   OH267821   4.679   3.039  12.336  0.4369  0.7303  0.3926
15469TIP3    H167822   4.623   2.963  12.322 -0.7348  1.4437  1.0137
15469TIP3    H267823   4.749   3.007  12.393 -0.3386  0.2445  1.0862
15470TIP3   OH267824   1.301   4.771  12.533  0.7161  0.5151  0.4486
15470TIP3    H167825   1.254   4.710  12.476 -0.3247  0.0772  1.7153
15470TIP3    H267826   1.392   4.764  12.507  0.1665  1.0947 -1.8431
15471TIP3   OH267827   2.294   0.125  14.172  0.5071  0.4626  0.0430
15471TIP3    H167828   2.254   0.039  14.156  1.4427 -0.2229  1.2887
15471TIP3    H267829   2.375   0.106  14.218  0.3710  2.0655  1.0051
15472TIP3   OH267830   3.251   1.442  12.536  0.3081  0.3180 -0.0505
15472TIP3    H167831   3.265   1.439  12.631 -0.0015  1.6209  0.0548
15472TIP3    H267832   3.156   1.440  12.526  0.3242  0.7520 -0.3053
15473TIP3   OH267833   6.103   6.016  14.421 -0.3893 -0.1039 -0.1228
15473TIP3    H167834   6.106   5.956  14.347 -0.5038 -0.6209  0.2840
15473TIP3    H267835   6.185   6.066  14.416  0.0624 -0.8263 -0.0294
15474TIP3   OH267836   2.405   2.389  16.558 -0.0249  0.4405  0.5535
15474TIP3    H167837   2.427   2.418  16.646 -0.3719  1.1452  0.4164
15474TIP3    H267838   2.374   2.469  16.513 -0.2248  0.0180 -0.0803
15475TIP3   OH267839   3.625   5.524   2.032 -0.1371  0.4016  0.2288
15475TIP3    H167840   3.545   5.512   1.982  1.6519  0.1686 -2.8098
15475TIP3    H267841   3.640   5.619   2.031 -1.0466  0.6053  2.0536
15476TIP3   OH267842   0.895   0.754   4.821 -0.1531  0.7798 -0.1244
15476TIP3    H167843   0.948   0.713   4.889 -0.5624 -1.2881 -0.9743
15476TIP3    H267844   0.928   0.717   4.739 -1.0492  1.6085 -0.8814
15477TIP3   OH267845   6.574   0.083   0.003  0.1358  0.2343 -0.0137
15477TIP3    H167846   6.532   0.074   0.088  0.4300  0.7211  0.1885
15477TIP3    H267847   6.532   0.017  -0.052 -0.6237  0.4568  0.2882
15478TIP3   OH267848   4.034   2.536   4.434 -0.4274 -0.0048  0.5415
15478TIP3    H167849   3.984   2.599   4.384  0.3243  0.0182 -0.2008
15478TIP3    H267850   4.113   2.520   4.382 -0.7521 -1.8100  0.5352
15479TIP3   OH267851   4.114   0.529  11.269 -0.2803 -0.3786  0.4110
15479TIP3    H167852   4.142   0.564  11.354  0.1424 -0.2727  0.2320
15479TIP3    H267853   4.185   0.470  11.242  1.3438  2.2064 -1.4768
15480TIP3   OH267854   2.524   4.828  16.364 -0.2848 -0.7401 -0.0901
15480TIP3    H167855   2.492   4.858  16.448 -1.4016 -0.2705 -0.6658
15480TIP3    H267856   2.499   4.735  16.360  0.2017 -0.8918  0.2854
15481TIP3   OH267857   6.520   2.331   4.118  0.1685  0.6103 -0.3522
15481TIP3    H167858   6.435   2.351   4.078 -0.6876  1.1151  1.5749
15481TIP3    H267859   6.526   2.392   4.192  1.9941  0.2284 -0.1417
15482TIP3   OH267860   1.453   4.752  15.295  0.0784  0.2203 -0.1437
15482TIP3    H167861   1.536   4.759  15.342 -0.0651  0.6677  0.0457
15482TIP3    H267862   1.395   4.707  15.357  0.0351  0.3506 -0.0909
15483TIP3   OH267863   1.502   4.834  13.643  0.0210 -0.2366  0.0812
15483TIP3    H167864   1.461   4.775  13.706 -3.9672  0.7362 -1.3309
15483TIP3    H267865   1.590   4.798  13.631 -0.0473 -2.2091  3.8010
15484TIP3   OH267866   5.246   6.030  16.966  0.3209 -0.3302  0.1568
15484TIP3    H167867   5.294   6.074  16.895 -0.7846  0.7240  0.0346
15484TIP3    H267868   5.224   6.101  17.027 -1.9429 -0.6074 -0.2843
15485TIP3   OH267869   5.773   0.431  12.750  0.3309  0.0125 -0.0502
15485TIP3    H167870   5.690   0.430  12.797  1.3418 -1.4897  1.8711
15485TIP3    H267871   5.829   0.488  12.802  0.8882 -0.0459 -0.5734
15486TIP3   OH267872   0.050   1.500   4.335 -0.5850 -0.3546 -0.2142
15486TIP3    H167873   0.045   1.408   4.358  1.7917 -0.8399 -1.2669
15486TIP3    H267874   0.018   1.504   4.245  0.6800 -0.4434 -0.6875
15487TIP3   OH267875   6.243   0.893  12.685 -0.0199 -0.6247  0.2183
15487TIP3    H167876   6.191   0.942  12.621 -0.5344 -0.5310  0.6964
15487TIP3    H267877   6.321   0.866  12.637 -0.4036 -0.5691 -0.4538
15488TIP3   OH267878   2.855   3.496   1.605  0.1450 -0.1712  0.6044
15488TIP3    H167879   2.768   3.459   1.588  0.7162 -1.0466 -0.4977
15488TIP3    H267880   2.836   3.582   1.643 -1.2619  0.6095 -1.6179
15489TIP3   OH267881   1.407   1.994   3.677 -0.0185 -0.7265  0.3388
15489TIP3    H167882   1.500   2.012   3.687  0.1047 -0.7289 -0.7250
15489TIP3    H267883   1.397   1.971   3.585 -1.2883  0.5423  0.1396
15490TIP3   OH267884   5.063   3.431   3.304  0.0328  0.7531 -0.7182
15490TIP3    H167885   5.047   3.338   3.316  2.2472  0.6287  2.3583
15490TIP3    H267886   5.135   3.435   3.241 -0.8629  0.5199 -1.7973
15491TIP3   OH267887   2.487   2.688   0.988  0.1306  0.3973 -0.1553
15491TIP3    H167888   2.555   2.756   0.995 -0.4534  0.8861  1.0841
15491TIP3    H267889   2.415   2.722   1.041 -0.1965 -1.1540  0.4225
15492TIP3   OH267890   0.168   2.889  12.260  0.3415 -0.1840 -0.7606
15492TIP3    H167891   0.237   2.834  12.296 -1.0258 -0.9532  0.7732
15492TIP3    H267892   0.211   2.974  12.245  1.3625 -0.3104  1.1691
15493TIP3   OH267893   1.853   0.296  16.141 -0.0613 -0.0549  0.1780
15493TIP3    H167894   1.811   0.342  16.214  0.6278  3.5934 -1.4835
15493TIP3    H267895   1.928   0.351  16.118  2.3796 -3.3681 -0.5787
15494TIP3   OH267896   3.818   4.719   3.150  0.6793 -0.3104 -0.3318
15494TIP3    H167897   3.756   4.767   3.206 -1.6127 -1.6878 -1.5112
15494TIP3    H267898   3.834   4.778   3.077 -0.3024 -0.3988 -0.6413
15495TIP3   OH267899   4.154   0.529   5.779 -0.5032 -0.0582 -0.0184
15495TIP3    H167900   4.150   0.434   5.766  1.0359 -0.3976  1.5071
15495TIP3    H267901   4.228   0.557   5.726 -0.2737  0.0953  0.3752
15496TIP3   OH267902   6.091   1.005   2.317 -0.4140 -0.0331 -0.2051
15496TIP3    H167903   6.089   0.941   2.388 -0.0275  2.3995  2.2209
15496TIP3    H267904   6.082   0.954   2.237  1.8611 -3.2673  1.3831
15497TIP3   OH267905   1.311   0.425   3.353 -0.1438  0.0281  0.2886
15497TIP3    H167906   1.337   0.372   3.278 -0.1181  1.1873 -0.5539
15497TIP3    H267907   1.393   0.459   3.388 -0.0562 -1.4465  1.5903
15498TIP3   OH267908   3.865   1.262  15.751  0.2911  0.1165 -0.4690
15498TIP3    H167909   3.807   1.188  15.769  0.6657 -0.6097 -2.0576
15498TIP3    H267910   3.851   1.322  15.824 -0.8721 -1.0036  0.2677
15499TIP3   OH267911   6.239   6.495  14.666 -0.3224 -0.4953  0.6315
15499TIP3    H167912   6.169   6.432  14.654 -0.8010  0.3285 -1.1745
15499TIP3    H267913   6.315   6.456  14.623 -0.0895 -0.6777  1.1975
15500TIP3   OH267914   6.031   3.928  11.997  0.0418 -0.0156  0.2236
15500TIP3    H167915   6.029   3.860  12.064  1.0587  0.0511  0.3343
15500TIP3    H267916   5.978   3.999  12.033 -1.1336 -0.7721  0.0566
15501TIP3   OH267917   0.241   6.592   0.452  0.1742  0.8950 -0.4302
15501TIP3    H167918   0.242   6.612   0.546  1.5125  0.1838 -0.2577
15501TIP3    H267919   0.193   6.510   0.446 -0.0353  1.0147 -0.3800
15502TIP3   OH267920   2.136   5.347  14.619  0.0554  0.6019  0.0465
15502TIP3    H167921   2.111   5.276  14.560 -0.3501  0.4134  0.4481
15502TIP3    H267922   2.226   5.327  14.644 -0.3176 -0.1823  0.7729
15503TIP3   OH267923   5.786   2.021   0.357  0.3877 -0.5123  0.4064
15503TIP3    H167924   5.762   2.084   0.425 -1.1085 -0.3067 -0.2784
15503TIP3    H267925   5.778   2.070   0.275 -0.7649 -1.5646 -0.1422
15504TIP3   OH267926   6.386   1.009  12.355  0.5618 -0.1297 -0.2766
15504TIP3    H167927   6.473   1.047  12.359  0.5245 -0.1462  1.3936
15504TIP3    H267928   6.395   0.923  12.398 -0.3269 -0.0010  0.2027
15505TIP3   OH267929   6.252   0.893  17.005  0.8608  0.4048  0.3898
15505TIP3    H167930   6.210   0.940  17.077  1.7833  0.7801  0.6999
15505TIP3    H267931   6.201   0.813  16.995  1.2836 -0.1237  2.1239
15506TIP3   OH267932   0.933   2.524  14.062 -0.2020  0.5171 -0.0673
15506TIP3    H167933   0.849   2.498  14.024  0.0136 -1.0316  0.4381
15506TIP3    H267934   0.940   2.472  14.142  0.8864  1.2108  0.3115
15507TIP3   OH267935   0.241   6.668   5.467  0.2030  0.4635 -0.2652
15507TIP3    H167936   0.329   6.702   5.484  0.0501  0.6625  0.1473
15507TIP3    H267937   0.224   6.610   5.541  0.0181  0.3653 -0.3859
15508TIP3   OH267938   6.485   0.069  16.649  0.2108 -0.1866 -0.6672
15508TIP3    H167939   6.506   0.124  16.725 -0.1919 -0.3532 -0.4276
15508TIP3    H267940   6.410   0.017  16.678 -0.4341  0.2834 -1.4424
15509TIP3   OH267941   2.908   1.734  13.110  0.3075 -0.2002 -0.0589
15509TIP3    H167942   2.844   1.693  13.052  0.8881  1.0404 -1.6353
15509TIP3    H267943   2.988   1.737  13.059  1.5284 -1.2236  1.6894
15510TIP3   OH267944   4.178   4.345  11.525  0.3070  0.3219 -0.7150
15510TIP3    H167945   4.135   4.387  11.450  1.0457 -0.0451 -1.3614
15510TIP3    H267946   4.237   4.412  11.559  0.1755  0.3981 -0.6397
15511TIP3   OH267947   0.797   5.506   6.642 -0.4537 -0.6137  0.3851
15511TIP3    H167948   0.816   5.434   6.582 -0.0616  0.9936 -1.5474
15511TIP3    H267949   0.880   5.551   6.653 -1.1929  1.1419 -0.7327
15512TIP3   OH267950   2.038   6.539  15.762  0.3556  0.0359  0.6021
15512TIP3    H167951   2.079   6.464  15.805  0.9554  0.4965  0.8431
15512TIP3    H267952   2.107   6.575  15.705 -0.1216  0.0268  0.0050
15513TIP3   OH267953   2.870   5.108  15.020  0.9706  0.6544  0.2645
15513TIP3    H167954   2.795   5.084  14.965  1.7433  1.3894 -1.1706
15513TIP3    H267955   2.878   5.035  15.082  0.6518 -0.7009 -1.2169
15514TIP3   OH267956   5.272   1.723  16.323  0.3928 -0.3171 -0.3751
15514TIP3    H167957   5.330   1.798  16.328  0.6439 -0.5870  1.9265
15514TIP3    H267958   5.238   1.713  16.412 -1.4783 -1.5036 -1.1509
15515TIP3   OH267959   4.743   3.861   4.587 -0.1600 -0.3537  0.4008
15515TIP3    H167960   4.750   3.920   4.662 -0.1949 -0.4933  0.5155
15515TIP3    H267961   4.833   3.836   4.568  0.1049  1.5498 -1.1278
15516TIP3   OH267962   0.326   4.283   3.631 -0.7530  0.0463 -0.0415
15516TIP3    H167963   0.297   4.365   3.672 -0.7094  0.1102 -0.1383
15516TIP3    H267964   0.248   4.227   3.632 -0.6871 -0.0427  0.3502
15517TIP3   OH267965   2.060   5.995   3.348 -0.0697 -0.8444 -0.1362
15517TIP3    H167966   2.123   6.020   3.281 -1.0939  0.7904 -0.5437
15517TIP3    H267967   2.048   6.073   3.401 -1.9021 -1.0120 -0.2187
15518TIP3   OH267968   2.046   5.278  11.319  0.0108 -0.0490  0.3345
15518TIP3    H167969   1.998   5.197  11.304  2.3848 -1.4628 -0.1380
15518TIP3    H267970   2.138   5.251  11.320  0.8709  2.6397  0.2334
15519TIP3   OH267971   2.182   1.153  10.944 -0.0642  0.7293  0.1550
15519TIP3    H167972   2.175   1.077  10.887  0.2495  1.9076 -1.5355
15519TIP3    H267973   2.265   1.140  10.991 -2.0755 -2.1201  3.3370
15520TIP3   OH267974   3.799   6.431  12.434  0.1973 -0.3043 -0.0100
15520TIP3    H167975   3.863   6.389  12.491  1.5583 -0.6004 -1.6681
15520TIP3    H267976   3.717   6.425  12.482  1.5416  1.0457  2.7003
15521TIP3   OH267977   3.632   1.295  12.657 -0.7536  0.6468 -0.5765
15521TIP3    H167978   3.725   1.301  12.679 -0.7517  1.7321 -0.8337
15521TIP3    H267979   3.602   1.386  12.653 -2.0263  0.2947  0.3191
15522TIP3   OH267980   3.161   6.041   0.561 -0.0893  0.0317 -0.5188
15522TIP3    H167981   3.229   6.001   0.507 -0.9264  2.1854 -3.3769
15522TIP3    H267982   3.086   5.981   0.554  0.6232 -1.0338  0.5386
15523TIP3   OH267983   2.922   5.131  16.777  0.0284  0.2546 -0.0962
15523TIP3    H167984   2.906   5.217  16.738 -1.6981  0.6632  1.3401
15523TIP3    H267985   2.988   5.147  16.845  2.0711 -0.2201 -1.8433
15524TIP3   OH267986   1.099   5.436   1.028  0.2988 -0.5901  0.3936
15524TIP3    H167987   1.106   5.464   1.120  0.6089 -0.8490  0.4513
15524TIP3    H267988   1.031   5.369   1.029  2.5926 -3.0702  1.0493
15525TIP3   OH267989   0.904   3.499  14.390 -0.0499 -0.5302 -0.3354
15525TIP3    H167990   0.908   3.479  14.297  0.6319  0.8419 -0.6280
15525TIP3    H267991   0.949   3.583  14.399 -1.4263  0.1274  1.0042
15526TIP3   OH267992   2.492   6.486  11.521 -0.4110 -0.5565 -0.3735
15526TIP3    H167993   2.423   6.551  11.504  0.7778  0.6145 -0.8844
15526TIP3    H267994   2.501   6.439  11.438  0.4185  0.3164 -0.8035
15527TIP3   OH267995   4.720   5.798  15.536 -0.8567 -0.5172 -0.5000
15527TIP3    H167996   4.658   5.817  15.606  0.2934  0.0098  0.4153
15527TIP3    H267997   4.678   5.832  15.457 -1.4533  0.4226  0.1959
15528TIP3   OH267998   3.239   3.430  14.651  0.0354 -0.3932 -0.4433
15528TIP3    H167999   3.175   3.444  14.581 -1.0669 -0.6357  0.4913
15528TIP3    H268000   3.190   3.444  14.732  1.6367  1.3563  0.2907
15529TIP3   OH268001   2.681   0.212  12.323 -0.0915  0.2908  0.1083
15529TIP3    H168002   2.604   0.174  12.281 -0.8381  2.1032 -0.2838
15529TIP3    H268003   2.709   0.281  12.263  1.1735  0.4080  0.7914
15530TIP3   OH268004   4.576   0.345  13.186  0.1633  0.6540  0.6524
15530TIP3    H168005   4.645   0.288  13.220 -2.0646 -0.7547  3.1193
15530TIP3    H268006   4.517   0.286  13.139  0.5943  1.8647 -1.5865
15531TIP3   OH268007   4.108   1.534  14.659  0.1628  0.0074 -0.5135
15531TIP3    H168008   4.088   1.564  14.571 -0.0423  0.2893 -0.3751
15531TIP3    H268009   4.199   1.562  14.674  1.3976 -2.9095 -1.8338
15532TIP3   OH268010   0.237   5.427  11.871 -0.5607  0.2023 -0.1447
15532TIP3    H168011   0.299   5.408  11.801 -0.1795  0.0023  0.2424
15532TIP3    H268012   0.157   5.455  11.826 -1.0231 -1.8769 -0.7325
15533TIP3   OH268013   3.468   0.766  11.370 -0.5346  0.1352 -0.0864
15533TIP3    H168014   3.548   0.783  11.320 -0.5406  2.0586  0.4684
15533TIP3    H268015   3.399   0.809  11.319 -1.3292 -1.8165 -0.7536
15534TIP3   OH268016   6.471   0.363   4.975  0.2693  0.0636 -0.3216
15534TIP3    H168017   6.431   0.427   5.034  0.4274  1.0403 -1.2477
15534TIP3    H268018   6.441   0.278   5.008  1.3240  0.4834  1.8934
15535TIP3   OH268019   4.957   2.365   2.870 -0.2609 -0.2929  0.3340
15535TIP3    H168020   4.999   2.450   2.879  0.8010 -0.8462  0.8196
15535TIP3    H268021   4.941   2.337   2.961 -2.2492  0.1513  0.1707
15536TIP3   OH268022   4.277   6.026  17.162 -0.1112  0.4600  1.0210
15536TIP3    H168023   4.296   6.018  17.068 -1.8684 -3.5727  0.7869
15536TIP3    H268024   4.363   6.025  17.204  0.6649 -1.0681 -0.4744
15537TIP3   OH268025   2.913   3.496   3.377  0.2791 -0.4113 -0.2401
15537TIP3    H168026   2.953   3.410   3.387  0.2437 -0.6615 -1.9139
15537TIP3    H268027   2.870   3.493   3.291 -1.3712  0.6277  0.4894
15538TIP3   OH268028   5.620   0.436   5.229  0.5153 -0.0163 -0.1675
15538TIP3    H168029   5.632   0.516   5.178 -0.8347 -0.0145 -0.5095
15538TIP3    H268030   5.525   0.426   5.236  0.6373 -1.9346 -0.6882
15539TIP3   OH268031   4.907   0.288   2.000 -0.0986 -0.6105 -0.1541
15539TIP3    H168032   4.948   0.374   2.010 -1.9138  0.2076  0.6805
15539TIP3    H268033   4.939   0.237   2.074  0.6248 -0.5100 -0.3923
15540TIP3   OH268034   5.177   2.973   3.272  0.0359 -0.3392  0.1464
15540TIP3    H168035   5.271   2.982   3.286 -0.1619  0.5590  0.9416
15540TIP3    H268036   5.137   3.014   3.348 -1.0095 -0.6626 -0.2114
15541TIP3   OH268037   6.381   5.380   0.566  0.5157 -0.0112 -0.2415
15541TIP3    H168038   6.343   5.293   0.571  2.1189 -0.7388 -0.1335
15541TIP3    H268039   6.317   5.437   0.609 -0.9924 -0.9543 -1.1537
15542TIP3   OH268040   4.027   4.954   2.657 -0.0914  0.9410  0.3508
15542TIP3    H168041   4.003   4.969   2.748 -1.9199 -0.7990  0.2191
15542TIP3    H268042   3.964   5.006   2.607  0.5677  1.4636  0.0405
15543TIP3   OH268043   5.366   5.229  13.445 -0.2652 -0.8242 -0.1591
15543TIP3    H168044   5.416   5.177  13.382  0.3079  0.8587 -1.1362
15543TIP3    H268045   5.397   5.198  13.530  2.1823 -0.1472 -0.7303
15544TIP3   OH268046   3.617   1.130   4.966  0.3216 -0.3667  0.0660
15544TIP3    H168047   3.657   1.043   4.970  3.5928  0.9735 -0.1187
15544TIP3    H268048   3.616   1.160   5.057 -0.5332 -0.4519  0.0936
15545TIP3   OH268049   4.213   4.522   5.759  0.2953 -0.1015 -0.1289
15545TIP3    H168050   4.265   4.455   5.804  0.3921  1.6422  2.5666
15545TIP3    H268051   4.155   4.557   5.826 -1.4407  0.8959 -2.0506
15546TIP3   OH268052   1.798   2.751  15.999  0.0496 -0.1204 -0.1240
15546TIP3    H168053   1.710   2.767  15.966  1.0947  1.1099 -2.5632
15546TIP3    H268054   1.820   2.663  15.969 -0.9585 -1.2163  2.1223
15547TIP3   OH268055   6.615   0.997  15.370 -0.1123  0.3067 -0.4290
15547TIP3    H168056   6.648   1.071  15.319  2.3357 -0.7793 -0.5724
15547TIP3    H268057   6.590   1.034  15.454  0.3988  1.3845 -0.7361
15548TIP3   OH268058   4.329   1.088  12.927 -0.2940  0.4022 -0.4154
15548TIP3    H168059   4.417   1.102  12.962 -0.2064 -1.6642  0.3150
15548TIP3    H268060   4.343   1.046  12.842 -0.5540 -0.1561 -0.1886
15549TIP3   OH268061   5.908   3.500   3.749 -0.1096  0.0037 -0.2771
15549TIP3    H168062   5.949   3.537   3.671 -0.8554 -1.8183 -1.6078
15549TIP3    H268063   5.858   3.424   3.717 -3.5335  1.3227  1.3762
15550TIP3   OH268064   0.054   3.577  16.532  0.1113 -0.1210  0.2347
15550TIP3    H168065   0.145   3.572  16.559  0.8479  2.6757 -1.2899
15550TIP3    H268066   0.008   3.609  16.610  0.5323 -0.8686  0.8018
15551TIP3   OH268067   0.907   0.767   3.732  0.4183 -1.0973 -0.2345
15551TIP3    H168068   0.973   0.763   3.801  1.0979  1.1678 -0.6649
15551TIP3    H268069   0.935   0.702   3.668  2.6234  0.1894 -0.6694
15552TIP3   OH268070   5.849   0.013  15.766  0.4472  0.1813  0.1538
15552TIP3    H168071   5.815  -0.040  15.837  1.6864  0.6548  1.1300
15552TIP3    H268072   5.798  -0.014  15.689 -0.0134 -1.2699  0.9360
15553TIP3   OH268073   5.527   3.501  14.100  0.2884  0.0060 -0.5233
15553TIP3    H168074   5.576   3.478  14.180 -1.3209 -0.4244  0.3806
15553TIP3    H268075   5.539   3.596  14.092 -0.1582  0.1831  0.6867
15554TIP3   OH268076   0.965   3.041   4.018 -0.1104 -0.2292 -0.6156
15554TIP3    H168077   1.043   3.045   3.962  1.0973  1.4097  1.0702
15554TIP3    H268078   0.933   2.951   4.006  0.5305 -0.2044 -3.2542
15555TIP3   OH268079   0.739   2.764  12.398  0.1072 -0.2553 -0.5887
15555TIP3    H168080   0.667   2.816  12.436  0.0217 -1.2369  0.6663
15555TIP3    H268081   0.715   2.753  12.306 -0.6403  0.6179 -0.5165
15556TIP3   OH268082   0.033   1.252  13.250 -0.3212 -0.5894  0.7271
15556TIP3    H168083   0.041   1.313  13.323  2.4522 -1.5133  1.2896
15556TIP3    H268084  -0.019   1.300  13.185  1.8176  2.4945  1.0643
15557TIP3   OH268085   5.540   6.440  16.222 -0.3872  0.1833 -0.3610
15557TIP3    H168086   5.466   6.476  16.271 -0.6131  0.8067 -1.1555
15557TIP3    H268087   5.615   6.492  16.251  0.5380 -2.6197  3.1181
15558TIP3   OH268088   4.685   3.639   6.522  0.2001 -0.0928  0.0442
15558TIP3    H168089   4.696   3.583   6.599 -0.2277 -1.5007 -0.8647
15558TIP3    H268090   4.772   3.646   6.484  0.5335  1.1555  0.9976
15559TIP3   OH268091   0.241   0.670   4.278  0.5468  0.4423 -0.5408
15559TIP3    H168092   0.191   0.645   4.201 -1.1651  0.5162  0.4806
15559TIP3    H268093   0.303   0.599   4.292 -0.4364 -0.5036 -0.8873
15560TIP3   OH268094   0.308   3.511  16.628 -0.1194  0.2442 -0.7877
15560TIP3    H168095   0.357   3.456  16.689 -1.0031 -0.2283 -0.4843
15560TIP3    H268096   0.367   3.523  16.554  0.9973  0.8674  0.1565
15561TIP3   OH268097   0.316   1.937  10.736  0.1248  0.5247  0.4074
15561TIP3    H168098   0.316   2.032  10.750  2.8624  0.2607  3.2045
15561TIP3    H268099   0.262   1.902  10.808 -0.1921 -0.0897 -0.1198
15562TIP3   OH268100   2.613   5.678   6.659  0.0402  0.4120 -0.2131
15562TIP3    H168101   2.526   5.717   6.667 -0.1899 -0.3048  1.1141
15562TIP3    H268102   2.668   5.748   6.626 -0.4451  1.7347  1.6910
15563TIP3   OH268103   5.490   5.413  12.534  0.3956 -0.3420  0.0699
15563TIP3    H168104   5.551   5.477  12.496 -1.1504  1.8139  0.9765
15563TIP3    H268105   5.490   5.340  12.472  2.2745  0.4934 -1.0252
15564TIP3   OH268106   2.050   2.036  15.470 -0.7236  0.2584 -0.5522
15564TIP3    H168107   2.024   2.045  15.378  0.6065 -0.4633 -1.0234
15564TIP3    H268108   1.995   1.966  15.503 -0.3666 -0.3165 -1.1528
15565TIP3   OH268109   6.147   6.120   3.572  0.8593 -0.0492  0.4535
15565TIP3    H168110   6.088   6.122   3.647 -0.1807 -2.0678 -0.2389
15565TIP3    H268111   6.222   6.174   3.598 -0.6280  1.3831  1.9066
15566TIP3   OH268112   1.952   0.535  14.372 -0.0428 -0.2617 -0.1295
15566TIP3    H168113   1.987   0.559  14.458  0.1943  1.1584 -0.5894
15566TIP3    H268114   2.020   0.480  14.333  0.8140  0.8315 -0.2295
15567TIP3   OH268115   3.145   1.361  13.639  0.0298 -0.0379 -0.1449
15567TIP3    H168116   3.177   1.440  13.596 -2.1658  0.4805 -0.9722
15567TIP3    H268117   3.158   1.377  13.732 -1.9643  2.1049 -0.1543
15568TIP3   OH268118   0.902   2.710   2.981  0.8136 -0.0535  0.1338
15568TIP3    H168119   0.969   2.730   3.046  1.0566  1.6011 -0.5653
15568TIP3    H268120   0.828   2.765   3.005  0.7743  0.2992 -0.7612
15569TIP3   OH268121   3.142   2.610   5.889 -0.0159 -0.2964  0.0879
15569TIP3    H168122   3.113   2.674   5.954 -1.5814 -0.4246 -0.4529
15569TIP3    H268123   3.230   2.586   5.917 -0.3149  0.3254  1.6492
15570TIP3   OH268124   6.363   6.422  15.303 -0.1824  0.0092  0.0650
15570TIP3    H168125   6.322   6.419  15.390  1.2465 -0.6236  0.7474
15570TIP3    H268126   6.376   6.515  15.285 -0.8254  0.1599  0.3463
15571TIP3   OH268127   3.490   0.382  13.654 -0.0619  0.5432 -0.0029
15571TIP3    H168128   3.488   0.315  13.585  1.0507  0.0281  0.4386
15571TIP3    H268129   3.493   0.465  13.607  2.1022  0.1718 -0.6626
15572TIP3   OH268130   3.676   2.779   5.181 -0.3482  0.4152 -0.3697
15572TIP3    H168131   3.765   2.747   5.165 -0.0775  0.4506  0.9376
15572TIP3    H268132   3.626   2.700   5.203 -0.2909  0.5529  0.2918
15573TIP3   OH268133   0.097   0.509   5.948 -0.2614 -0.0396  0.3362
15573TIP3    H168134   0.139   0.426   5.927 -2.4402 -1.6382  1.8277
15573TIP3    H268135   0.132   0.532   6.034  2.6729  2.3552 -1.2924
15574TIP3   OH268136   3.305   3.255  11.418 -0.3389  0.3741  0.1235
15574TIP3    H168137   3.391   3.219  11.439 -0.4921 -0.3793 -0.4898
15574TIP3    H268138   3.306   3.343  11.455  0.3360  0.0217  0.9702
15575TIP3   OH268139   3.342   1.434  14.636 -0.2135  0.0233  0.2228
15575TIP3    H168140   3.296   1.358  14.669  0.9908 -1.5428 -1.4765
15575TIP3    H268141   3.363   1.486  14.714  0.5550 -2.3193  1.6682
15576TIP3   OH268142   4.898   4.083  11.164  0.4045 -1.3824 -0.1928
15576TIP3    H168143   4.959   4.127  11.105  1.4013 -1.8477  0.4495
15576TIP3    H268144   4.954   4.028  11.219  0.1857  2.0644  4.0837
15577TIP3   OH268145   4.604   1.889   3.011 -0.1852 -0.0930 -0.0595
15577TIP3    H168146   4.512   1.915   3.006 -0.3856 -0.4270  1.2554
15577TIP3    H268147   4.627   1.861   2.923 -1.1939  0.4801 -0.5166
15578TIP3   OH268148   1.740   0.316  13.012  0.2396 -0.3480  0.5476
15578TIP3    H168149   1.653   0.322  13.049 -0.3650  1.9536 -1.0099
15578TIP3    H268150   1.799   0.329  13.086 -0.8412  1.5417  1.1291
15579TIP3   OH268151   2.657   4.809  14.490  0.3145 -0.9594 -0.8259
15579TIP3    H168152   2.632   4.801  14.397  0.8439  0.2952 -1.0889
15579TIP3    H268153   2.638   4.899  14.513 -1.1424 -1.6094  0.7221
15580TIP3   OH268154   1.279   6.555   3.985 -0.2060  0.1200 -0.0098
15580TIP3    H168155   1.243   6.632   3.941  0.1137  0.0878 -0.3396
15580TIP3    H268156   1.372   6.555   3.960 -0.0774 -0.0522  0.4509
15581TIP3   OH268157   6.615   2.376  15.232 -0.4684 -0.3668  0.2295
15581TIP3    H168158   6.707   2.398  15.246 -0.6337 -0.0563  0.8549
15581TIP3    H268159   6.609   2.360  15.138 -0.1441  1.3713 -0.1198
15582TIP3   OH268160   4.100   4.365  15.544 -0.7974 -0.1617  0.0220
15582TIP3    H168161   4.182   4.409  15.564 -1.6105  1.5975 -0.3159
15582TIP3    H268162   4.112   4.275  15.576  0.9647  0.2638  0.6458
15583TIP3   OH268163   0.271   4.858   3.778 -0.0794  0.2378 -0.1995
15583TIP3    H168164   0.258   4.953   3.783  0.7687  0.3342  0.2618
15583TIP3    H268165   0.268   4.838   3.684  1.0188  0.9081 -0.3915
15584TIP3   OH268166   2.669   4.943   0.841 -0.3622  0.0869 -0.1345
15584TIP3    H168167   2.655   4.912   0.752 -1.7646 -2.4392  0.8634
15584TIP3    H268168   2.616   5.022   0.848 -0.8254 -0.1012 -1.3161
15585TIP3   OH268169   6.126   0.604   2.300  0.2370  0.2586 -0.3154
15585TIP3    H168170   6.057   0.542   2.275 -1.6488  1.5195  1.4517
15585TIP3    H268171   6.186   0.553   2.354 -0.2569 -0.4479 -0.4148
15586TIP3   OH268172   0.271   1.122  12.634 -0.0923  1.3733  0.5365
15586TIP3    H168173   0.222   1.198  12.666 -0.2610  1.7584 -0.5831
15586TIP3    H268174   0.350   1.159  12.594 -0.6744  1.0721 -0.9593
15587TIP3   OH268175   1.903   5.702  15.288 -0.8468 -0.6897 -0.6654
15587TIP3    H168176   1.926   5.795  15.294  2.0024 -1.3045 -0.6145
15587TIP3    H268177   1.882   5.688  15.196  3.9069 -0.9060 -1.9495
15588TIP3   OH268178   4.716   4.396  13.402 -0.0613 -0.0277 -0.2960
15588TIP3    H168179   4.648   4.427  13.462 -1.1915 -2.8606  0.0362
15588TIP3    H268180   4.789   4.372  13.459 -0.2365 -0.4825 -0.2541
15589TIP3   OH268181   5.865   4.722   2.135  0.3555  0.0409  0.3126
15589TIP3    H168182   5.802   4.793   2.122 -1.7475 -1.6495  0.7879
15589TIP3    H268183   5.949   4.767   2.147 -0.7166  2.3842 -0.3840
15590TIP3   OH268184   2.290   6.568  13.611  0.1929 -0.2079  0.5066
15590TIP3    H168185   2.272   6.515  13.688  1.6666  0.7247  1.5434
15590TIP3    H268186   2.257   6.655  13.633  0.4576  0.0277 -0.0067
15591TIP3   OH268187   5.291   6.479  16.755 -0.0560  0.3428 -0.8199
15591TIP3    H168188   5.366   6.428  16.784 -1.0913 -0.6998  0.1319
15591TIP3    H268189   5.267   6.533  16.830 -2.2523 -1.7752  0.1170
15592TIP3   OH268190   0.742   0.968   2.989  0.3420  0.4532  0.4168
15592TIP3    H168191   0.699   0.994   2.907 -0.8903  0.4350  1.0367
15592TIP3    H268192   0.670   0.944   3.047  1.2944 -2.8739  0.4101
15593TIP3   OH268193   2.615   1.242   5.425  0.2247  0.0473 -0.0487
15593TIP3    H168194   2.551   1.312   5.409  1.6441  1.3887 -0.0430
15593TIP3    H268195   2.647   1.219   5.338  0.2661 -0.1305  0.0122
15594TIP3   OH268196   2.678   3.205   3.220  0.3053 -0.8081 -0.0455
15594TIP3    H168197   2.722   3.289   3.211 -0.7128  0.0029  1.8823
15594TIP3    H268198   2.749   3.141   3.221  1.2189  0.1743  0.0161
15595TIP3   OH268199   6.622   3.085  12.416 -0.1111  0.3835  0.2786
15595TIP3    H168200   6.586   3.163  12.373  0.4143  1.1085  1.1269
15595TIP3    H268201   6.545   3.032  12.435 -0.6902  1.5648  1.3832
15596TIP3   OH268202   5.533   4.213  14.986 -0.0128 -0.4243 -0.4511
15596TIP3    H168203   5.489   4.213  14.901  0.0280 -1.3643 -0.4913
15596TIP3    H268204   5.471   4.169  15.045  0.4746 -0.9142 -0.2925
15597TIP3   OH268205   0.784   0.292   3.201  0.1258 -0.5804  0.4693
15597TIP3    H168206   0.784   0.355   3.129 -0.3404 -0.1051  0.8727
15597TIP3    H268207   0.838   0.333   3.268 -0.3871 -0.4904  0.8318
15598TIP3   OH268208   1.090   6.082  11.839  0.0847 -0.2382 -0.7142
15598TIP3    H168209   1.095   6.101  11.746 -1.5456 -2.8781 -1.4611
15598TIP3    H268210   1.021   6.139  11.872  0.1477  0.1635 -1.2658
15599TIP3   OH268211   0.617   6.532   1.573 -0.3668 -0.5143 -0.0715
15599TIP3    H168212   0.588   6.547   1.663 -1.6797  0.4941 -0.6247
15599TIP3    H268213   0.688   6.595   1.561 -1.6015  0.9054 -0.3592
15600TIP3   OH268214   0.409   1.476  13.391  0.2262  0.0747 -0.1250
15600TIP3    H168215   0.391   1.513  13.305  0.3094  0.3756 -0.0170
15600TIP3    H268216   0.472   1.406  13.375 -0.3634 -0.4033 -0.4002
15601TIP3   OH268217   2.594   6.425   5.707  0.6879 -0.0273  0.1086
15601TIP3    H168218   2.551   6.506   5.735 -0.2139 -0.9593  1.6215
15601TIP3    H268219   2.521   6.367   5.683  1.2795 -0.6009 -0.3212
15602TIP3   OH268220   0.633   3.547   4.614 -0.4279  0.1613  0.0801
15602TIP3    H168221   0.644   3.477   4.549  0.0058 -0.4910  0.8467
15602TIP3    H268222   0.593   3.619   4.565  0.0596 -0.2555 -0.9512
15603TIP3   OH268223   4.743   4.998  14.099 -0.0487  0.0881 -0.2616
15603TIP3    H168224   4.771   4.907  14.106  3.4117  0.9854 -0.5011
15603TIP3    H268225   4.786   5.042  14.173  0.6354  1.9620 -1.6879
15604TIP3   OH268226   1.791   2.815  12.818 -0.4587  0.2169 -0.3446
15604TIP3    H168227   1.840   2.832  12.898 -1.1807 -3.2707  1.0119
15604TIP3    H268228   1.858   2.793  12.753 -0.0061  0.4709  0.0341
15605TIP3   OH268229   4.724   5.480   2.956  0.0070  0.0336  0.2337
15605TIP3    H168230   4.658   5.415   2.981 -0.5194 -0.7391 -2.6707
15605TIP3    H268231   4.800   5.462   3.011 -1.0132 -1.3462  1.2409
15606TIP3   OH268232   3.684   0.243  16.604 -0.0395  0.3847  0.1893
15606TIP3    H168233   3.700   0.302  16.530  0.2106  1.3377  0.9794
15606TIP3    H268234   3.699   0.297  16.682 -1.5231 -0.2428  0.9557
15607TIP3   OH268235   2.837   2.369  10.671  0.3404  0.2522  0.1285
15607TIP3    H168236   2.839   2.313  10.593  2.6134 -0.1259  0.3958
15607TIP3    H268237   2.803   2.453  10.639  1.1416  0.0765 -1.2574
15608TIP3   OH268238   6.307   1.417  10.740  0.1462 -0.1173  0.5111
15608TIP3    H168239   6.382   1.363  10.763  0.0441 -1.1197 -1.3223
15608TIP3    H268240   6.231   1.362  10.757 -0.1307  0.4869  1.2980
15609TIP3   OH268241   1.712   4.558   1.914 -0.1276 -0.0187 -0.5100
15609TIP3    H168242   1.677   4.543   2.001  1.3465 -3.2514 -0.3203
15609TIP3    H268243   1.794   4.606   1.929 -0.5023  0.5513 -0.2605
15610TIP3   OH268244   3.763   4.852   0.455 -0.5776  0.7936  0.3437
15610TIP3    H168245   3.797   4.876   0.541 -0.6446  2.4458 -0.0662
15610TIP3    H268246   3.708   4.926   0.428 -1.4345 -0.1590 -0.6612
15611TIP3   OH268247   3.272   6.068   4.518  0.2363  0.3407 -0.4024
15611TIP3    H168248   3.283   6.128   4.444  1.1531 -1.9452 -2.2458
15611TIP3    H268249   3.332   6.101   4.585  1.9721  0.5520 -2.0055
15612TIP3   OH268250   0.535   5.893   2.941 -0.1185 -0.8019 -0.1697
15612TIP3    H168251   0.584   5.823   2.897  1.2985  0.0188  0.0614
15612TIP3    H268252   0.450   5.893   2.896  0.7544 -0.9738 -1.9400
15613TIP3   OH268253   5.402   1.815  10.866  0.0577  0.1907 -0.2181
15613TIP3    H168254   5.436   1.736  10.825 -0.5036  0.9133 -2.2078
15613TIP3    H268255   5.444   1.818  10.952  2.1301 -0.8651 -1.1234
15614TIP3   OH268256   1.653   5.671   5.728  0.2439  0.0138 -0.0220
15614TIP3    H168257   1.657   5.586   5.684  0.4066 -0.2202  0.4473
15614TIP3    H268258   1.665   5.734   5.657  1.9770 -0.3944 -0.1310
15615TIP3   OH268259   3.034   3.696  12.807  0.0048  0.1264  0.0601
15615TIP3    H168260   3.124   3.665  12.815  0.2812  0.7967 -0.3220
15615TIP3    H268261   3.038   3.763  12.738 -0.2187  2.2387  1.9923
15616TIP3   OH268262   6.254   5.628   1.544 -0.0111 -0.3321  0.5151
15616TIP3    H168263   6.175   5.656   1.590  0.1432  0.7976  0.1352
15616TIP3    H268264   6.277   5.703   1.488  1.1867 -0.7280  0.4419
15617TIP3   OH268265   2.822   2.547   2.608  0.0821 -0.3241  0.5617
15617TIP3    H168266   2.776   2.612   2.554  0.7016 -0.5111 -0.2092
15617TIP3    H268267   2.913   2.575   2.608  0.3736 -1.2351  0.1479
15618TIP3   OH268268   1.239   5.047  11.756 -0.5407  0.0543 -0.2870
15618TIP3    H168269   1.214   4.957  11.779 -1.4383  0.1928 -0.6743
15618TIP3    H268270   1.315   5.066  11.812 -1.4274 -0.3124  1.0794
15619TIP3   OH268271   0.671   5.392   4.008  0.2406 -0.1878 -0.4750
15619TIP3    H168272   0.698   5.309   3.969  1.0845  1.1110 -2.8715
15619TIP3    H268273   0.620   5.436   3.940 -2.1513  0.3951  1.5183
15620TIP3   OH268274   4.210   0.428   2.916  0.0745 -0.1661  0.3503
15620TIP3    H168275   4.181   0.490   2.849 -0.5821  0.6920  1.3938
15620TIP3    H268276   4.305   0.426   2.908  0.1208  1.1873  0.4693
15621TIP3   OH268277   0.664   5.843   3.887 -0.4444 -0.2033  0.4805
15621TIP3    H168278   0.642   5.779   3.955  0.1331  1.1320  1.9835
15621TIP3    H268279   0.751   5.816   3.856 -0.4449 -0.4590  0.7028
15622TIP3   OH268280   5.753   1.540   5.635  0.1112  0.0729 -0.2596
15622TIP3    H168281   5.793   1.595   5.568 -1.3744  0.0961 -1.1683
15622TIP3    H268282   5.733   1.458   5.591 -0.7272  0.0251  0.1824
15623TIP3   OH268283   3.394   2.474   0.248 -1.0292  0.2053 -0.2835
15623TIP3    H168284   3.439   2.425   0.317  1.8411  1.2329 -1.2857
15623TIP3    H268285   3.318   2.513   0.291  0.9118  1.2071  2.4751
15624TIP3   OH268286   6.669   4.230   4.351 -0.3468 -0.5968 -0.5261
15624TIP3    H168287   6.755   4.267   4.373 -0.7189  1.5379 -2.2886
15624TIP3    H268288   6.615   4.307   4.331 -2.5532 -1.9071  0.0586
15625TIP3   OH268289   5.323   5.749   5.629 -0.0946 -0.1134  0.0664
15625TIP3    H168290   5.239   5.718   5.665  0.5626 -1.4396  0.5133
15625TIP3    H268291   5.298   5.817   5.566 -1.5041 -0.4015  0.2760
15626TIP3   OH268292   5.439   0.580   3.805  0.3986  0.0110 -0.3728
15626TIP3    H168293   5.463   0.611   3.892 -1.9898 -2.5582  1.3929
15626TIP3    H268294   5.504   0.513   3.784 -0.8063 -1.7545  1.1009
15627TIP3   OH268295   0.445   6.111   2.408  0.5179 -0.0065  0.1973
15627TIP3    H168296   0.382   6.180   2.388  0.6518 -0.2532 -1.1621
15627TIP3    H268297   0.445   6.105   2.504  0.4022  1.7589  0.3313
15628TIP3   OH268298   4.797   5.967   5.672 -1.0263  0.7121 -0.4413
15628TIP3    H168299   4.766   5.986   5.584  1.0038  0.0339 -1.3659
15628TIP3    H268300   4.848   6.045   5.697 -0.7378  0.4716 -0.2793
15629TIP3   OH268301   0.514   0.234   3.692 -0.4231 -1.0980  0.0634
15629TIP3    H168302   0.594   0.215   3.740 -0.3552 -1.7753 -0.3129
15629TIP3    H268303   0.542   0.248   3.601 -0.5040  0.5333  0.2573
15630TIP3   OH268304   2.513   5.118   0.364 -0.7384  0.3659  0.1756
15630TIP3    H168305   2.517   5.140   0.271  0.1266  0.2073  0.1683
15630TIP3    H268306   2.524   5.023   0.366  0.9982  0.5425  0.5326
15631TIP3   OH268307   6.043   2.485   3.819 -0.3040  0.0694  0.1201
15631TIP3    H168308   6.086   2.553   3.768 -0.3161  1.1993  1.5292
15631TIP3    H268309   6.107   2.415   3.825 -0.4520 -0.2603 -1.7348
15632TIP3   OH268310   3.180   4.563  12.438  0.4082 -0.0770 -0.2841
15632TIP3    H168311   3.226   4.636  12.480 -0.4682  0.0409  0.5131
15632TIP3    H268312   3.100   4.601  12.403  0.6721 -0.3714 -1.2201
15633TIP3   OH268313   4.344   6.367   5.866  0.0082  0.2395 -0.0743
15633TIP3    H168314   4.249   6.368   5.873  0.0617  0.4673  0.6300
15633TIP3    H268315   4.372   6.453   5.897  0.4946 -0.1219  0.4940
15634TIP3   OH268316   5.037   0.517   6.299  0.3909 -0.3696 -0.3214
15634TIP3    H168317   5.072   0.599   6.333  0.2005 -0.9865  1.5330
15634TIP3    H268318   5.114   0.466   6.274  0.6450 -0.3654  0.4087
15635TIP3   OH268319   1.045   2.766  12.051  0.8836 -0.1669  0.4182
15635TIP3    H168320   0.986   2.774  11.976  1.4492 -1.5609 -0.2038
15635TIP3    H268321   0.992   2.791  12.127  0.3326  1.3767 -0.4384
15636TIP3   OH268322   2.545   0.941   3.405  0.2648  0.1394 -0.2910
15636TIP3    H168323   2.568   0.916   3.494  1.3622 -0.3039 -0.6760
15636TIP3    H268324   2.580   0.870   3.350 -0.4075  0.3907 -1.0700
15637TIP3   OH268325   5.436   2.324   1.730  0.2499 -0.1509  0.5656
15637TIP3    H168326   5.446   2.419   1.726  0.4722 -0.1495  0.9779
15637TIP3    H268327   5.392   2.308   1.814 -1.1557 -0.3221 -0.1822
15638TIP3   OH268328   6.342   5.230  15.830  0.2291  0.9467 -0.2765
15638TIP3    H168329   6.257   5.252  15.869 -0.3450  1.5331 -1.7561
15638TIP3    H268330   6.363   5.144  15.865 -0.8800  0.8881  0.2841
15639TIP3   OH268331   3.340   0.278   5.936 -0.1357  0.0170 -0.6294
15639TIP3    H168332   3.397   0.301   6.009  1.5120  1.4182 -2.2560
15639TIP3    H268333   3.259   0.248   5.977  0.8953  0.2811  1.7502
15640TIP3   OH268334   0.966   5.092   1.509 -0.4117  0.1373  0.0484
15640TIP3    H168335   1.036   5.032   1.484  0.7405  1.1209  0.7757
15640TIP3    H268336   0.951   5.144   1.431 -1.6171 -1.2441 -0.6771
15641TIP3   OH268337   4.119   1.492  12.300  0.3015  0.1158  0.1237
15641TIP3    H168338   4.092   1.432  12.230 -0.5862  0.1221  0.4432
15641TIP3    H268339   4.115   1.438  12.380  1.3275  0.1022  0.1807
15642TIP3   OH268340   2.233   4.454  13.242 -0.2401  0.9031  0.8315
15642TIP3    H168341   2.154   4.404  13.219  0.4434 -0.7325  1.8641
15642TIP3    H268342   2.292   4.390  13.280  2.4716  1.6555 -1.7641
15643TIP3   OH268343   2.884   0.242   4.653 -0.0948  0.8358  0.4246
15643TIP3    H168344   2.849   0.267   4.567  0.6809  0.2086 -0.0878
15643TIP3    H268345   2.816   0.188   4.692 -0.1677  0.5511 -0.0900
15644TIP3   OH268346   4.273   1.501   4.963  0.3189  0.3553 -0.2819
15644TIP3    H168347   4.318   1.580   4.995  0.9897  0.0676 -0.4938
15644TIP3    H268348   4.338   1.458   4.908 -1.2618  1.7303 -3.5477
15645TIP3   OH268349   6.105   3.393   0.862 -0.7650 -0.0777  0.2230
15645TIP3    H168350   6.130   3.340   0.787 -1.3822  0.1975 -0.1842
15645TIP3    H268351   6.031   3.445   0.832  0.8798  2.3258  0.0315
15646TIP3   OH268352   5.863   0.812  16.145  0.4761 -0.1811 -0.3824
15646TIP3    H168353   5.801   0.830  16.215  0.8465 -0.9787  0.1597
15646TIP3    H268354   5.823   0.852  16.067 -0.7603 -0.7473 -0.0688
15647TIP3   OH268355   5.767   0.433  15.126 -0.1607  0.1557  0.2161
15647TIP3    H168356   5.731   0.448  15.038 -2.1002  0.0004  0.9365
15647TIP3    H268357   5.788   0.340  15.127 -2.6771 -0.5043  0.7015
15648TIP3   OH268358   2.890   0.144  10.515 -0.0733  0.1725  0.2825
15648TIP3    H168359   2.800   0.155  10.544 -0.3495  0.0135 -0.4857
15648TIP3    H268360   2.941   0.200  10.573 -0.5315 -0.5031  1.3792
15649TIP3   OH268361   2.213   2.061  12.365  0.3067 -0.7741 -0.0741
15649TIP3    H168362   2.218   1.974  12.325  1.6288 -0.1221 -1.4440
15649TIP3    H268363   2.245   2.120  12.297 -0.5369  0.7999  0.8370
15650TIP3   OH268364   1.608   3.079  16.479  0.0258 -0.1584 -0.2603
15650TIP3    H168365   1.654   3.134  16.415 -0.1363 -0.3047 -0.5008
15650TIP3    H268366   1.545   3.029  16.428 -1.5777  1.2383  0.2510
15651TIP3   OH268367   5.519   2.373  14.265  0.2210  0.3838  0.3080
15651TIP3    H168368   5.574   2.358  14.342  3.5790  0.5900 -1.8299
15651TIP3    H268369   5.507   2.286  14.226 -0.2806  0.4387  0.3406
15652TIP3   OH268370   3.749   0.452  12.224  0.3231 -0.2300  0.2152
15652TIP3    H168371   3.704   0.515  12.168  2.4984  0.8975 -0.3844
15652TIP3    H268372   3.716   0.367  12.196 -2.9864  0.5750  1.3156
15653TIP3   OH268373   0.969   2.785   5.763 -0.3377 -0.3071  0.1818
15653TIP3    H168374   0.902   2.780   5.831 -1.4883  1.1647 -0.7714
15653TIP3    H268375   1.050   2.803   5.809 -1.2882  1.8501  1.1074
15654TIP3   OH268376   4.517   1.410  15.172 -0.1296  0.0238  0.4147
15654TIP3    H168377   4.567   1.444  15.246  1.8982 -1.2922 -0.2344
15654TIP3    H268378   4.579   1.411  15.099 -1.6230 -0.0759 -0.9137
15655TIP3   OH268379   2.894   4.917   4.296 -0.8274 -0.0023  0.7226
15655TIP3    H168380   2.950   4.843   4.319  2.0973  1.4577 -1.0708
15655TIP3    H268381   2.881   4.908   4.201  0.6801  2.3134  0.1978
15656TIP3   OH268382   3.387   0.501  11.407 -0.3041 -0.2005  0.0402
15656TIP3    H168383   3.350   0.470  11.325 -1.2817  1.5835 -0.2392
15656TIP3    H268384   3.433   0.582  11.384 -1.3344  0.8188  1.3562
15657TIP3   OH268385   3.953   5.331   5.293  0.2762  0.7568 -0.3858
15657TIP3    H168386   4.038   5.308   5.257  1.6724  2.3675  1.6428
15657TIP3    H268387   3.951   5.291   5.380 -1.8257 -0.7127 -1.0170
15658TIP3   OH268388   3.668   4.600  11.937  0.0134  0.1390 -0.4457
15658TIP3    H168389   3.731   4.671  11.937  1.4465 -1.0116  1.8595
15658TIP3    H268390   3.705   4.534  11.878  1.0533 -0.5507  0.9332
15659TIP3   OH268391   4.766   1.732   4.615 -0.0245 -0.1913 -0.1331
15659TIP3    H168392   4.729   1.645   4.601  2.0806 -0.9181 -1.6362
15659TIP3    H268393   4.851   1.715   4.656 -0.2885  1.2919  1.1354
15660TIP3   OH268394   0.717   5.874   0.522 -0.1757  0.5865 -0.3448
15660TIP3    H168395   0.691   5.890   0.432  1.1227 -1.8929 -1.2565
15660TIP3    H268396   0.812   5.862   0.518 -0.2381 -0.7939  1.1252
15661TIP3   OH268397   5.500   5.110   4.734 -0.1329  0.6494  0.3755
15661TIP3    H168398   5.560   5.125   4.661 -1.4519 -0.2710 -0.9614
15661TIP3    H268399   5.435   5.049   4.699  0.6833 -2.0631  3.1205
15662TIP3   OH268400   6.383   1.220   4.634  0.2775 -0.1188  0.4151
15662TIP3    H168401   6.311   1.242   4.693 -0.6212  0.5815 -0.9041
15662TIP3    H268402   6.451   1.184   4.691 -1.1925 -1.0261  1.6687
15663TIP3   OH268403   2.663   2.739  16.568 -0.1118 -0.6352 -0.5105
15663TIP3    H168404   2.690   2.652  16.597 -0.5353 -0.4095  0.5915
15663TIP3    H268405   2.663   2.733  16.472  1.9279 -1.2096 -0.5186
15664TIP3   OH268406   4.446   0.603   1.774  0.1040  0.1052 -0.7228
15664TIP3    H168407   4.416   0.591   1.864  1.1533  1.0716 -0.2184
15664TIP3    H268408   4.467   0.696   1.768  0.3096 -0.0023 -1.8956
15665TIP3   OH268409   2.958   5.844   6.658 -0.1803 -0.0748  0.2982
15665TIP3    H168410   2.945   5.937   6.678 -0.9322 -0.2581  0.7188
15665TIP3    H268411   2.900   5.798   6.720 -1.3325 -0.7414 -1.2067
15666TIP3   OH268412   2.281   1.517   0.175  0.2188 -0.5670  0.2880
15666TIP3    H168413   2.376   1.524   0.169  0.2374 -1.8322 -2.2635
15666TIP3    H268414   2.249   1.603   0.148  0.6264 -0.4338  0.2180
15667TIP3   OH268415   3.447   2.759  11.456 -0.3824  0.1820  0.8209
15667TIP3    H168416   3.431   2.786  11.366 -0.6746 -1.1537  0.4462
15667TIP3    H268417   3.423   2.666  11.458 -2.2509  0.6245  2.7614
15668TIP3   OH268418   6.405   0.488   0.499  0.6836 -0.0100 -0.1519
15668TIP3    H168419   6.423   0.432   0.574  1.0632  0.2958 -0.0137
15668TIP3    H268420   6.434   0.575   0.526 -0.5080  0.3908 -0.1199
15669TIP3   OH268421   4.462   6.686   2.602 -0.7188  0.6284  0.0739
15669TIP3    H168422   4.452   6.762   2.545 -0.4642  0.9458  0.4463
15669TIP3    H268423   4.555   6.665   2.599 -0.8209  0.2129 -0.1775
15670TIP3   OH268424   0.096   5.447  16.152 -0.2514  0.0698  0.3701
15670TIP3    H168425   0.075   5.478  16.064  1.1789  1.2007  0.3862
15670TIP3    H268426   0.013   5.447  16.199 -0.7082  1.4010 -0.4070
15671TIP3   OH268427   1.201   0.357  11.919 -0.1484 -0.0605 -0.5073
15671TIP3    H168428   1.153   0.433  11.887  1.5717  1.4832  0.3667
15671TIP3    H268429   1.231   0.313  11.839 -1.3388  0.0427 -1.0315
15672TIP3   OH268430   4.888   1.719  10.938 -0.3823  0.2259 -0.0671
15672TIP3    H168431   4.877   1.735  10.844  1.9391  0.0003 -0.4475
15672TIP3    H268432   4.799   1.714  10.972 -1.2898  1.6883 -2.0056
15673TIP3   OH268433   3.538   1.846   3.343  0.7034  0.1661 -0.1405
15673TIP3    H168434   3.592   1.825   3.419  1.2718  0.1873 -0.5279
15673TIP3    H268435   3.601   1.854   3.271  0.1196 -0.3989 -0.7241
15674TIP3   OH268436   5.950   5.636  15.387  0.6312  0.3018  0.0527
15674TIP3    H168437   5.891   5.566  15.358 -0.2868  1.1020 -0.0384
15674TIP3    H268438   6.008   5.651  15.313 -0.6568  1.2124 -0.8051
15675TIP3   OH268439   2.235   5.512  15.818  0.1680  0.1172 -0.3015
15675TIP3    H168440   2.215   5.437  15.762 -0.8737 -0.6325  1.0260
15675TIP3    H268441   2.243   5.476  15.906  2.8565  1.1092 -0.0609
15676TIP3   OH268442   0.527   6.639   0.750  1.0248 -0.7277  0.2854
15676TIP3    H168443   0.520   6.685   0.834  2.1396  0.7145 -0.3603
15676TIP3    H268444   0.603   6.581   0.760  0.7957 -0.9985  0.4632
15677TIP3   OH268445   0.384   0.512   0.597  0.6436  0.2817 -0.1381
15677TIP3    H168446   0.298   0.473   0.617  1.2363 -0.7800  0.4284
15677TIP3    H268447   0.401   0.487   0.506  0.3889  0.4478 -0.2348
15678TIP3   OH268448   4.536   6.348  14.421  0.1656  0.1265 -0.0843
15678TIP3    H168449   4.559   6.258  14.444  1.9838  0.8041  0.9772
15678TIP3    H268450   4.501   6.342  14.332 -0.2372 -1.6853  0.1716
15679TIP3   OH268451   0.545   3.517   0.788 -0.4815 -0.1720  0.4347
15679TIP3    H168452   0.552   3.509   0.883 -1.1939  1.3817  0.6484
15679TIP3    H268453   0.521   3.429   0.758 -0.2413 -0.6811  1.6794
15680TIP3   OH268454   4.516   0.467   5.109 -0.2686 -0.3550  0.2981
15680TIP3    H168455   4.434   0.450   5.061 -0.5539 -0.0809  0.6834
15680TIP3    H268456   4.490   0.470   5.201  0.2499 -0.6942  0.4645
15681TIP3   OH268457   2.572   1.606   2.967  0.1596  0.0447  0.8022
15681TIP3    H168458   2.571   1.532   2.906  0.2951 -0.4037  1.3333
15681TIP3    H268459   2.647   1.659   2.939 -0.3414  0.3443  0.0044
15682TIP3   OH268460   3.929   1.142   0.188 -0.0222 -0.2437 -0.8407
15682TIP3    H168461   3.852   1.190   0.220 -1.1751 -1.4970 -1.6058
15682TIP3    H268462   3.979   1.207   0.138  0.4689  1.0853  1.2574
15683TIP3   OH268463   3.101   0.636  11.041 -0.2046 -0.0592 -0.9115
15683TIP3    H168464   3.032   0.581  11.005 -0.0601 -2.3328  1.9239
15683TIP3    H268465   3.178   0.614  10.988 -0.0617 -3.0252  0.3064
15684TIP3   OH268466   2.530   1.675   5.123 -0.9831  0.6713  0.2199
15684TIP3    H168467   2.605   1.720   5.162  0.7140  0.5336 -2.6321
15684TIP3    H268468   2.513   1.602   5.182  1.6594  0.2548  0.5833
15685TIP3   OH268469   1.736   6.379   6.750 -0.1936  0.5426 -0.0367
15685TIP3    H168470   1.651   6.335   6.755  0.1036 -0.1613 -0.9985
15685TIP3    H268471   1.772   6.371   6.839 -1.7502  2.1705  0.7922
15686TIP3   OH268472   1.876   1.716   1.196 -0.1597 -0.1257 -0.1444
15686TIP3    H168473   1.877   1.719   1.292 -0.9712 -0.4552 -0.1183
15686TIP3    H268474   1.789   1.746   1.172 -0.6488 -1.8481 -0.6901
15687TIP3   OH268475   2.866   1.607   4.921  0.0033  0.2039 -0.4832
15687TIP3    H168476   2.876   1.581   4.829 -2.4323 -0.1848 -0.7010
15687TIP3    H268477   2.797   1.550   4.955 -0.3234  1.4806  1.1243
15688TIP3   OH268478   3.516   2.827   3.149 -0.2597  0.4179  0.6535
15688TIP3    H168479   3.517   2.746   3.202 -2.6198 -0.6881 -0.8070
15688TIP3    H268480   3.507   2.897   3.213 -0.4188 -0.6643  1.8641
15689TIP3   OH268481   2.332   5.608  11.193 -0.7782 -0.0749  0.4704
15689TIP3    H168482   2.376   5.683  11.152 -1.0315  0.6636  1.5045
15689TIP3    H268483   2.276   5.573  11.124  1.6353 -1.2700 -1.0125
15690TIP3   OH268484   5.096   5.286  13.655 -0.6730 -0.4986 -0.1382
15690TIP3    H168485   5.011   5.265  13.618  0.5881 -3.7489 -1.5804
15690TIP3    H268486   5.149   5.207  13.641  2.2282  0.9088  1.7976
15691TIP3   OH268487   5.207   3.583  13.297 -0.2337 -0.4836  0.0494
15691TIP3    H168488   5.190   3.582  13.203  0.2645  1.0488 -0.0761
15691TIP3    H268489   5.214   3.676  13.319 -0.5032 -0.8130  1.6352
15692TIP3   OH268490   6.547   6.182   4.390  0.2201 -0.2985 -0.2086
15692TIP3    H168491   6.587   6.253   4.440 -0.9559  0.9700 -0.9904
15692TIP3    H268492   6.489   6.138   4.453  2.8868 -2.3266  1.0056
15693TIP3   OH268493   0.778   5.388  12.599 -0.4476  0.3605  0.3490
15693TIP3    H168494   0.855   5.348  12.559 -1.2578 -0.5291 -0.3777
15693TIP3    H268495   0.734   5.315  12.644 -1.1847  0.7172  0.2252
15694TIP3   OH268496   5.055   5.869  17.261 -0.2155  0.0407  0.1715
15694TIP3    H168497   5.071   5.950  17.310 -2.0596  1.1781 -0.9692
15694TIP3    H268498   5.138   5.850  17.218  0.1126  1.6558  0.0344
15695TIP3   OH268499   2.945   5.358  11.431 -0.8732  0.1197  0.0321
15695TIP3    H168500   2.998   5.303  11.373 -0.7642 -0.2193  0.4529
15695TIP3    H268501   2.953   5.446  11.394  0.1539  0.1093  0.2098
15696TIP3   OH268502   1.994   4.462   3.538  0.3796 -0.0570  0.0974
15696TIP3    H168503   1.965   4.512   3.462  1.2437  0.6213  0.1945
15696TIP3    H268504   1.945   4.499   3.611 -0.1973 -0.4791 -0.0633
15697TIP3   OH268505   2.424   5.272   5.211 -0.3084  0.0890  0.1465
15697TIP3    H168506   2.474   5.286   5.291 -0.1469 -0.4615  0.1466
15697TIP3    H268507   2.460   5.191   5.174 -0.4024  0.3203 -0.4649
15698TIP3   OH268508   1.945   3.468  14.810  0.5938 -0.3747 -0.0752
15698TIP3    H168509   1.895   3.389  14.788  0.5986 -0.3277 -0.2564
15698TIP3    H268510   1.931   3.480  14.904 -0.2385 -0.0032 -0.2444
15699TIP3   OH268511   6.286   5.077  12.396 -0.0794 -0.3173  0.3238
15699TIP3    H168512   6.351   5.010  12.418  0.2944 -0.7705 -1.9717
15699TIP3    H268513   6.227   5.078  12.472  0.4250 -2.5678  0.8269
15700TIP3   OH268514   0.450   2.136   6.686 -0.2757  0.6715 -0.2780
15700TIP3    H168515   0.517   2.195   6.651  0.0226 -0.6704 -2.0524
15700TIP3    H268516   0.497   2.081   6.748  0.7527 -1.4103 -2.7521
15701TIP3   OH268517   4.016   4.802   0.958  0.6705 -0.4514 -0.3280
15701TIP3    H168518   3.947   4.746   0.993  1.1484 -1.4428 -0.9087
15701TIP3    H268519   3.974   4.850   0.886  0.7820 -1.7276 -1.2818
15702TIP3   OH268520   5.163   0.094   4.319  0.8181 -0.1408  0.1519
15702TIP3    H168521   5.182   0.151   4.244  0.0995  0.3438  0.3224
15702TIP3    H268522   5.198   0.009   4.294  0.7210  0.0494 -0.6771
15703TIP3   OH268523   6.159   5.931   6.188 -0.4083  0.0349  0.5728
15703TIP3    H168524   6.194   6.012   6.152 -0.2915  0.1831  1.0242
15703TIP3    H268525   6.083   5.958   6.239 -1.2045 -0.2850 -0.4118
15704TIP3   OH268526   5.311   3.978  11.886  0.1566  0.0823 -0.1031
15704TIP3    H168527   5.301   3.918  11.960  2.6806 -0.1185  0.1515
15704TIP3    H268528   5.374   3.934  11.829 -0.3657  1.0813 -1.4896
15705TIP3   OH268529   5.725   3.728  14.423 -0.2599 -0.1403 -0.6566
15705TIP3    H168530   5.654   3.753  14.483  0.2179 -1.1802  0.3970
15705TIP3    H268531   5.759   3.811  14.390  0.4768  0.6001  1.7591
15706TIP3   OH268532   0.657   4.018   1.379  0.0255 -0.1070 -0.5876
15706TIP3    H168533   0.686   3.964   1.452  1.7867  0.4343 -0.8367
15706TIP3    H268534   0.693   3.975   1.301 -0.1118  0.4358 -0.9594
15707TIP3   OH268535   1.677   1.806   2.614 -0.1589 -0.4704 -0.0967
15707TIP3    H168536   1.611   1.825   2.547  1.5349  1.5390 -1.3090
15707TIP3    H268537   1.736   1.744   2.572  1.2453  1.2488 -0.7850
15708TIP3   OH268538   2.251   3.435  17.213  0.1772  0.0339  0.2753
15708TIP3    H168539   2.180   3.447  17.150 -0.4826  0.0234  0.9948
15708TIP3    H268540   2.209   3.448  17.298  1.1885  0.7256  0.6879
15709TIP3   OH268541   0.983   2.008  16.741 -0.0661  0.0670  0.8168
15709TIP3    H168542   0.920   1.952  16.787 -0.9516  0.2326 -0.1661
15709TIP3    H268543   0.959   2.097  16.769 -0.9969  0.2162 -0.3999
15710TIP3   OH268544   5.489   2.685  15.114 -0.3000  0.1540  0.0675
15710TIP3    H168545   5.444   2.636  15.184 -2.2554  2.6840  0.7090
15710TIP3    H268546   5.537   2.754  15.161 -0.5936  1.1063 -1.0144
15711TIP3   OH268547   3.534   2.788  11.734  0.2743 -0.8060  0.1752
15711TIP3    H168548   3.466   2.752  11.790 -0.6235 -1.3815 -1.2464
15711TIP3    H268549   3.498   2.784  11.646  1.3290  0.8373 -0.3789
15712TIP3   OH268550   4.522   0.648  16.455 -1.2526  0.0839  0.1396
15712TIP3    H168551   4.543   0.731  16.498 -0.8510 -0.0109  0.1329
15712TIP3    H268552   4.506   0.672  16.364 -0.3938  0.0611 -0.0266
15713TIP3   OH268553   3.086   4.503  11.603  0.1622 -0.3064  0.0937
15713TIP3    H168554   3.041   4.585  11.626  1.4081  0.5737 -0.4520
15713TIP3    H268555   3.154   4.494  11.670  0.4797 -0.5051 -0.2521
15714TIP3   OH268556   0.897   6.491   3.328  0.7153 -0.3843 -0.1415
15714TIP3    H168557   0.974   6.543   3.351  0.4329 -0.0788  0.1164
15714TIP3    H268558   0.826   6.555   3.323  0.0300 -0.9290  1.7171
15715TIP3   OH268559   5.172   1.414   0.479 -0.2670  0.1047  0.4653
15715TIP3    H168560   5.114   1.338   0.470  1.6435 -1.2814 -1.5197
15715TIP3    H268561   5.197   1.434   0.389  1.3049  1.4378  1.1659
15716TIP3   OH268562   4.573   2.832   5.468 -0.3714 -0.0691  0.3922
15716TIP3    H168563   4.544   2.905   5.523  0.3387 -0.0372  0.7444
15716TIP3    H268564   4.641   2.870   5.413 -0.1933 -0.3960  0.3848
15717TIP3   OH268565   5.457   0.093  16.800  0.0069 -0.0663  0.3322
15717TIP3    H168566   5.551   0.095  16.781  0.4595 -0.6794  2.3002
15717TIP3    H268567   5.422   0.029  16.737  1.3108 -1.5038  0.9884
15718TIP3   OH268568   1.022   3.975  11.351  0.2574 -0.3443  0.7895
15718TIP3    H168569   0.935   3.947  11.380 -0.3788 -0.9408 -1.4476
15718TIP3    H268570   1.082   3.939  11.416 -0.9685 -2.3090  0.9286
15719TIP3   OH268571   5.554   0.134   0.012  0.1253 -0.1591 -0.5822
15719TIP3    H168572   5.539   0.222   0.046  1.2914 -0.0078 -0.4132
15719TIP3    H268573   5.518   0.137  -0.077 -0.1225  0.3899 -0.4683
15720TIP3   OH268574   2.760   6.591   4.601 -0.1531 -0.1218  0.2249
15720TIP3    H168575   2.776   6.627   4.689 -1.2243  0.8242  0.0523
15720TIP3    H268576   2.687   6.642   4.568  1.1023  0.4803 -1.7843
15721TIP3   OH268577   2.112   3.058  14.508 -0.1260 -0.0875  0.1217
15721TIP3    H168578   2.073   2.981  14.550 -0.8523  0.6932  0.9331
15721TIP3    H268579   2.038   3.118  14.496  0.2547  0.1315 -1.3595
15722TIP3   OH268580   4.463   2.653  15.203  0.1140 -0.1435  0.3006
15722TIP3    H168581   4.381   2.681  15.161  0.0790  0.1836  0.5816
15722TIP3    H268582   4.435   2.585  15.266  0.0229  0.1582  0.5872
15723TIP3   OH268583   1.695   5.358  14.209 -0.5315 -0.0244 -0.2905
15723TIP3    H168584   1.630   5.428  14.218  0.9086  1.3679 -0.4871
15723TIP3    H268585   1.738   5.375  14.125  0.5135 -0.5756  0.1119
15724TIP3   OH268586   4.959   6.144  13.868 -0.1094  0.2037 -0.5570
15724TIP3    H168587   5.015   6.092  13.925 -1.3432 -1.7559 -1.0507
15724TIP3    H268588   4.922   6.211  13.926  0.3826 -0.3551  0.4230
15725TIP3   OH268589   5.717   4.894   1.630 -0.0698 -0.2280 -0.1179
15725TIP3    H168590   5.789   4.862   1.576  0.6308  1.1528 -0.0768
15725TIP3    H268591   5.641   4.844   1.603  0.2076  0.5376 -2.5369
15726TIP3   OH268592   1.356   0.583   1.522 -0.5458  0.0267 -0.4827
15726TIP3    H168593   1.418   0.640   1.476 -1.5738  0.2032 -1.6710
15726TIP3    H268594   1.402   0.499   1.529  0.1298  0.3747 -0.6583
15727TIP3   OH268595   3.730   2.960  13.690  0.6210  0.5245 -0.3614
15727TIP3    H168596   3.774   3.045  13.692  1.1572  0.2769  2.7431
15727TIP3    H268597   3.786   2.903  13.741 -0.2985 -1.4555 -1.4498
15728TIP3   OH268598   6.483   3.546  11.331 -0.5856 -0.7866  0.1783
15728TIP3    H168599   6.405   3.510  11.288 -0.8952  0.2315 -0.1379
15728TIP3    H268600   6.473   3.521  11.423 -1.6128 -0.1407  0.2590
15729TIP3   OH268601   1.151   2.557   2.661 -0.4952 -0.0330 -0.3628
15729TIP3    H168602   1.156   2.639   2.613 -0.6355  0.7456  0.9048
15729TIP3    H268603   1.060   2.527   2.650 -0.9673  0.9484  0.6703
15730TIP3   OH268604   3.650   0.210   1.268  0.2241  0.0821  0.1212
15730TIP3    H168605   3.699   0.292   1.254  1.6389 -0.8426 -0.5310
15730TIP3    H268606   3.615   0.188   1.182 -0.8723  0.4024  0.4607
15731TIP3   OH268607   4.514   2.263  13.324  0.5757 -0.6587 -0.1598
15731TIP3    H168608   4.605   2.280  13.299  0.7255 -0.1470  0.6895
15731TIP3    H268609   4.497   2.324  13.395 -0.9071  0.2561 -1.2566
15732TIP3   OH268610   1.386   2.754   2.073  0.5128  0.6769 -0.6254
15732TIP3    H168611   1.331   2.733   1.997 -1.0449  1.0133  0.3632
15732TIP3    H268612   1.462   2.697   2.064  0.1825  0.4438 -2.2327
15733TIP3   OH268613   4.804   6.585   2.407  0.0810  0.7328 -0.4286
15733TIP3    H168614   4.762   6.671   2.405 -1.4040  0.1503  1.7553
15733TIP3    H268615   4.754   6.533   2.343 -1.4379  0.5699  0.8134
15734TIP3   OH268616   4.748   4.102   3.474 -0.2562 -0.1380  0.0823
15734TIP3    H168617   4.785   4.184   3.506 -0.4954 -1.0113  2.8785
15734TIP3    H268618   4.653   4.113   3.483 -0.3048 -0.5942  0.1984
15735TIP3   OH268619   2.385   3.592  15.627 -0.4350 -0.0553  0.3359
15735TIP3    H168620   2.322   3.642  15.575 -0.8245 -0.8410  0.0262
15735TIP3    H268621   2.364   3.501  15.607  0.9660 -0.3370  0.0371
15736TIP3   OH268622   4.469   6.316  15.521  0.7419  0.2194  0.2729
15736TIP3    H168623   4.552   6.285  15.557  0.3775 -0.1759  0.8031
15736TIP3    H268624   4.415   6.334  15.598  0.2530  0.2346 -0.0673
15737TIP3   OH268625   0.776   4.319   5.373  0.2838  0.5050  0.1784
15737TIP3    H168626   0.733   4.255   5.430 -3.0027  1.7149 -0.6993
15737TIP3    H268627   0.786   4.274   5.289 -2.6262  1.1547 -0.6352
15738TIP3   OH268628   4.296   2.156  15.533  0.4412  0.1367 -0.4705
15738TIP3    H168629   4.388   2.132  15.528  1.4576  3.5384 -0.4911
15738TIP3    H268630   4.264   2.149  15.443  0.9794 -0.0469 -0.6519
15739TIP3   OH268631   5.420   6.489   2.442 -0.1736 -0.0016  0.5874
15739TIP3    H168632   5.386   6.404   2.470 -2.3964  0.0624 -1.5079
15739TIP3    H268633   5.351   6.551   2.467  0.5943  0.9277  0.4661
15740TIP3   OH268634   5.464   1.249   0.166 -0.2051  0.3979 -0.0177
15740TIP3    H168635   5.497   1.237   0.077  0.6508  2.3325 -0.0107
15740TIP3    H268636   5.542   1.270   0.218 -0.7833 -0.0590  1.0681
15741TIP3   OH268637   0.552   2.551   3.974 -0.6506 -0.7903  0.0431
15741TIP3    H168638   0.494   2.579   3.904  1.6341 -0.7049 -1.9679
15741TIP3    H268639   0.506   2.479   4.017 -3.2279  0.8430  0.1894
15742TIP3   OH268640   4.563   3.972  12.475  0.0321 -0.0135  0.8205
15742TIP3    H168641   4.544   3.896  12.530 -3.2485  1.4311  1.9962
15742TIP3    H268642   4.624   4.024  12.527  2.1103 -1.6167  0.1122
15743TIP3   OH268643   1.690   6.355   4.650  0.1114 -0.1609  0.2000
15743TIP3    H168644   1.683   6.268   4.689 -0.2446  0.6328  2.0310
15743TIP3    H268645   1.605   6.369   4.608 -0.0940 -0.4227  0.5220
15744TIP3   OH268646   1.307   1.108   5.166  0.3927 -0.2777  0.3637
15744TIP3    H168647   1.290   1.171   5.236 -2.6497  0.4415 -0.8587
15744TIP3    H268648   1.309   1.161   5.086 -2.2500 -1.5477 -0.6946
15745TIP3   OH268649   3.007   0.042  11.572  0.3724 -0.2364 -0.5391
15745TIP3    H168650   2.952   0.120  11.583  0.9078  0.1257 -0.4298
15745TIP3    H268651   2.948  -0.031  11.592 -0.6250  0.0217 -2.3288
15746TIP3   OH268652   0.307   5.710  10.784 -0.0222 -0.4308 -0.2030
15746TIP3    H168653   0.369   5.699  10.855  3.9487 -0.1808 -3.3114
15746TIP3    H268654   0.242   5.640  10.798 -0.1861  0.3302  4.1268
15747TIP3   OH268655   0.609   3.327   3.889  0.1061 -0.8477  0.4659
15747TIP3    H168656   0.619   3.418   3.860 -1.2376 -0.0750  2.2288
15747TIP3    H268657   0.687   3.310   3.942  0.7591 -1.0168 -0.5330
15748TIP3   OH268658   0.019   4.170  11.789  0.0166  0.1714  0.5168
15748TIP3    H168659   0.008   4.170  11.694 -0.4704  1.2145  0.5569
15748TIP3    H268660   0.071   4.092  11.808  1.6543  0.8761 -0.7959
15749TIP3   OH268661   0.258   3.601   2.359 -0.0948  0.2185 -0.3171
15749TIP3    H168662   0.319   3.637   2.295 -0.5771  1.2805 -0.1963
15749TIP3    H268663   0.312   3.578   2.434  0.5462 -1.4634 -1.2367
15750TIP3   OH268664   6.034   3.386  12.497 -0.2370  0.4718  0.1614
15750TIP3    H168665   5.998   3.353  12.415  1.3097 -1.7635  0.3189
15750TIP3    H268666   6.067   3.309  12.543  2.3850  2.0401  1.1783
15751TIP3   OH268667   2.008   5.583   6.124  0.1458 -0.0148  0.4545
15751TIP3    H168668   1.947   5.586   6.049 -0.7665  1.6876  1.1970
15751TIP3    H268669   2.009   5.492   6.151  0.3142 -0.6352 -1.4749
15752TIP3   OH268670   2.004   3.055   0.455  0.2300 -0.2935 -0.1493
15752TIP3    H168671   1.909   3.058   0.457  0.1247 -1.1255 -2.0625
15752TIP3    H268672   2.031   3.146   0.446 -0.2761  0.1076  1.8873
15753TIP3   OH268673   2.043   4.745  16.401 -0.0947  0.1115 -0.1157
15753TIP3    H168674   2.062   4.834  16.429 -1.9135  0.3025  0.6933
15753TIP3    H268675   2.024   4.698  16.482  2.4615 -1.4995 -0.3581
15754TIP3   OH268676   0.689   5.693   4.415  0.4083  0.0335  0.6666
15754TIP3    H168677   0.662   5.603   4.433 -1.4004  0.3516 -0.2710
15754TIP3    H268678   0.783   5.686   4.395  0.1277 -1.7931 -0.2670
15755TIP3   OH268679   4.810   0.751   3.334  0.0528 -0.3002  0.2182
15755TIP3    H168680   4.776   0.718   3.251 -0.1367  1.5705 -0.4985
15755TIP3    H268681   4.878   0.689   3.359  0.8510 -0.3395 -1.8922
15756TIP3   OH268682   3.949   3.586  15.418  0.1455  0.1306 -0.4487
15756TIP3    H168683   3.879   3.649  15.429 -1.2061 -0.8945 -2.6385
15756TIP3    H268684   3.952   3.568  15.324  0.8490 -2.5912  0.0055
15757TIP3   OH268685   0.751   6.416   4.868  0.2340  0.4501  0.2662
15757TIP3    H168686   0.678   6.364   4.901 -0.7888  1.6625 -0.0076
15757TIP3    H268687   0.828   6.360   4.880 -0.1838  0.4248  3.7843
15758TIP3   OH268688   2.468   0.480   5.672 -0.1087 -0.1857 -0.2818
15758TIP3    H168689   2.402   0.440   5.728  1.4708 -2.2288  0.2344
15758TIP3    H268690   2.496   0.558   5.722  0.4339 -1.3219  1.2682
15759TIP3   OH268691   1.914   5.355   3.279  0.1924  0.1968 -0.3154
15759TIP3    H168692   1.883   5.269   3.307 -0.6465  0.5341 -0.1860
15759TIP3    H268693   1.977   5.337   3.210 -2.1381 -0.4296 -2.3946
15760TIP3   OH268694   3.974   3.076  11.852 -0.1474 -0.2749 -0.1015
15760TIP3    H168695   3.925   3.158  11.842 -1.1304 -0.8163  0.1650
15760TIP3    H268696   3.926   3.013  11.799 -0.5734 -1.1571  1.2819
15761TIP3   OH268697   5.620   6.056  10.738 -0.0785 -0.1966 -0.3966
15761TIP3    H168698   5.691   6.008  10.695  0.5274 -0.1739  0.5478
15761TIP3    H268699   5.575   5.990  10.791 -0.8284 -0.2250 -1.0364
15762TIP3   OH268700   4.646   3.726   3.027 -0.3362 -0.0578  0.2515
15762TIP3    H168701   4.687   3.790   3.085  0.8415 -0.5363 -0.0361
15762TIP3    H268702   4.572   3.692   3.078 -1.2257  1.7614  0.2781
15763TIP3   OH268703   6.243   1.040   2.618  0.1386 -0.6789 -0.3154
15763TIP3    H168704   6.253   0.945   2.619 -0.7177 -0.7963 -1.0925
15763TIP3    H268705   6.329   1.074   2.639  0.3943 -1.6322  0.2331
15764TIP3   OH268706   6.002   4.549  12.133 -0.3823  0.0591  0.5324
15764TIP3    H168707   5.969   4.491  12.064  0.4017  0.5056 -0.2360
15764TIP3    H268708   6.094   4.563  12.110 -0.5078  1.4717  0.7876
15765TIP3   OH268709   0.413   0.392   0.324 -0.3398 -0.3324 -0.0412
15765TIP3    H168710   0.339   0.390   0.263  0.5973 -1.0960 -1.1990
15765TIP3    H268711   0.475   0.454   0.285 -0.0890 -0.1935  0.5748
15766TIP3   OH268712   3.129   1.991   4.329 -0.1283  0.3535  0.3927
15766TIP3    H168713   3.111   1.897   4.329  0.3862  0.2511  0.6584
15766TIP3    H268714   3.044   2.031   4.316 -0.6258 -0.1142  1.9158
15767TIP3   OH268715   6.451   1.461   1.076  0.1222 -0.0945 -0.1517
15767TIP3    H168716   6.448   1.548   1.037 -0.4803  1.0342  2.2090
15767TIP3    H268717   6.364   1.449   1.115  0.9913 -0.6439  1.7500
15768TIP3   OH268718   6.320   0.583   1.480  0.1168 -0.0136 -0.2469
15768TIP3    H168719   6.305   0.525   1.554  0.4373  0.9319  0.5727
15768TIP3    H268720   6.405   0.556   1.445  0.1674 -0.1690 -0.0042
15769TIP3   OH268721   1.614   6.270  16.051 -0.2995  0.5672 -0.0576
15769TIP3    H168722   1.563   6.292  16.129 -2.8108 -2.8039 -0.5015
15769TIP3    H268723   1.692   6.227  16.084 -1.2540 -0.6662  0.6763
15770TIP3   OH268724   0.432   3.029  15.800 -0.1510 -0.1386  0.8062
15770TIP3    H168725   0.489   2.961  15.763  1.6407  1.7298 -0.0363
15770TIP3    H268726   0.492   3.090  15.843 -1.5800  1.5720  0.4758
15771TIP3   OH268727   3.463   2.470  17.116  0.3059 -0.1340  0.4877
15771TIP3    H168728   3.484   2.459  17.208 -0.0283  0.1659  0.6005
15771TIP3    H268729   3.372   2.501  17.115  0.6494  0.9266  0.1214
15772TIP3   OH268730   4.884   2.806   4.654  0.4052  0.1340 -0.3724
15772TIP3    H168731   4.820   2.748   4.695 -1.0746  1.1344 -1.1386
15772TIP3    H268732   4.921   2.857   4.726  0.3596 -0.4909  0.0955
15773TIP3   OH268733   1.814   3.965  15.223 -0.0922 -0.1195  0.3972
15773TIP3    H168734   1.724   3.950  15.193  0.6771  0.1422 -2.2874
15773TIP3    H268735   1.812   4.054  15.260 -0.8138  0.1198 -0.1832
15774TIP3   OH268736   2.566   3.471  14.271  0.4917 -0.2202  0.1646
15774TIP3    H168737   2.606   3.558  14.275 -1.0709  0.6147 -1.0347
15774TIP3    H268738   2.554   3.445  14.363  0.6046  1.0058  0.5386
15775TIP3   OH268739   1.791   2.314  16.809 -0.5030 -0.2574 -0.7826
15775TIP3    H168740   1.732   2.327  16.882  0.6091  2.5311 -0.2386
15775TIP3    H268741   1.872   2.280  16.849  0.2798  1.7412 -0.5307
15776TIP3   OH268742   2.157   0.742  16.225 -0.0760  0.3341  0.2603
15776TIP3    H168743   2.080   0.788  16.193  0.3000 -0.4917 -1.9777
15776TIP3    H268744   2.133   0.650  16.223  0.9156  0.0709 -0.3745
15777TIP3   OH268745   6.149   3.594  14.905  0.0249 -0.1344  0.3679
15777TIP3    H168746   6.120   3.519  14.957  1.4376  0.3340  1.9081
15777TIP3    H268747   6.218   3.559  14.849  0.1604 -0.1326  0.5351
15778TIP3   OH268748   3.830   4.256   5.106  0.0278 -0.1304  0.1492
15778TIP3    H168749   3.911   4.232   5.151  0.5640 -1.6214 -1.4970
15778TIP3    H268750   3.849   4.242   5.013 -1.9801 -0.1351 -0.3083
15779TIP3   OH268751   4.846   3.489  13.498  0.8673 -0.1429  0.0685
15779TIP3    H168752   4.765   3.521  13.457 -0.0699  0.0389  1.9535
15779TIP3    H268753   4.868   3.411  13.448 -1.4533 -1.1853  0.5028
15780TIP3   OH268754   2.401   5.837   0.831  0.1784  0.3619  0.5248
15780TIP3    H168755   2.327   5.805   0.779 -0.0494  0.2378  0.9266
15780TIP3    H268756   2.372   5.830   0.922  0.8225 -0.0374  0.7048
15781TIP3   OH268757   0.906   4.141   1.306  0.1773  0.1192  0.2525
15781TIP3    H168758   0.896   4.050   1.278 -0.4742  0.1897  0.2559
15781TIP3    H268759   0.836   4.188   1.260  2.8422  1.3517 -2.9878
15782TIP3   OH268760   3.906   1.169   4.531 -0.1910 -0.0570 -0.6401
15782TIP3    H168761   3.990   1.129   4.509  0.0002  0.7391 -1.4351
15782TIP3    H268762   3.852   1.157   4.454 -0.5621  0.0778 -0.4072
15783TIP3   OH268763   0.836   2.759  13.599  0.1909 -0.6344  0.2766
15783TIP3    H168764   0.835   2.783  13.692 -0.6538 -2.4662  0.7827
15783TIP3    H268765   0.914   2.802  13.564 -0.0229  0.9125  1.5928
15784TIP3   OH268766   6.446   6.298  15.798  0.3075  0.2611  0.6740
15784TIP3    H168767   6.514   6.326  15.737 -0.0751  0.4422  0.3215
15784TIP3    H268768   6.458   6.204  15.807  0.7033  0.3148  0.7440
15785TIP3   OH268769   2.246   6.732   5.610  0.8474  0.3276 -0.0974
15785TIP3    H168770   2.154   6.730   5.585  1.2076  0.2575 -1.4993
15785TIP3    H268771   2.248   6.786   5.690 -0.4049  0.2500  0.0063
15786TIP3   OH268772   3.824   1.646   1.330 -0.0424 -0.0123 -0.1198
15786TIP3    H168773   3.885   1.637   1.257  1.2832 -1.3253  1.0879
15786TIP3    H268774   3.759   1.578   1.315  1.4577 -1.7924  1.0004
15787TIP3   OH268775   6.351   1.865  14.366 -0.4181 -0.0226 -0.4075
15787TIP3    H168776   6.273   1.859  14.311 -1.2866 -0.7068  0.8550
15787TIP3    H268777   6.385   1.952  14.349  0.0587 -0.6040 -2.9275
15788TIP3   OH268778   0.653   2.580   5.754  0.1893  0.4392  0.2164
15788TIP3    H168779   0.664   2.582   5.849  1.5678 -1.7177  0.1558
15788TIP3    H268780   0.561   2.557   5.741 -0.8876  3.7225  0.8985
15789TIP3   OH268781   4.679   0.106  13.783  0.1652 -0.5553 -0.6068
15789TIP3    H168782   4.693   0.198  13.760 -0.3321 -0.7727 -1.8660
15789TIP3    H268783   4.586   0.091  13.767 -0.0493 -0.9467  0.8855
15790TIP3   OH268784   3.049   3.427   0.695 -0.1269 -0.0826  0.3584
15790TIP3    H168785   3.009   3.342   0.714 -0.2378 -0.0497  0.2712
15790TIP3    H268786   3.143   3.413   0.708 -0.0355 -0.4944 -0.6698
15791TIP3   OH268787   0.102   0.231  14.449  0.4197  0.2046 -0.2726
15791TIP3    H168788   0.050   0.153  14.431  0.0634  0.7457 -1.6978
15791TIP3    H268789   0.153   0.208  14.527 -2.4174 -0.1247  1.6577
15792TIP3   OH268790   3.264   4.752  10.528  0.0495 -0.2679  0.0729
15792TIP3    H168791   3.237   4.764  10.619  0.0999 -1.8207  0.3214
15792TIP3    H268792   3.332   4.685  10.531 -0.0042 -0.4013 -1.1201
15793TIP3   OH268793   2.542   5.515  13.394 -0.6938  0.0011  0.0411
15793TIP3    H168794   2.619   5.476  13.436 -0.5863  1.2346  1.0831
15793TIP3    H268795   2.518   5.587  13.453 -1.3487  0.9791 -1.3712
15794TIP3   OH268796   0.918   3.171   2.629  0.2806  0.3981  0.1977
15794TIP3    H168797   0.921   3.076   2.646 -1.3385  0.4672  1.1505
15794TIP3    H268798   0.837   3.183   2.579  0.9625  1.1918 -0.7574
15795TIP3   OH268799   5.715   5.411  14.608  0.5140 -0.2267  0.5928
15795TIP3    H168800   5.659   5.341  14.641 -0.0245  0.1612  0.5203
15795TIP3    H268801   5.791   5.366  14.572 -0.5050 -0.9057 -0.8202
15796TIP3   OH268802   0.992   4.746  11.501  0.3882  0.4390  0.7581
15796TIP3    H168803   0.934   4.681  11.541  1.7385 -0.4001  1.4476
15796TIP3    H268804   0.975   4.739  11.407  1.6087 -2.1345  0.6319
15797TIP3   OH268805   5.814   4.313  16.899 -0.2163 -0.6055  0.2070
15797TIP3    H168806   5.827   4.316  16.994  0.8487 -1.0280  0.0896
15797TIP3    H268807   5.736   4.259  16.888  0.0199 -1.0946  0.8270
15798TIP3   OH268808   6.727   1.219  15.266 -0.1770  0.3871 -0.1328
15798TIP3    H168809   6.808   1.198  15.219  1.8881  1.0131  2.8581
15798TIP3    H268810   6.714   1.313  15.250 -2.0044 -0.2091 -2.8346
15799TIP3   OH268811   1.233   3.472  13.284 -0.1925 -1.0180 -0.2230
15799TIP3    H168812   1.251   3.465  13.190  1.4801  0.3115 -0.0476
15799TIP3    H268813   1.209   3.563  13.298  0.2439 -1.0354  0.7455
15800TIP3   OH268814   1.473   0.742  16.586 -0.4719  0.2273 -0.1718
15800TIP3    H168815   1.409   0.758  16.655 -0.1138  1.5900 -0.1465
15800TIP3    H268816   1.427   0.683  16.525 -1.0003 -0.4906  0.8872
15801TIP3   OH268817   1.654   4.287  12.007  0.6253  0.0005 -0.7878
15801TIP3    H168818   1.683   4.373  11.976  1.7348  0.0695  0.3233
15801TIP3    H268819   1.708   4.271  12.085 -0.6525 -1.0126 -0.0718
15802TIP3   OH268820   4.115   5.409   2.520 -0.3454  0.4959 -0.2554
15802TIP3    H168821   4.144   5.375   2.435 -0.8818 -0.3568 -0.1138
15802TIP3    H268822   4.020   5.418   2.510 -0.1958  2.1844 -0.3518
15803TIP3   OH268823   0.831   6.709  12.949  0.1494 -1.0152  0.9809
15803TIP3    H168824   0.806   6.793  12.988  0.2763 -1.1708  1.4045
15803TIP3    H268825   0.794   6.644  13.008  0.7911 -1.2507  1.1268
15804TIP3   OH268826   2.304   2.303   5.994  0.0401  0.3907 -0.1874
15804TIP3    H168827   2.211   2.326   5.989  0.3250  1.4129 -2.1940
15804TIP3    H268828   2.345   2.380   6.033  0.0072 -0.2901  1.2402
15805TIP3   OH268829   3.081   4.151  17.056  0.1757  0.2671  0.8725
15805TIP3    H168830   3.063   4.181  16.967  1.8454  0.8861  0.7064
15805TIP3    H268831   3.074   4.056  17.051 -0.9220  0.3604  0.3810
15806TIP3   OH268832   0.469   5.931  11.762 -0.5318  0.3727  0.2800
15806TIP3    H168833   0.536   5.870  11.794  1.0325  1.0998 -1.4433
15806TIP3    H268834   0.462   5.912  11.668 -2.7935  0.3296  0.3839
15807TIP3   OH268835   3.870   2.039   4.912  0.3826 -0.5498 -0.3856
15807TIP3    H168836   3.808   1.976   4.878  0.3227 -0.7146  0.0194
15807TIP3    H268837   3.899   2.089   4.836 -0.5537 -0.1955 -0.5190
15808TIP3   OH268838   5.561   1.000  11.669 -0.2460  0.6531  0.2082
15808TIP3    H168839   5.635   0.965  11.719 -0.2440  0.5050  0.1038
15808TIP3    H268840   5.544   0.933  11.603  0.5238  1.3827 -0.7584
15809TIP3   OH268841   2.969   5.434   6.162  0.1645  0.3470  0.5579
15809TIP3    H168842   3.031   5.429   6.235 -1.3091  0.8072  1.9087
15809TIP3    H268843   3.017   5.399   6.087  1.4953 -0.8872  1.9084
15810TIP3   OH268844   2.711   6.528   0.286  0.1392 -0.4955  0.1055
15810TIP3    H168845   2.800   6.562   0.298 -0.3115  0.4435  0.8892
15810TIP3    H268846   2.655   6.606   0.290 -0.9046 -1.2860  1.6745
15811TIP3   OH268847   0.492   3.884  13.554  0.6612 -0.2041  0.3570
15811TIP3    H168848   0.399   3.905  13.562  0.1909 -2.1462  0.5296
15811TIP3    H268849   0.526   3.894  13.643  0.1744 -1.2748  0.6842
15812TIP3   OH268850   3.520   4.658  15.626  0.0488 -0.1864  0.2767
15812TIP3    H168851   3.541   4.734  15.571  2.7265 -1.5396 -0.7533
15812TIP3    H268852   3.579   4.666  15.701  1.3649 -1.8442 -0.5063
15813TIP3   OH268853   2.214   5.171  16.225  0.1275  0.0367  0.3009
15813TIP3    H168854   2.207   5.231  16.151  1.4219  0.1272  0.2246
15813TIP3    H268855   2.146   5.106  16.210 -0.6980  0.9673 -0.1003
15814TIP3   OH268856   5.062   0.223   5.055 -0.0963  0.6974  0.2318
15814TIP3    H168857   5.070   0.235   4.960  0.5724 -0.1581  0.1738
15814TIP3    H268858   5.149   0.196   5.083  0.2393  2.7696  1.3886
15815TIP3   OH268859   1.786   6.109  14.774 -0.3197 -0.1888  0.1253
15815TIP3    H168860   1.868   6.071  14.804 -0.6061 -0.1000  1.0448
15815TIP3    H268861   1.805   6.202  14.763 -0.5787  0.0360  1.4291
15816TIP3   OH268862   0.198   2.683  14.810 -0.4960  0.0961  0.3399
15816TIP3    H168863   0.243   2.626  14.748  0.1830  0.1633  0.7684
15816TIP3    H268864   0.176   2.762  14.759 -2.1949 -0.8493 -0.4879
15817TIP3   OH268865   6.616   4.219   3.211 -0.1517 -0.0778  0.3296
15817TIP3    H168866   6.565   4.273   3.150  0.0563 -0.0797  0.1552
15817TIP3    H268867   6.664   4.282   3.265 -1.9001  0.0256  1.8942
15818TIP3   OH268868   6.555   5.870   6.174  0.5451 -0.2789  0.1709
15818TIP3    H168869   6.639   5.879   6.218  0.3137  1.6251  0.3358
15818TIP3    H268870   6.542   5.954   6.130  0.4546 -1.8282 -3.0611
15819TIP3   OH268871   0.291   2.362  12.913  0.4070  0.5768  0.3356
15819TIP3    H168872   0.250   2.427  12.970  0.6421  0.8767  0.1607
15819TIP3    H268873   0.242   2.368  12.831  0.9409  1.0900  0.0514
15820TIP3   OH268874   2.816   2.315   0.431 -0.1518 -0.0776 -0.1442
15820TIP3    H168875   2.846   2.235   0.473  0.2982  0.6150  0.9183
15820TIP3    H268876   2.736   2.339   0.478  0.8515  1.1972  1.0030
15821TIP3   OH268877   5.125   4.837  16.906  0.5181 -0.2271 -0.2460
15821TIP3    H168878   5.034   4.867  16.906  0.7698  0.6167  0.5993
15821TIP3    H268879   5.149   4.836  16.999  0.9573 -1.7764 -0.3606
15822TIP3   OH268880   3.839   5.666   5.314 -0.0840 -0.1355  0.3706
15822TIP3    H168881   3.831   5.738   5.377 -0.8751  0.8745 -0.8310
15822TIP3    H268882   3.871   5.592   5.366  1.4782  1.2745  1.4995
15823TIP3   OH268883   5.564   4.112  12.867 -0.0450 -0.5591 -0.4068
15823TIP3    H168884   5.653   4.126  12.834 -0.0877 -2.9298 -1.7715
15823TIP3    H268885   5.548   4.019  12.853 -2.2635 -0.4689  1.0824
15824TIP3   OH268886   4.449   3.060   5.441 -0.1155  0.5046  0.2259
15824TIP3    H168887   4.370   3.008   5.427  1.1591 -2.0420  1.6476
15824TIP3    H268888   4.452   3.074   5.536  1.1890  0.4256  0.2164
15825TIP3   OH268889   3.735   2.922  14.556  0.0798 -0.1256  0.0786
15825TIP3    H168890   3.740   3.010  14.591 -1.8350 -1.4990  4.5161
15825TIP3    H268891   3.648   2.917  14.515 -0.8172 -0.4832  1.9231
15826TIP3   OH268892   0.616   6.279  14.150  0.2222  0.1232 -0.4719
15826TIP3    H168893   0.653   6.240  14.230  0.2808 -1.5176 -1.2487
15826TIP3    H268894   0.536   6.322  14.180  0.2337 -0.4748  0.4709
15827TIP3   OH268895   1.674   2.552   2.516  0.0437 -0.2822 -0.0907
15827TIP3    H168896   1.614   2.614   2.474 -1.2000 -1.5415 -0.2451
15827TIP3    H268897   1.678   2.581   2.607  0.8701  1.0343 -0.5079
15828TIP3   OH268898   2.527   3.717  10.885 -0.4516 -0.9983 -0.7801
15828TIP3    H168899   2.539   3.679  10.798  1.2327  0.6190 -1.3532
15828TIP3    H268900   2.616   3.738  10.914 -1.0909 -0.0546  0.6455
15829TIP3   OH268901   3.732   1.363   2.195  0.3771  0.1613  0.1654
15829TIP3    H168902   3.642   1.333   2.208  0.1183  0.8551  0.0156
15829TIP3    H268903   3.748   1.423   2.268  1.7853 -2.2391  1.9772
15830TIP3   OH268904   3.221   3.204  16.398  0.1413 -0.5862 -0.1291
15830TIP3    H168905   3.141   3.157  16.376 -0.9303  0.8710  0.5461
15830TIP3    H268906   3.258   3.230  16.314  0.5015 -2.1591 -0.4933
15831TIP3   OH268907   2.765   3.591  12.179  0.3820 -0.2131 -0.4328
15831TIP3    H168908   2.784   3.507  12.137  0.7609 -2.1624  3.2483
15831TIP3    H268909   2.840   3.646  12.157  2.1948 -2.2505  0.3314
15832TIP3   OH268910   0.879   5.026  11.565  0.4274  0.5443 -0.3295
15832TIP3    H168911   0.907   5.034  11.474  2.3355  1.5810  0.2956
15832TIP3    H268912   0.895   4.934  11.587  1.3000  0.6081 -0.6560
15833TIP3   OH268913   4.371   0.075  12.558  0.8948 -0.3863 -0.2591
15833TIP3    H168914   4.344   0.166  12.569  1.1687 -0.3807  0.4108
15833TIP3    H268915   4.407   0.071  12.469 -2.2979 -0.6472 -1.6731
15834TIP3   OH268916   3.404   0.421  16.583 -0.0080 -0.4899  0.2429
15834TIP3    H168917   3.323   0.395  16.538 -0.4309  0.6729  0.2881
15834TIP3    H268918   3.443   0.338  16.611 -2.1071 -1.0298  1.8595
15835TIP3   OH268919   3.132   0.888  13.996 -0.3877 -0.1922 -0.2252
15835TIP3    H168920   3.227   0.875  14.001 -0.4496 -0.9830 -0.8709
15835TIP3    H268921   3.105   0.904  14.086  0.3476  0.0047 -0.0301
15836TIP3   OH268922   2.250   5.357   1.595 -0.2109  0.3807  0.2988
15836TIP3    H168923   2.300   5.301   1.535 -0.5252  1.1465 -0.7273
15836TIP3    H268924   2.160   5.327   1.587 -0.4038  1.0774 -0.3608
15837TIP3   OH268925   4.703   0.748  11.575  0.4278  0.3124 -0.4948
15837TIP3    H168926   4.795   0.725  11.564  0.2384 -0.2233 -1.0583
15837TIP3    H268927   4.704   0.834  11.615  1.1714 -0.4555  1.2227
15838TIP3   OH268928   0.904   1.676  16.965 -0.3516  0.4558  0.0839
15838TIP3    H168929   0.841   1.719  17.024  0.5806  1.0222  0.6968
15838TIP3    H268930   0.972   1.643  17.023  0.8577  1.4725 -0.6993
15839TIP3   OH268931   6.184   1.508  11.456  0.2625  0.2407 -0.9874
15839TIP3    H168932   6.213   1.456  11.382  0.2169 -0.8536 -0.2626
15839TIP3    H268933   6.262   1.554  11.486  0.8842 -1.3282 -0.1272
15840TIP3   OH268934   1.797   6.157   2.184 -0.3847 -0.0688  0.5794
15840TIP3    H168935   1.744   6.134   2.107 -0.5738  1.3644  0.2461
15840TIP3    H268936   1.828   6.246   2.165  0.7798 -0.2616  1.5197
15841TIP3   OH268937   5.088   4.761  14.474  0.3495  0.1676  0.3084
15841TIP3    H168938   5.014   4.737  14.530 -0.0312 -1.1943 -0.7457
15841TIP3    H268939   5.054   4.833  14.420 -0.7299 -1.3339 -1.1312
15842TIP3   OH268940   0.400   6.555  11.492 -0.5324  0.0932  0.1607
15842TIP3    H168941   0.400   6.616  11.565 -1.6882  0.3877 -0.0559
15842TIP3    H268942   0.310   6.521  11.489 -0.4015 -0.2043 -0.8754
15843TIP3   OH268943   2.018   5.705   5.192  0.0492 -0.3181  0.0206
15843TIP3    H168944   1.993   5.613   5.181  0.9509 -0.5468 -0.1688
15843TIP3    H268945   2.090   5.718   5.132 -0.1554  0.5617 -0.0465
15844TIP3   OH268946   3.125   0.695   4.646  0.0298  0.2212 -0.2308
15844TIP3    H168947   3.171   0.778   4.637 -0.6416  0.7422  0.8685
15844TIP3    H268948   3.191   0.628   4.629  1.1973  0.9453  1.1824
15845TIP3   OH268949   4.085   2.747  13.520  0.2834  0.7025  0.1166
15845TIP3    H168950   4.130   2.670  13.555  0.5790  0.3937 -0.9184
15845TIP3    H268951   4.075   2.805  13.596 -0.3260 -0.5214  1.0190
15846TIP3   OH268952   1.427   5.513  17.000 -0.0584 -0.3448 -0.0906
15846TIP3    H168953   1.452   5.468  16.919  1.8294 -0.7903  0.6865
15846TIP3    H268954   1.489   5.481  17.065 -0.9513  0.7063  1.3315
15847TIP3   OH268955   3.014   2.415   1.221  0.9413  0.0516  0.0581
15847TIP3    H168956   2.972   2.390   1.139  0.4844  0.8721  0.0276
15847TIP3    H268957   3.057   2.499   1.201  0.5555  0.4210  0.7326
15848TIP3   OH268958   6.589   3.619   5.193 -0.1627  0.6536 -0.4604
15848TIP3    H168959   6.595   3.577   5.107  1.3057  0.7639 -0.4387
15848TIP3    H268960   6.599   3.713   5.174  0.7085  0.6350 -0.1278
15849TIP3   OH268961   4.566   5.701   0.529  0.2897 -0.5732 -0.2851
15849TIP3    H168962   4.543   5.693   0.621  1.1032  0.2056 -0.0043
15849TIP3    H268963   4.657   5.729   0.529 -0.4111  1.9442 -1.2806
15850TIP3   OH268964   1.897   5.417  11.755  0.0922 -0.5859  0.1740
15850TIP3    H168965   1.965   5.412  11.688 -0.4890 -0.0143 -0.4840
15850TIP3    H268966   1.937   5.379  11.833  1.5628  0.7840  0.1325
15851TIP3   OH268967   5.833   4.104  11.575  0.3676  0.0987 -0.0882
15851TIP3    H168968   5.822   4.055  11.494  1.6700  0.0891 -0.2655
15851TIP3    H268969   5.746   4.099  11.617 -0.1924 -0.2747 -1.2455
15852TIP3   OH268970   4.850   2.708   5.376  0.1945  0.2717 -0.4203
15852TIP3    H168971   4.773   2.659   5.403  1.4860 -1.7256 -0.1358
15852TIP3    H268972   4.886   2.742   5.458  1.2280 -1.3665 -0.1442
15853TIP3   OH268973   0.203   3.942  11.858  0.5801  0.7552  0.1959
15853TIP3    H168974   0.194   3.949  11.953 -0.7444  1.2682  0.0534
15853TIP3    H268975   0.277   3.999  11.837 -0.3699  2.2346  0.7278
15854TIP3   OH268976   1.659   5.571  12.552 -0.4258  0.5029 -0.4190
15854TIP3    H168977   1.753   5.577  12.563 -0.4846 -0.9394  1.2651
15854TIP3    H268978   1.647   5.510  12.478 -0.0710  1.7069 -1.5028
15855TIP3   OH268979   1.648   2.586  16.983 -0.1089 -0.0950  0.4065
15855TIP3    H168980   1.629   2.496  17.011  1.0384 -0.7139 -0.7595
15855TIP3    H268981   1.617   2.639  17.056  0.1464 -1.4917  1.5968
15856TIP3   OH268982   1.817   2.726  10.876  0.6985 -0.2558 -0.3267
15856TIP3    H168983   1.731   2.753  10.908  0.3111 -2.4192  0.6868
15856TIP3    H268984   1.818   2.751  10.784  0.0703  2.1552  0.2568
15857TIP3   OH268985   5.109   5.474   0.173 -0.2065 -0.5423  0.3374
15857TIP3    H168986   5.021   5.501   0.199 -0.5678 -0.4380 -0.9238
15857TIP3    H268987   5.117   5.503   0.082  1.7841  1.0063  0.9321
15858TIP3   OH268988   0.762   5.595   3.041  0.0287 -0.0646  0.5670
15858TIP3    H168989   0.711   5.611   2.961  1.8069 -0.0073 -0.6074
15858TIP3    H268990   0.799   5.680   3.064 -2.0963  0.3683  2.6986
15859TIP3   OH268991   4.758   0.841  13.570 -0.0580 -0.4127  0.5253
15859TIP3    H168992   4.693   0.887  13.517  0.3548  1.9526  1.9461
15859TIP3    H268993   4.839   0.848  13.519 -0.4484 -1.6434 -0.3214
15860TIP3   OH268994   6.766   3.367   2.951  0.3965  0.1107  0.3357
15860TIP3    H168995   6.739   3.401   2.866 -1.5036  2.1135  1.6401
15860TIP3    H268996   6.862   3.373   2.950  0.2853  4.1570 -0.1638
15861TIP3   OH268997   5.736   4.780   4.139 -0.2531 -0.1910  0.5074
15861TIP3    H168998   5.743   4.687   4.114  0.0594  0.3192 -1.4673
15861TIP3    H268999   5.819   4.818   4.111  1.0637  0.1198  4.3065
15862TIP3   OH269000   2.519   1.543   6.029  0.4165  0.0612 -0.0352
15862TIP3    H169001   2.444   1.485   6.019 -0.9212  1.8066 -0.8209
15862TIP3    H269002   2.515   1.572   6.121  2.0900 -2.2626  0.8676
15863TIP3   OH269003   2.550   3.229   4.918 -0.7340 -0.6283  0.0408
15863TIP3    H169004   2.487   3.180   4.970  0.4183 -0.7200  1.4457
15863TIP3    H269005   2.614   3.260   4.982  1.7176 -2.1616 -1.4690
15864TIP3   OH269006   2.860   1.411   1.102  0.1316  0.7166 -0.2262
15864TIP3    H169007   2.851   1.361   1.020  2.4437  1.5705 -1.0575
15864TIP3    H269008   2.832   1.349   1.170 -1.4979 -0.1365 -1.5835
15865TIP3   OH269009   1.515   0.385  14.267  0.2551 -0.7881 -0.2301
15865TIP3    H169010   1.424   0.357  14.280 -1.0204  2.2824 -1.4770
15865TIP3    H269011   1.522   0.398  14.172  0.4650  3.1903  0.1677
15866TIP3   OH269012   3.344   4.560   5.363  0.3026 -0.0065  0.0045
15866TIP3    H169013   3.353   4.650   5.394  1.1952 -0.1605  0.2054
15866TIP3    H269014   3.410   4.511   5.412  1.5521 -0.3046 -1.8579
15867TIP3   OH269015   1.817   5.661  14.865 -0.4447  0.5905 -0.5782
15867TIP3    H169016   1.844   5.726  14.929 -0.4615  0.3934 -0.3703
15867TIP3    H269017   1.788   5.712  14.789 -1.8753  0.8945  0.1234
15868TIP3   OH269018   3.852   1.613   0.986  0.7558  0.1834 -0.4771
15868TIP3    H169019   3.777   1.602   0.927 -0.0576 -0.8500  0.6756
15868TIP3    H269020   3.875   1.705   0.980  0.5307  0.1603 -2.1837
15869TIP3   OH269021   1.796   3.886   6.837 -0.0668  0.2197 -0.1904
15869TIP3    H169022   1.888   3.878   6.862 -0.2645 -0.4263  0.3757
15869TIP3    H269023   1.771   3.800   6.805 -1.0002 -0.2381  1.5878
15870TIP3   OH269024   3.900   0.440  14.201 -0.4250  0.4576 -0.2616
15870TIP3    H169025   3.958   0.458  14.275 -0.1715 -1.8942  0.2052
15870TIP3    H269026   3.951   0.467  14.124 -0.3218  2.0679  0.3316
15871TIP3   OH269027   2.122   0.981  13.334 -0.4433 -0.4638 -0.3202
15871TIP3    H169028   2.120   0.910  13.397  0.6684  0.6456  1.0281
15871TIP3    H269029   2.215   0.989  13.310 -0.5239  0.6207 -0.3234
15872TIP3   OH269030   2.169   2.322   5.291 -0.6355 -0.2158 -0.1894
15872TIP3    H169031   2.230   2.273   5.346 -1.7234 -0.9207  0.4153
15872TIP3    H269032   2.214   2.405   5.274  0.8371 -1.0240 -0.4380
15873TIP3   OH269033   4.043   1.813   1.864 -0.3056 -0.0200  0.3442
15873TIP3    H169034   4.055   1.718   1.870  0.7286 -0.0778 -1.7820
15873TIP3    H269035   4.125   1.845   1.828 -0.5344  1.7414  1.3099
15874TIP3   OH269036   2.409   6.052   5.837  0.4897 -0.0863  0.2739
15874TIP3    H169037   2.333   5.997   5.816  0.4749 -0.6584  1.7506
15874TIP3    H269038   2.380   6.107   5.910  0.3823  2.2316 -1.3985
15875TIP3   OH269039   3.700   4.684   2.350 -0.1333 -0.6424 -0.0784
15875TIP3    H169040   3.776   4.684   2.408  0.0810 -1.1835 -0.3499
15875TIP3    H269041   3.708   4.764   2.299 -0.1427 -0.3309  0.4053
15876TIP3   OH269042   6.076   0.397  14.194 -0.1222 -0.5628 -0.0541
15876TIP3    H169043   6.017   0.463  14.231 -0.1304 -0.2849 -0.5457
15876TIP3    H269044   6.084   0.422  14.102  0.8195 -0.5676  0.0232
15877TIP3   OH269045   6.021   4.143  17.156 -0.3210  0.0547  0.4797
15877TIP3    H169046   6.048   4.235  17.154  2.1704 -0.6014  0.1766
15877TIP3    H269047   6.103   4.095  17.145 -1.9358 -2.1979 -3.2527
15878TIP3   OH269048   6.306   2.129  12.572 -0.0320 -0.1298 -1.3385
15878TIP3    H169049   6.386   2.121  12.520  0.1550  0.7947 -1.2094
15878TIP3    H269050   6.237   2.094  12.516  0.4228 -0.7018 -1.5494
15879TIP3   OH269051   1.634   1.814   4.968  0.0819  0.4994  0.1198
15879TIP3    H169052   1.711   1.865   4.995 -0.3199  0.6191  1.0557
15879TIP3    H269053   1.671   1.734   4.931  0.6667 -0.0644  1.8164
15880TIP3   OH269054   2.225   0.706  11.334  0.1182 -0.8570  0.1845
15880TIP3    H169055   2.196   0.793  11.360 -2.9652 -1.7805  0.1794
15880TIP3    H269056   2.183   0.691  11.250  3.2251 -1.1823 -1.4495
15881TIP3   OH269057   0.452   4.964  11.551 -0.1027 -0.1809 -0.0472
15881TIP3    H169058   0.511   4.996  11.483  0.7646 -2.4241 -0.4442
15881TIP3    H269059   0.376   4.932  11.503  0.2676 -1.2515  0.0618
15882TIP3   OH269060   5.112   1.598  13.992  0.0017  0.6803 -0.8386
15882TIP3    H169061   5.161   1.670  14.031 -0.3371 -0.1281  1.1579
15882TIP3    H269062   5.025   1.634  13.976  0.1519  1.0280 -0.8730
15883TIP3   OH269063   4.730   6.172   4.222  0.0758  0.7536 -0.2770
15883TIP3    H169064   4.796   6.158   4.290 -0.6513 -0.5778  0.2008
15883TIP3    H269065   4.780   6.196   4.144  1.0388  0.7679  0.3229
15884TIP3   OH269066   4.083   2.037   2.693  0.1808 -0.3784  0.3483
15884TIP3    H169067   4.103   2.128   2.712  0.0624 -0.6013  1.6249
15884TIP3    H269068   4.156   2.006   2.639  1.2635 -0.0912  1.6150
15885TIP3   OH269069   0.894   0.833   5.960 -0.2899 -0.1166 -0.3003
15885TIP3    H169070   0.815   0.783   5.980 -1.0263  0.9131 -0.5637
15885TIP3    H269071   0.957   0.767   5.929 -1.1363 -0.9126 -0.3661
15886TIP3   OH269072   5.135   2.286   0.027 -0.2618 -0.8177 -0.2184
15886TIP3    H169073   5.166   2.370   0.061 -0.2100 -0.1739 -1.7683
15886TIP3    H269074   5.044   2.303   0.001 -0.5225 -1.4801  0.2575
15887TIP3   OH269075   4.771   1.138  14.760  0.4336 -1.0580 -0.3371
15887TIP3    H169076   4.818   1.196  14.820  1.3199 -0.0349 -1.9670
15887TIP3    H269077   4.737   1.069  14.816  1.0166 -0.0140  1.3811
15888TIP3   OH269078   1.755   6.539   5.531  0.0065 -0.2212  0.6413
15888TIP3    H169079   1.678   6.590   5.555  0.7283  1.4883 -0.5095
15888TIP3    H269080   1.734   6.503   5.445  0.3184 -0.1009  0.5137
15889TIP3   OH269081   4.153   4.473   4.345  0.8187 -0.5109 -0.2729
15889TIP3    H169082   4.177   4.415   4.418 -2.4991 -1.4352  0.2546
15889TIP3    H269083   4.197   4.435   4.269  1.6556 -1.5309  0.6741
15890TIP3   OH269084   1.941   5.705   4.841 -0.2121  0.3643 -0.2066
15890TIP3    H169085   1.883   5.668   4.774  0.3123  1.2100 -1.1593
15890TIP3    H269086   2.015   5.644   4.846 -0.3321  0.2121 -0.2750
15891TIP3   OH269087   1.948   3.042  12.148  0.0588  0.1818  0.5857
15891TIP3    H169088   1.978   3.008  12.063 -0.8131 -1.7936  1.0101
15891TIP3    H269089   1.940   2.965  12.203  1.1063  1.4796  2.6749
15892TIP3   OH269090   1.161   5.688  11.711  0.9572 -0.6070 -0.0037
15892TIP3    H169091   1.198   5.773  11.736  0.4288 -0.1578 -0.6864
15892TIP3    H269092   1.069   5.707  11.691 -0.1161 -1.9743  3.1251
15893TIP3   OH269093   4.165   3.003  16.924  0.2434  0.2279  0.4125
15893TIP3    H169094   4.188   3.061  16.997  2.9872  1.3780 -1.2185
15893TIP3    H269095   4.173   3.058  16.847  1.1424 -1.8686 -1.0692
15894TIP3   OH269096   3.964   0.537  11.656  0.0728 -0.2182  0.1338
15894TIP3    H169097   4.054   0.533  11.626 -0.1254  1.0382 -0.7070
15894TIP3    H269098   3.971   0.544  11.751  0.9722  1.6030 -0.0096
15895TIP3   OH269099   5.322   0.465   5.155 -0.1204 -0.7315  0.3907
15895TIP3    H169100   5.275   0.533   5.107  1.0126  0.4433  0.8769
15895TIP3    H269101   5.290   0.473   5.245  2.5651  1.7129  1.2905
15896TIP3   OH269102   4.408   0.123  15.131 -0.2081  0.1686  0.0650
15896TIP3    H169103   4.452   0.038  15.122 -0.7167 -0.0300 -0.6533
15896TIP3    H269104   4.325   0.112  15.085 -0.2358  1.0867 -0.1301
15897TIP3   OH269105   6.331   1.184   1.424  0.1050  0.3123  0.0405
15897TIP3    H169106   6.316   1.091   1.406 -1.5389  0.5779 -0.1712
15897TIP3    H269107   6.278   1.230   1.359 -0.1913  1.3674  0.9804
15898TIP3   OH269108   0.705   0.670  15.414  0.0721 -0.1110  0.3112
15898TIP3    H169109   0.645   0.657  15.341  3.1866 -0.3524 -2.4237
15898TIP3    H269110   0.738   0.759  15.404  1.2449 -0.4625  0.8436
15899TIP3   OH269111   2.948   5.078   0.463  0.0326 -0.4096  0.1467
15899TIP3    H169112   2.916   4.996   0.425 -0.4238 -0.1621 -0.0146
15899TIP3    H269113   2.992   5.123   0.391  1.0111 -0.8786  0.4401
15900TIP3   OH269114   5.073   3.078  15.264 -0.1860 -0.5714  0.2594
15900TIP3    H169115   5.037   3.155  15.220 -1.7527 -0.4755  1.5813
15900TIP3    H269116   5.004   3.012  15.255 -0.3782 -0.6753  2.1258
15901TIP3   OH269117   2.777   6.633  15.188 -0.0139 -0.0370 -0.1001
15901TIP3    H169118   2.788   6.680  15.270 -0.1788 -0.1419 -0.0160
15901TIP3    H269119   2.698   6.671  15.148 -0.3471 -0.4716  0.1328
15902TIP3   OH269120   1.132   1.000  16.932 -0.3878 -0.4741  0.0725
15902TIP3    H169121   1.059   1.019  16.873  0.8722  0.5101 -1.2523
15902TIP3    H269122   1.187   1.078  16.929  2.0300 -2.0722 -1.0160
15903TIP3   OH269123   0.679   5.137   4.621  0.0008 -0.0426 -0.4394
15903TIP3    H169124   0.695   5.116   4.529 -1.8620  0.7081 -0.9641
15903TIP3    H269125   0.749   5.198   4.644  1.5500 -1.6045 -0.8012
15904TIP3   OH269126   4.722   1.838   3.729  0.2592  0.1600  0.3395
15904TIP3    H169127   4.765   1.903   3.673 -0.8492  2.2733  1.8111
15904TIP3    H269128   4.792   1.806   3.786  0.6037  0.8826  0.3376
15905TIP3   OH269129   3.433   4.581   4.011  0.0636  0.1645 -0.1685
15905TIP3    H169130   3.425   4.665   4.056 -0.3609  0.1347 -0.1909
15905TIP3    H269131   3.406   4.516   4.076  2.2580 -0.1492  0.5323
15906TIP3   OH269132   1.920   6.410   2.211 -0.3862  0.2893  0.3600
15906TIP3    H169133   1.990   6.460   2.168  1.7774 -2.1233  0.8443
15906TIP3    H269134   1.874   6.475   2.266  0.5891  2.2116 -0.9821
15907TIP3   OH269135   4.934   2.593  13.780  0.1680  0.4727 -0.5824
15907TIP3    H169136   4.967   2.679  13.757 -1.7511  2.0181  1.8842
15907TIP3    H269137   4.854   2.583  13.728 -1.1046  1.5019  1.0452
15908TIP3   OH269138   1.883   3.403  16.668  0.2920 -0.2389 -1.1725
15908TIP3    H169139   1.892   3.400  16.572  2.2920 -0.1732 -1.0261
15908TIP3    H269140   1.929   3.483  16.694  2.2870 -1.6673  0.0324
15909TIP3   OH269141   3.990   6.495  11.145  0.1663  0.0137 -0.0437
15909TIP3    H169142   4.057   6.456  11.089 -1.7302 -2.3866 -0.8137
15909TIP3    H269143   3.907   6.474  11.102 -1.2538  0.1713  2.4047
15910TIP3   OH269144   6.253   3.369   1.913  0.1639  0.0130  0.0396
15910TIP3    H169145   6.292   3.300   1.968  0.2875  0.3201  0.3452
15910TIP3    H269146   6.255   3.334   1.825 -1.1308 -0.9823  0.3855
15911TIP3   OH269147   2.303   0.892  11.758  0.3960  0.3223  0.2457
15911TIP3    H169148   2.354   0.956  11.708 -1.7697  2.0609  0.1523
15911TIP3    H269149   2.214   0.925  11.757 -0.6273 -2.1454  1.1797
15912TIP3   OH269150   1.115   1.612  15.624 -0.1707 -0.3789  0.3581
15912TIP3    H169151   1.129   1.527  15.582  0.6010 -0.8752  1.5570
15912TIP3    H269152   1.099   1.591  15.716  1.8594  0.8103  1.0658
15913TIP3   OH269153   6.310   2.891  12.915 -0.9146 -0.4806 -0.0616
15913TIP3    H169154   6.300   2.970  12.862 -0.0878 -0.2453  0.1176
15913TIP3    H269155   6.234   2.892  12.973 -0.7278  0.3887  0.1934
15914TIP3   OH269156   3.698   1.651   1.863 -0.5232  0.3083  0.2705
15914TIP3    H169157   3.714   1.723   1.924  2.2478 -0.3234  0.4091
15914TIP3    H269158   3.617   1.610   1.895  0.1304  0.7844  2.7897
15915TIP3   OH269159   5.716   4.238   2.591  0.5882 -0.2407  1.0201
15915TIP3    H169160   5.654   4.265   2.659  1.2475  0.4065  1.3762
15915TIP3    H269161   5.793   4.208   2.639  1.6326  1.5722  0.5947
15916TIP3   OH269162   0.155   2.144   3.399 -0.3228 -0.4354  0.3857
15916TIP3    H169163   0.085   2.175   3.457 -0.9138  3.3158 -2.0057
15916TIP3    H269164   0.126   2.166   3.311  3.0011 -0.5824 -0.9192
15917TIP3   OH269165   1.499   4.435  15.457 -0.1573 -0.2116  0.3894
15917TIP3    H169166   1.467   4.439  15.548  0.8837 -1.8444  0.8754
15917TIP3    H269167   1.589   4.403  15.466 -0.2569 -1.0111 -1.2691
15918TIP3   OH269168   6.674   6.163   1.509  0.3903  0.0647 -0.1800
15918TIP3    H169169   6.638   6.250   1.487  0.1919  0.4475  1.4936
15918TIP3    H269170   6.763   6.181   1.537 -0.4082  0.1243  2.5630
15919TIP3   OH269171   3.118   6.206   3.562  0.1426 -0.1297  0.2250
15919TIP3    H169172   3.178   6.135   3.584  0.7945  0.3474  0.0229
15919TIP3    H269173   3.161   6.253   3.490 -0.3355  0.3925  0.2660
15920TIP3   OH269174   4.500   1.938  10.628  0.3857  0.2585 -0.0348
15920TIP3    H169175   4.546   1.906  10.550  0.1760 -0.1091 -0.0087
15920TIP3    H269176   4.495   2.033  10.616 -3.0063 -0.0283 -2.3478
15921TIP3   OH269177   1.424   6.761  15.849  0.5368 -0.2843  0.5919
15921TIP3    H169178   1.463   6.680  15.879  0.8452 -0.9245 -1.3803
15921TIP3    H269179   1.357   6.734  15.786  0.9423  0.9731 -0.4426
15922TIP3   OH269180   4.679   4.661  12.531 -0.6344 -0.0946 -0.0249
15922TIP3    H169181   4.713   4.590  12.477 -1.6690  0.0844 -0.9396
15922TIP3    H269182   4.708   4.639  12.620  2.3325  0.3388 -0.7569
15923TIP3   OH269183   2.972   2.054  11.337  0.4099  0.4620  0.4682
15923TIP3    H169184   2.893   2.053  11.284 -0.2557 -2.1148  1.3986
15923TIP3    H269185   3.043   2.067  11.274 -0.5679  0.2262 -0.7055
15924TIP3   OH269186   5.033   2.300  16.857  0.1328 -0.2431  0.1965
15924TIP3    H169187   5.064   2.291  16.947  0.7330  5.2712  0.8844
15924TIP3    H269188   5.090   2.242  16.806  3.3969  0.3101  2.8345
15925TIP3   OH269189   5.455   6.521   5.260  0.3402  0.3403 -0.9856
15925TIP3    H169190   5.387   6.578   5.296  1.6274 -0.2472  2.8920
15925TIP3    H269191   5.535   6.574   5.262  1.2800 -0.9860  1.3770
15926TIP3   OH269192   1.637   5.738  13.468 -0.4053 -0.4369  0.5139
15926TIP3    H169193   1.552   5.743  13.426 -0.2228 -0.0226  0.1807
15926TIP3    H269194   1.667   5.648  13.453  0.0117 -0.0841 -0.9675
15927TIP3   OH269195   2.190   2.409   1.485 -0.0438  0.4672 -0.1479
15927TIP3    H169196   2.228   2.363   1.411  1.4377 -1.2665  1.5864
15927TIP3    H269197   2.214   2.356   1.562  0.9235  3.5807  1.8974
15928TIP3   OH269198   0.404   2.599   3.728 -0.2120 -0.3789  0.4848
15928TIP3    H169199   0.312   2.575   3.734 -0.3431 -0.0016  0.0597
15928TIP3    H269200   0.411   2.649   3.646  0.7384 -2.0525 -0.5032
15929TIP3   OH269201   0.291   3.326   0.453  0.4416  0.1216  0.2027
15929TIP3    H169202   0.268   3.399   0.511  1.0120  0.3833  0.1054
15929TIP3    H269203   0.278   3.360   0.365  0.9160  0.1790  0.1526
15930TIP3   OH269204   3.606   6.218   0.520  0.0913 -0.4568  0.5819
15930TIP3    H169205   3.559   6.230   0.602 -0.3523 -2.2650  0.6427
15930TIP3    H269206   3.540   6.181   0.460  0.7159 -0.3074 -0.2173
15931TIP3   OH269207   0.737   3.846  16.736  0.4192  0.2685  0.4076
15931TIP3    H169208   0.702   3.757  16.742  0.7191  0.0782 -0.5447
15931TIP3    H269209   0.660   3.903  16.741 -0.2952 -0.1748 -3.1262
15932TIP3   OH269210   2.879   2.138  10.902  0.0670 -0.5663 -0.6327
15932TIP3    H169211   2.875   2.110  10.810  1.6641  0.1428 -0.9574
15932TIP3    H269212   2.972   2.132  10.924 -0.1415  0.4132  0.5844
15933TIP3   OH269213   0.431   2.668   2.188  0.5573 -0.1433 -0.0732
15933TIP3    H169214   0.472   2.585   2.212  0.0252 -1.0849 -2.2117
15933TIP3    H269215   0.338   2.646   2.174  0.5057  0.6875 -1.1609
15934TIP3   OH269216   5.451   2.054   4.723  0.0480 -1.1255  0.2382
15934TIP3    H169217   5.482   1.965   4.739 -0.3476 -1.3835 -0.3846
15934TIP3    H269218   5.411   2.050   4.636  0.7967 -0.1371 -0.1734
15935TIP3   OH269219   1.419   0.669  16.910 -0.0574  0.5816  0.4358
15935TIP3    H169220   1.339   0.716  16.886 -0.8023 -0.7841  0.1132
15935TIP3    H269221   1.487   0.737  16.915 -0.5626  1.4174 -2.2988
15936TIP3   OH269222   0.773   4.312   3.562  0.2491  0.1212 -0.0032
15936TIP3    H169223   0.845   4.256   3.593  0.8341  0.2458 -1.1012
15936TIP3    H269224   0.694   4.274   3.601  0.7999 -0.6216  0.4021
15937TIP3   OH269225   5.356   4.384   2.648 -0.0040  0.5853  1.3085
15937TIP3    H169226   5.328   4.441   2.720 -0.9947  1.8988 -0.0346
15937TIP3    H269227   5.403   4.442   2.588 -0.8195 -0.0344  0.0089
15938TIP3   OH269228   3.610   4.160  15.201  0.2248  0.2768  0.7222
15938TIP3    H169229   3.618   4.242  15.250 -0.9230  1.1038 -0.4337
15938TIP3    H269230   3.576   4.186  15.116 -1.7974 -1.5652  0.8837
15939TIP3   OH269231   0.067   4.982  17.278  0.4204 -0.1368  0.1442
15939TIP3    H169232   0.131   4.931  17.228  2.0820  0.3385  1.6840
15939TIP3    H269233   0.095   4.973  17.369  0.7783  3.3724  0.5137
15940TIP3   OH269234   1.708   2.498   1.198  0.3522 -0.1042  0.5457
15940TIP3    H169235   1.765   2.559   1.245  1.5379 -1.2979  0.7430
15940TIP3    H269236   1.631   2.549   1.175  0.7215  1.0964  1.8565
15941TIP3   OH269237   1.442   2.461  15.759  0.4490  0.2483 -0.6524
15941TIP3    H169238   1.371   2.525  15.760 -2.2316 -2.4801  0.4854
15941TIP3    H269239   1.468   2.451  15.850 -0.5230 -1.5038 -0.5059
15942TIP3   OH269240   3.447   2.919  17.176 -0.1829 -0.0253 -0.6986
15942TIP3    H169241   3.536   2.887  17.164 -0.6872 -0.7706 -2.9484
15942TIP3    H269242   3.430   2.910  17.270  0.7042 -3.7899 -0.7729
15943TIP3   OH269243   5.210   0.426  15.961 -0.3246  0.3643 -0.9526
15943TIP3    H169244   5.251   0.382  15.887 -0.8012  1.1249 -1.6868
15943TIP3    H269245   5.136   0.370  15.984 -0.6779  0.5545 -1.6062
15944TIP3   OH269246   6.708   6.526  13.290  0.2626 -0.4780 -0.2998
15944TIP3    H169247   6.651   6.600  13.268 -0.0964 -0.7274 -0.2251
15944TIP3    H269248   6.795   6.564  13.301 -0.0376  0.0229  0.3557
15945TIP3   OH269249   1.611   0.561  12.578 -0.1397  0.3073  0.0727
15945TIP3    H169250   1.639   0.580  12.489  2.1818  0.9060  0.8496
15945TIP3    H269251   1.576   0.643  12.611  1.8971  0.9827  0.6670
15946TIP3   OH269252   4.904   4.421  13.060  0.9207  0.0105  0.3025
15946TIP3    H169253   4.814   4.410  13.030  1.0630  0.5419 -0.3275
15946TIP3    H269254   4.897   4.479  13.136  1.0275  3.0322 -1.8482
15947TIP3   OH269255   5.660   0.669   0.043  0.1001  0.0836  0.3212
15947TIP3    H169256   5.663   0.761   0.069 -0.6233 -0.0452  0.8809
15947TIP3    H269257   5.743   0.655  -0.003  0.1269  1.0694  0.0284
15948TIP3   OH269258   6.524   4.445   0.972  0.3515 -0.5331 -0.3905
15948TIP3    H169259   6.480   4.374   1.019  0.6526 -0.6297 -0.2538
15948TIP3    H269260   6.602   4.405   0.935  0.2944 -0.3739 -0.6810
15949TIP3   OH269261   6.754   4.662   5.770 -0.0798  0.2300  1.0268
15949TIP3    H169262   6.666   4.677   5.804 -0.8048 -0.5971 -0.3549
15949TIP3    H269263   6.775   4.572   5.796  1.3343  1.1337  3.2762
15950TIP3   OH269264   0.368   5.754  17.290  0.3366  0.2214  0.2158
15950TIP3    H169265   0.299   5.820  17.299  0.4256  0.8601 -2.6456
15950TIP3    H269266   0.322   5.675  17.263  0.6336  0.7663 -2.1417
15951TIP3   OH269267   0.840   2.838  14.832  0.4643 -0.2136  0.2089
15951TIP3    H169268   0.868   2.913  14.780  0.7145 -0.2169  0.3407
15951TIP3    H269269   0.920   2.789  14.849  0.2721 -0.6223 -0.0546
15952TIP3   OH269270   0.014   5.104   1.552  0.4141 -0.1864 -0.3909
15952TIP3    H169271  -0.045   5.041   1.511  0.1394  1.0962 -2.0667
15952TIP3    H269272   0.008   5.085   1.646 -1.6115 -0.9760 -0.6297
15953TIP3   OH269273   3.082   0.025  16.783  0.2805 -0.1796 -0.2741
15953TIP3    H169274   3.036   0.021  16.699  0.3645  0.8104 -0.3824
15953TIP3    H269275   3.167  -0.016  16.765 -0.2085 -1.2025 -0.3067
15954TIP3   OH269276   6.355   2.275  11.776  0.2933 -0.0156  0.1371
15954TIP3    H169277   6.397   2.354  11.743  0.8910 -0.3269  0.1407
15954TIP3    H269278   6.335   2.225  11.697 -1.0406  0.5970  0.0587
15955TIP3   OH269279   3.925   2.257   4.404  0.2557 -0.9785  0.3465
15955TIP3    H169280   3.920   2.318   4.330 -1.1256 -1.7972 -0.2834
15955TIP3    H269281   3.983   2.188   4.373  0.1189 -1.0430  0.2312
15956TIP3   OH269282   6.040   0.084   3.599 -0.1611  0.5254  0.2395
15956TIP3    H169283   6.132   0.058   3.607 -0.4439 -1.1968 -1.3837
15956TIP3    H269284   6.040   0.178   3.617  1.7028  0.3334  1.5566
15957TIP3   OH269285   1.602   3.873  11.956  0.6281  0.1186  0.7691
15957TIP3    H169286   1.574   3.826  11.878  0.6092  0.6300  0.4635
15957TIP3    H269287   1.621   3.804  12.020 -1.9702 -0.2658  1.2472
15958TIP3   OH269288   6.461   0.493   4.719  0.2676  0.4727 -0.0547
15958TIP3    H169289   6.490   0.437   4.647  1.4396  1.0681 -0.0746
15958TIP3    H269290   6.462   0.437   4.796  1.7533  0.5117 -0.0124
15959TIP3   OH269291   6.063   4.473   0.505  0.3652 -0.5934  0.4118
15959TIP3    H169292   6.013   4.540   0.459  0.8907 -0.6321 -0.2226
15959TIP3    H269293   5.998   4.429   0.560 -0.2372 -0.4375 -0.1636
15960TIP3   OH269294   2.408   1.439  13.281 -0.1780 -0.2069  0.1996
15960TIP3    H169295   2.413   1.394  13.196  0.6879  1.4271 -0.6577
15960TIP3    H269296   2.490   1.488  13.286 -0.3383 -0.0875  1.8923
15961TIP3   OH269297   5.127   0.976   1.563 -0.1312  0.0957 -0.3048
15961TIP3    H169298   5.138   1.025   1.482 -0.6274 -0.6578 -0.8322
15961TIP3    H269299   5.158   1.036   1.631  0.0068  0.8449 -1.0142
15962TIP3   OH269300   3.651   4.153   4.069  0.0455  0.1828  0.4443
15962TIP3    H169301   3.598   4.104   4.006 -0.1091  0.8041  0.0911
15962TIP3    H269302   3.665   4.239   4.029  2.5524 -0.4102 -0.1478
15963TIP3   OH269303   6.043   3.031  13.740  0.8674 -0.4119 -0.2807
15963TIP3    H169304   6.056   2.945  13.781  1.4512 -0.1351  0.1293
15963TIP3    H269305   6.001   3.084  13.807 -2.1802 -1.1611 -1.4468
15964TIP3   OH269306   3.753   2.019  13.926 -0.2114  0.0286  0.0261
15964TIP3    H169307   3.661   2.044  13.918 -0.6947 -1.5426  0.3435
15964TIP3    H269308   3.777   2.042  14.015  0.0378  1.4223 -0.3792
15965TIP3   OH269309   3.546   4.411   3.560  0.3050 -0.3311  0.7273
15965TIP3    H169310   3.611   4.345   3.585  1.2755  0.6130  0.7241
15965TIP3    H269311   3.463   4.373   3.590  0.7343 -1.8762  0.0856
15966TIP3   OH269312   5.968   1.658  14.112  0.0317 -0.1082  0.6427
15966TIP3    H169313   5.958   1.601  14.036  0.0397  1.7141 -0.7884
15966TIP3    H269314   5.878   1.680  14.138 -0.0294  2.0211 -1.0771
15967TIP3   OH269315   3.375   4.884   1.418 -0.5724  0.0059 -0.5370
15967TIP3    H169316   3.429   4.954   1.380 -0.2465  0.5617  0.8720
15967TIP3    H269317   3.304   4.930   1.462 -0.7475 -0.5865 -0.1909
15968TIP3   OH269318   3.006   6.221  12.836  0.0226  0.4525  0.0863
15968TIP3    H169319   2.942   6.152  12.851  0.1092  0.3364 -0.0834
15968TIP3    H269320   2.987   6.252  12.748 -0.8504  1.5125  0.6195
15969TIP3   OH269321   2.117   4.699  13.424  0.2450 -0.6586 -0.0736
15969TIP3    H169322   2.077   4.651  13.496  0.0525  2.1131  1.8664
15969TIP3    H269323   2.212   4.690  13.439  0.2449  1.6791  2.0152
15970TIP3   OH269324   2.258   0.988   0.181 -0.5684  0.6846  0.6648
15970TIP3    H169325   2.326   1.052   0.203  0.0073  0.6058 -0.7827
15970TIP3    H269326   2.190   1.040   0.139 -0.1744  0.3971 -0.3621
15971TIP3   OH269327   0.692   4.439   1.855 -0.1074 -0.2035  0.3906
15971TIP3    H169328   0.718   4.516   1.905 -2.0876  0.5416  0.3842
15971TIP3    H269329   0.621   4.400   1.906  0.5414 -1.7607  0.1524
15972TIP3   OH269330   4.551   1.401  11.358 -0.3996  0.4411  0.5265
15972TIP3    H169331   4.614   1.330  11.367 -1.7833 -0.9559 -0.2432
15972TIP3    H269332   4.475   1.360  11.316 -1.1706  2.4274 -0.1317
15973TIP3   OH269333   0.112   1.183  13.895 -0.8593 -0.3194  0.4673
15973TIP3    H169334   0.041   1.218  13.949 -1.4098  0.2311 -0.5953
15973TIP3    H269335   0.100   1.224  13.809  0.6918 -0.2755  0.2364
15974TIP3   OH269336   1.400   1.352   0.576  0.2213 -0.3171  0.3024
15974TIP3    H169337   1.370   1.426   0.629  2.6327  0.0088  1.3619
15974TIP3    H269338   1.327   1.335   0.516 -1.8813  0.5504  2.4129
15975TIP3   OH269339   6.326   0.604  15.114 -0.1138  0.2554  0.6880
15975TIP3    H169340   6.354   0.691  15.140  2.3263  0.2445 -1.5261
15975TIP3    H269341   6.247   0.619  15.061 -0.6748  0.9188  1.6863
15976TIP3   OH269342   1.662   4.409   1.089  0.6938 -0.2310  0.1828
15976TIP3    H169343   1.601   4.344   1.125  1.2021 -0.9204 -0.1780
15976TIP3    H269344   1.715   4.360   1.027 -0.7861  1.1116 -2.3124
15977TIP3   OH269345   0.345   4.604   1.395 -0.0667 -0.0589  0.3767
15977TIP3    H169346   0.299   4.657   1.331  1.0467 -0.5940 -0.9304
15977TIP3    H269347   0.340   4.515   1.361  2.2170 -0.0891 -0.0510
15978TIP3   OH269348   6.278   3.095  13.161 -0.2347 -0.0939  0.6473
15978TIP3    H169349   6.272   3.013  13.211  1.2576  0.3111  1.5545
15978TIP3    H269350   6.247   3.162  13.221 -0.7007  0.1114  0.1809
15979TIP3   OH269351   4.457   5.293  10.890 -0.4031  0.3707 -0.4364
15979TIP3    H169352   4.459   5.322  10.982 -0.3386 -0.4130 -0.1859
15979TIP3    H269353   4.530   5.233  10.882 -0.0461  0.8959 -1.1712
15980TIP3   OH269354   4.123   2.473   0.021  0.3043 -0.3045 -0.1592
15980TIP3    H169355   4.053   2.538   0.012  1.1515  1.3281  3.2596
15980TIP3    H269356   4.119   2.446   0.113  1.4139 -3.5597 -0.9140
15981TIP3   OH269357   1.426   3.708  10.505  0.5211 -0.1014 -0.2473
15981TIP3    H169358   1.331   3.699  10.505  0.6535 -2.0947 -1.4737
15981TIP3    H269359   1.445   3.760  10.427  0.5621 -3.1127 -2.4343
15982TIP3   OH269360   3.767   1.795   4.052  0.5989  0.3568  0.0564
15982TIP3    H169361   3.852   1.828   4.024  0.3318  0.7771 -0.2764
15982TIP3    H269362   3.761   1.818   4.145  1.0662 -0.1414  0.2125
15983TIP3   OH269363   0.945   0.345  16.880  0.6802 -0.1672 -0.0292
15983TIP3    H169364   0.864   0.395  16.890 -0.8630 -2.1111 -1.9432
15983TIP3    H269365   0.955   0.333  16.786  2.7109 -0.7844  0.2153
15984TIP3   OH269366   1.401   5.952   3.533 -1.1074 -0.3568  0.4194
15984TIP3    H169367   1.305   5.949   3.541 -1.1652  2.1455  2.0441
15984TIP3    H269368   1.425   6.036   3.573  1.6729 -0.2750 -1.1698
15985TIP3   OH269369   1.849   6.711   3.569  0.3533 -0.2996 -0.2856
15985TIP3    H169370   1.820   6.712   3.478 -0.9965 -3.6316 -0.0130
15985TIP3    H269371   1.930   6.659   3.568 -1.5608 -3.5715  0.7225
15986TIP3   OH269372   1.609   4.163  10.741  0.2202  0.3138 -0.1082
15986TIP3    H169373   1.663   4.111  10.801  1.5954  0.4916 -1.1595
15986TIP3    H269374   1.666   4.234  10.712 -0.5699  0.5008 -1.2607
15987TIP3   OH269375   5.141   0.350   2.244  0.3577  0.1478 -0.5399
15987TIP3    H169376   5.185   0.293   2.181 -1.3283 -0.8728 -0.8641
15987TIP3    H269377   5.110   0.424   2.191 -0.1885 -0.2150 -0.7380
15988TIP3   OH269378   0.622   5.934   1.800  0.4616  0.0302 -0.1634
15988TIP3    H169379   0.556   5.886   1.749 -0.1758 -0.3167  0.9418
15988TIP3    H269380   0.660   5.868   1.857  0.9615  0.4622  0.0078
15989TIP3   OH269381   2.783   2.524   5.365  0.7189  0.2127  0.2253
15989TIP3    H169382   2.734   2.478   5.434  0.5240  0.3327  0.1663
15989TIP3    H269383   2.720   2.584   5.326  0.6696 -0.2575 -0.4378
15990TIP3   OH269384   5.903   3.583  17.097 -1.0668  0.2302  0.4109
15990TIP3    H169385   5.872   3.522  17.030  0.1996  0.8753 -0.8208
15990TIP3    H269386   5.887   3.539  17.180 -2.9428 -0.4760 -0.2849
15991TIP3   OH269387   5.971   3.138   0.447  0.4019 -0.5652 -1.0136
15991TIP3    H169388   6.045   3.179   0.492 -1.0319 -0.3283  1.2797
15991TIP3    H269389   5.980   3.045   0.467 -0.8711 -0.3334  0.8831
15992TIP3   OH269390   3.940   2.149   4.675  0.4507 -0.5505 -0.0279
15992TIP3    H169391   4.034   2.164   4.687  0.5453 -1.2592  0.1653
15992TIP3    H269392   3.916   2.208   4.604  1.4611 -1.7595 -1.4438
15993TIP3   OH269393   3.622   0.368   3.908  0.5165 -0.0549 -0.2982
15993TIP3    H169394   3.669   0.353   3.826 -0.0913 -1.7231 -0.3861
15993TIP3    H269395   3.625   0.284   3.953 -0.7173  0.3349  0.5713
15994TIP3   OH269396   3.647   4.601   0.422  0.9646  0.2600  0.1062
15994TIP3    H169397   3.681   4.690   0.406  0.3851  0.2646 -1.3224
15994TIP3    H269398   3.552   4.613   0.428  1.0284  0.0106  2.2000
15995TIP3   OH269399   1.920   1.433   3.890 -0.1413  0.1214 -0.3198
15995TIP3    H169400   1.935   1.511   3.943  0.8972  0.6866 -1.3859
15995TIP3    H269401   1.999   1.424   3.837 -0.7535 -0.9548 -1.1079
15996TIP3   OH269402   1.592   5.914   5.869  0.7217  0.0782 -0.2211
15996TIP3    H169403   1.618   5.833   5.824  2.2343  0.0029  0.7233
15996TIP3    H269404   1.555   5.884   5.952  0.7828  0.3318 -0.1021
15997TIP3   OH269405   3.921   6.370   1.189  0.1701  0.6990  0.3797
15997TIP3    H169406   4.001   6.420   1.176  0.6123 -0.4294 -1.9332
15997TIP3    H269407   3.943   6.306   1.257  1.5036 -0.0002 -0.6508
15998TIP3   OH269408   3.825   1.789  17.053 -0.0839 -0.8313 -0.1769
15998TIP3    H169409   3.742   1.814  17.011  0.1929  0.1215 -0.1875
15998TIP3    H269410   3.840   1.857  17.118  0.8857 -0.7745 -0.4455
15999TIP3   OH269411   3.016   6.386   0.560  0.2073 -0.0401 -0.0879
15999TIP3    H169412   2.974   6.325   0.500 -1.3779 -0.8234  1.7136
15999TIP3    H269413   2.944   6.430   0.604  1.2505 -0.2925  1.9967
16000TIP3   OH269414   0.951   4.576   0.243 -0.0802 -0.1057 -0.0400
16000TIP3    H169415   0.942   4.526   0.325  0.6420 -0.9321 -0.4497
16000TIP3    H269416   0.908   4.521   0.177 -1.5388  1.0105 -0.0811
16001TIP3   OH269417   1.823   4.430   3.101  0.1144  0.9961  0.3955
16001TIP3    H169418   1.810   4.427   3.196  0.9397 -1.3138  0.4947
16001TIP3    H269419   1.734   4.440   3.065 -0.0875  3.2892  1.3799
16002TIP3   OH269420   2.079   3.641  14.572  0.2070 -0.1394  0.7264
16002TIP3    H169421   2.040   3.570  14.623  1.6655 -2.8006 -1.6045
16002TIP3    H269422   2.171   3.641  14.598  0.4598  0.0949 -0.1305
16003TIP3   OH269423   0.126   5.939   4.758 -0.1941  0.7075 -0.3360
16003TIP3    H169424   0.182   5.983   4.694  0.1573  0.6907 -0.0440
16003TIP3    H269425   0.161   5.966   4.843  0.6029 -0.8523 -0.1335
16004TIP3   OH269426   1.702   0.379   1.012 -0.9210  0.4077  0.2310
16004TIP3    H169427   1.760   0.404   0.941 -1.2248  0.9122  0.1504
16004TIP3    H269428   1.679   0.462   1.054  0.3788  0.0204  1.8204
16005TIP3   OH269429   1.104   2.152  17.249 -0.1491  0.1742  0.0794
16005TIP3    H169430   1.149   2.232  17.278 -0.1356  1.0308 -2.1377
16005TIP3    H269431   1.041   2.183  17.184 -0.2811 -1.6072 -0.6888
16006TIP3   OH269432   4.488   3.040   3.086  0.2131 -0.5341 -0.2918
16006TIP3    H169433   4.462   3.133   3.084 -2.1880 -1.1153  0.5651
16006TIP3    H269434   4.496   3.016   2.994 -1.7557 -0.1015 -0.6209
16007TIP3   OH269435   0.602   4.706  14.958  0.0562 -0.3134  0.6966
16007TIP3    H169436   0.563   4.631  14.912  1.0932 -2.8698  3.6478
16007TIP3    H269437   0.695   4.701  14.936  0.1726 -0.0285  1.1227
16008TIP3   OH269438   6.534   6.686   3.235 -0.1894 -0.7782  0.2567
16008TIP3    H169439   6.600   6.618   3.220  0.6769 -0.2231  1.3369
16008TIP3    H269440   6.470   6.674   3.165  0.7298 -1.7461 -0.4527
16009TIP3   OH269441   4.549   5.328  16.659 -0.2223  0.5244  0.3785
16009TIP3    H169442   4.515   5.301  16.574  0.6135  0.3050  0.1048
16009TIP3    H269443   4.500   5.407  16.680 -3.9691 -1.9384  1.9704
16010TIP3   OH269444   5.103   2.713  11.378  0.0026 -0.0627  0.1850
16010TIP3    H169445   5.160   2.657  11.431  0.4489 -0.6762 -0.9037
16010TIP3    H269446   5.035   2.654  11.347 -0.9765  0.5654  1.0761
16011TIP3   OH269447   4.534   0.431  14.316  0.4094 -0.2392  0.3001
16011TIP3    H169448   4.464   0.367  14.320 -0.3735  0.6479  1.9739
16011TIP3    H269449   4.598   0.400  14.381 -0.0720  0.7418  1.2702
16012TIP3   OH269450   3.415   4.211  11.965 -0.6710 -0.0591  0.9679
16012TIP3    H169451   3.390   4.218  12.057  0.7067  0.9420  1.2938
16012TIP3    H269452   3.416   4.117  11.948 -0.9508 -0.2570  1.9663
16013TIP3   OH269453   6.164   4.310  12.727  0.3341 -0.0852 -0.8663
16013TIP3    H169454   6.134   4.278  12.642 -2.7719 -0.3828  0.2131
16013TIP3    H269455   6.143   4.239  12.788 -1.4412  1.6958  0.7296
16014TIP3   OH269456   4.913   6.676   1.052 -0.4076 -0.2527  0.2628
16014TIP3    H169457   4.891   6.725   1.131 -4.6797 -1.2346 -0.1205
16014TIP3    H269458   4.905   6.740   0.981  2.2131  0.3158  0.3540
16015TIP3   OH269459   5.875   4.976   1.147 -0.0912  0.0773  0.3867
16015TIP3    H169460   5.837   5.000   1.232 -2.0536 -0.9432 -0.1316
16015TIP3    H269461   5.856   5.050   1.090  2.4623  1.3838  1.1044
16016TIP3   OH269462   0.709   4.138   5.804 -0.1144  0.3299  0.2874
16016TIP3    H169463   0.655   4.205   5.846 -0.4916 -0.4108  1.0103
16016TIP3    H269464   0.773   4.114   5.870 -1.0352 -1.2187  0.6710
16017TIP3   OH269465   0.062   4.791  15.365  0.2790 -0.0007  0.0890
16017TIP3    H169466   0.136   4.809  15.308 -0.3578 -1.0976 -1.1676
16017TIP3    H269467   0.032   4.876  15.396  1.0656  0.5614 -0.6884
16018TIP3   OH269468   1.169   5.568  12.679  0.3487  0.7199 -0.2513
16018TIP3    H169469   1.141   5.536  12.765  0.2742  0.6468 -0.3027
16018TIP3    H269470   1.265   5.572  12.685  0.4877 -0.9719 -0.7459
16019TIP3   OH269471   4.899   2.728   0.866 -0.8097  1.0065  0.5293
16019TIP3    H169472   4.857   2.806   0.902 -0.9003  0.6809  1.1479
16019TIP3    H269473   4.980   2.719   0.916  1.5937  3.2665 -2.5157
16020TIP3   OH269474   3.051   5.589  16.677 -0.3481 -0.0052 -0.1279
16020TIP3    H169475   2.973   5.533  16.687 -0.7595  0.8837  2.6214
16020TIP3    H269476   3.121   5.539  16.719  0.0312  0.1738 -0.5492
16021TIP3   OH269477   5.667   6.114  15.984 -0.5330  0.1367  0.4359
16021TIP3    H169478   5.580   6.100  16.020 -0.4155 -1.2225  0.2655
16021TIP3    H269479   5.713   6.166  16.049 -0.7037 -1.2341  1.6946
16022TIP3   OH269480   1.912   4.111   5.807 -0.3372  0.1640  0.0526
16022TIP3    H169481   1.844   4.066   5.756 -0.5674  1.2624 -0.6627
16022TIP3    H269482   1.955   4.168   5.743  1.0639 -0.2820  0.5659
16023TIP3   OH269483   3.768   3.320   3.762  0.3589  0.1536  0.6265
16023TIP3    H169484   3.772   3.315   3.858 -0.2173  0.1443  0.6534
16023TIP3    H269485   3.757   3.230   3.733 -0.5100  0.2562  0.6113
16024TIP3   OH269486   3.545   6.077  16.960 -0.9960  0.2744  0.1876
16024TIP3    H169487   3.606   6.129  16.907 -0.4668 -1.3332 -0.8312
16024TIP3    H269488   3.582   6.080  17.048 -0.7190  1.1932  0.0560
16025TIP3   OH269489   3.618   1.209   1.311 -0.0408 -0.2536 -0.9017
16025TIP3    H169490   3.705   1.170   1.304  1.6187  2.4009  2.1153
16025TIP3    H269491   3.621   1.287   1.256  1.5933  2.7213  2.9325
16026TIP3   OH269492   3.721   5.290  13.479  0.1821 -0.1760  0.3690
16026TIP3    H169493   3.799   5.235  13.470  0.6267  0.5630 -0.3508
16026TIP3    H269494   3.683   5.263  13.563  0.6513 -1.2483  0.2533
16027TIP3   OH269495   6.315   5.980   2.421  0.2358  0.4080  0.0723
16027TIP3    H169496   6.235   5.938   2.454  0.1290  0.2016 -0.4389
16027TIP3    H269497   6.385   5.919   2.444  0.5054  1.3840  2.0846
16028TIP3   OH269498   2.908   6.049  14.896 -0.2354  0.6703  0.2808
16028TIP3    H169499   2.892   6.100  14.817  0.1957 -1.1307 -1.0392
16028TIP3    H269500   2.975   5.985  14.870  0.7146  0.7096  2.4168
16029TIP3   OH269501   2.038   1.609  12.061 -0.2487 -0.1313  0.0750
16029TIP3    H169502   2.015   1.560  12.140  0.6927 -0.1607  0.3486
16029TIP3    H269503   1.954   1.641  12.027 -0.5252  2.1205  2.5383
16030TIP3   OH269504   2.746   0.223  11.352 -0.5938  0.4596  0.4413
16030TIP3    H169505   2.785   0.194  11.434 -0.1272 -4.1152 -1.1000
16030TIP3    H269506   2.652   0.225  11.369 -0.6725 -2.3566  0.7239
16031TIP3   OH269507   5.594   5.745  12.441 -0.7557  1.0917  0.1641
16031TIP3    H169508   5.503   5.749  12.410  0.0510  4.2718 -2.3146
16031TIP3    H269509   5.640   5.695  12.373 -0.4445  0.3949  0.8770
16032TIP3   OH269510   5.500   2.826   2.970 -0.3249 -0.2159  0.2083
16032TIP3    H169511   5.561   2.797   2.902  0.3943 -0.0191  0.7595
16032TIP3    H269512   5.456   2.747   2.999 -1.3243 -0.1821 -1.1319
16033TIP3   OH269513   5.407   4.330  15.560 -0.1472 -0.7262 -0.4106
16033TIP3    H169514   5.349   4.388  15.511  2.3722  1.5319 -0.9686
16033TIP3    H269515   5.375   4.334  15.650  0.3498  2.1975 -0.2907
16034TIP3   OH269516   1.947   4.337  13.140  0.3474 -0.7078  0.0197
16034TIP3    H169517   1.869   4.369  13.185 -0.3230 -1.4054 -0.6230
16034TIP3    H269518   1.934   4.359  13.048  0.3505 -1.8677 -0.2776
16035TIP3   OH269519   1.932   2.036  15.759  0.1345  0.6546  0.2137
16035TIP3    H169520   1.850   2.032  15.710  1.0739  0.9472 -1.4594
16035TIP3    H269521   1.979   2.111  15.722  2.5069 -1.3267 -1.1284
16036TIP3   OH269522   4.094   1.635   2.820  0.2807  0.2582 -0.1219
16036TIP3    H169523   4.152   1.625   2.895  0.1769  1.1578  0.0909
16036TIP3    H269524   4.023   1.691   2.852  0.6576  1.3371 -1.1065
16037TIP3   OH269525   2.673   0.797   5.607 -0.1909  0.2530 -0.2957
16037TIP3    H169526   2.607   0.861   5.633  0.8083  0.3190  2.4707
16037TIP3    H269527   2.635   0.751   5.532 -2.1696  2.0955 -0.5053
16038TIP3   OH269528   4.631   2.272   1.771  0.0828 -0.3186  0.5881
16038TIP3    H169529   4.638   2.322   1.853  0.1713  0.2450  0.2460
16038TIP3    H269530   4.719   2.275   1.734  0.5449 -2.2612  1.4211
16039TIP3   OH269531   6.508   2.959  13.493  0.0705 -1.1326  0.0337
16039TIP3    H169532   6.425   2.964  13.542 -0.0160 -0.5594 -0.1600
16039TIP3    H269533   6.551   2.881  13.528  0.4293 -0.2374  1.7119
16040TIP3   OH269534   1.172   2.433   4.984 -0.5283  0.1316  0.2075
16040TIP3    H169535   1.247   2.491   4.966 -1.3826  1.2939  0.2966
16040TIP3    H269536   1.135   2.415   4.897 -0.9836  0.7119  0.2797
16041TIP3   OH269537   5.229   1.408   3.145  0.0727  0.4039 -0.5152
16041TIP3    H169538   5.204   1.460   3.222 -0.2983  0.0708 -0.4072
16041TIP3    H269539   5.207   1.465   3.071 -2.6328 -0.4699 -0.5099
16042TIP3   OH269540   6.037   6.499  11.410  0.7136  0.1870  0.2408
16042TIP3    H169541   6.036   6.584  11.366 -1.5006 -0.4032 -0.9895
16042TIP3    H269542   6.108   6.451  11.367  0.7610  0.7739 -0.3554
16043TIP3   OH269543   5.158   5.777   6.522  0.4337  0.2294 -0.1721
16043TIP3    H169544   5.114   5.862   6.530  0.2297  0.1461 -0.3752
16043TIP3    H269545   5.251   5.796   6.529  0.3267  0.2902  1.2614
16044TIP3   OH269546   5.492   5.223   5.067 -0.3779  0.5898 -0.6964
16044TIP3    H169547   5.484   5.204   5.160 -1.7923  0.0849 -0.8877
16044TIP3    H269548   5.580   5.257   5.056 -0.4969  1.5244  0.9807
16045TIP3   OH269549   6.535   2.772  15.206  0.1136  0.3029  0.2434
16045TIP3    H169550   6.474   2.782  15.279  0.0530 -1.7980  0.5282
16045TIP3    H269551   6.531   2.679  15.183  2.6409  0.2254 -0.2114
16046TIP3   OH269552   3.366   1.897  15.488  0.2635 -0.5861  0.0948
16046TIP3    H169553   3.342   1.989  15.478  0.3618 -0.6198 -0.5013
16046TIP3    H269554   3.461   1.896  15.477  0.2713 -0.7504  0.1690
16047TIP3   OH269555   4.240   0.506  13.696  0.1597 -0.4810 -0.0842
16047TIP3    H169556   4.178   0.529  13.627 -1.2540 -0.8452  1.0300
16047TIP3    H269557   4.255   0.412  13.684  1.9907 -0.0545 -1.4985
16048TIP3   OH269558   2.186   3.128  16.038 -0.1466 -0.0261  0.1980
16048TIP3    H169559   2.094   3.112  16.017  0.0169 -1.3238  0.3852
16048TIP3    H269560   2.204   3.071  16.112  0.4180  1.3472  1.1609
16049TIP3   OH269561   2.165   0.983  12.574 -0.1144  0.2701  0.0218
16049TIP3    H169562   2.259   1.000  12.567 -0.4725  1.9392 -1.1957
16049TIP3    H269563   2.160   0.895  12.613  1.9220  0.6187  1.2408
16050TIP3   OH269564   4.230   3.773   5.065 -0.0565  0.0107  0.3593
16050TIP3    H169565   4.202   3.810   5.148  2.4187  1.3800  0.6932
16050TIP3    H269566   4.259   3.684   5.086 -0.4455 -0.0269  0.7363
16051TIP3   OH269567   5.068   6.282  13.204  0.2063  0.4322 -0.7134
16051TIP3    H169568   5.137   6.268  13.268  0.5401 -1.0691 -1.3567
16051TIP3    H269569   5.111   6.272  13.119 -1.1841 -3.3762 -1.1720
16052TIP3   OH269570   3.890   5.510  15.241  0.1951  0.1845  0.1084
16052TIP3    H169571   3.833   5.542  15.311  0.6145 -0.8563  0.9571
16052TIP3    H269572   3.872   5.416  15.237  0.9597  0.0540 -0.4354
16053TIP3   OH269573   0.795   1.305  15.290  0.5522 -0.0280 -0.0039
16053TIP3    H169574   0.813   1.398  15.300  0.3371  0.1224 -0.9190
16053TIP3    H269575   0.703   1.301  15.263  0.2377 -0.5719  1.0649
16054TIP3   OH269576   3.765   4.901   2.191  0.1634 -0.0880 -0.2894
16054TIP3    H169577   3.734   4.973   2.246 -1.3332 -0.8020 -0.1405
16054TIP3    H269578   3.695   4.889   2.126  0.8784 -0.7112 -0.9692
16055TIP3   OH269579   1.829   0.178  14.595  0.3831  0.3611 -0.5828
16055TIP3    H169580   1.890   0.132  14.653 -2.2577 -0.8773  1.3851
16055TIP3    H269581   1.870   0.263  14.581  1.4474  0.5260  2.7197
16056TIP3   OH269582   3.989   2.461   4.897 -0.1622 -0.0567 -0.6371
16056TIP3    H169583   4.004   2.394   4.963  1.0860  0.7248 -0.0708
16056TIP3    H269584   3.959   2.413   4.820  1.5080 -1.3865 -0.5272
16057TIP3   OH269585   2.097   5.860   3.825 -0.1826  0.4387  0.0092
16057TIP3    H169586   2.008   5.853   3.790  0.1092 -0.9927 -0.4680
16057TIP3    H269587   2.147   5.905   3.757 -0.3236  0.4388 -0.0932
16058TIP3   OH269588   2.806   1.792  12.436 -0.3865  0.0071 -0.0632
16058TIP3    H169589   2.760   1.714  12.405  0.0866  0.6569 -2.6428
16058TIP3    H269590   2.737   1.855  12.454 -0.6857 -0.4111  0.2797
16059TIP3   OH269591   5.396   1.863  12.101 -0.4679 -0.2897 -0.2424
16059TIP3    H169592   5.344   1.943  12.092 -0.5965 -0.2070  1.0974
16059TIP3    H269593   5.346   1.797  12.052  0.2351  0.6687 -2.3604
16060TIP3   OH269594   4.483   0.663   3.707 -0.4163 -0.1461  0.0477
16060TIP3    H169595   4.431   0.590   3.742  1.9688 -1.5291  0.9829
16060TIP3    H269596   4.430   0.741   3.725 -1.4386 -1.2795  2.4485
16061TIP3   OH269597   4.096   2.710  11.406 -0.6924  0.9193  0.1173
16061TIP3    H169598   4.109   2.805  11.401  3.6456  0.4283 -2.2974
16061TIP3    H269599   4.178   2.676  11.441 -1.1224 -2.1166 -1.4906
16062TIP3   OH269600   3.980   1.237  12.280 -0.0128 -0.4036 -0.0151
16062TIP3    H169601   3.893   1.261  12.312 -0.1636 -2.6543  1.4774
16062TIP3    H269602   4.039   1.260  12.352  0.9017  2.1807 -1.4433
16063TIP3   OH269603   4.676   6.588   3.850  0.1743  0.1104 -0.2653
16063TIP3    H169604   4.744   6.539   3.804 -0.2551 -0.2124 -0.5615
16063TIP3    H269605   4.723   6.634   3.920  0.7628  0.2725 -0.7607
16064TIP3   OH269606   0.868   6.071  13.447  0.3706  0.3446  0.0812
16064TIP3    H169607   0.924   6.002  13.411  1.5017  0.1731  1.9977
16064TIP3    H269608   0.861   6.135  13.377  0.0582 -1.2697 -1.4185
16065TIP3   OH269609   3.912   6.443   3.729 -0.3849 -0.0972  0.4109
16065TIP3    H169610   3.854   6.519   3.725 -0.7068 -0.3652 -0.1582
16065TIP3    H269611   3.919   6.414   3.638  0.4813 -0.1875  0.4982
16066TIP3   OH269612   0.238   6.183  13.659  0.3481 -0.4099  0.0429
16066TIP3    H169613   0.154   6.222  13.683  0.3601 -1.2879  1.6531
16066TIP3    H269614   0.303   6.249  13.687  0.2809 -0.6657  0.8128
16067TIP3   OH269615   4.863   0.644   6.048 -0.3099  0.3667  0.5356
16067TIP3    H169616   4.956   0.633   6.070  0.0629  0.1348 -1.0186
16067TIP3    H269617   4.819   0.575   6.098  0.6325 -0.8965 -0.2905
16068TIP3   OH269618   6.434   5.026   0.807 -0.0117  0.1368  0.1884
16068TIP3    H169619   6.524   5.035   0.837  0.9017 -2.1417 -1.5467
16068TIP3    H269620   6.389   4.978   0.877  0.8838 -1.1357 -0.0817
16069TIP3   OH269621   3.911   5.978   0.188  0.0155 -0.4478 -0.5022
16069TIP3    H169622   3.953   6.004   0.106 -0.6391 -2.3644 -1.5069
16069TIP3    H269623   3.981   5.938   0.239  0.2507 -0.0023 -0.4734
16070TIP3   OH269624   1.744   0.856  13.036  0.3507 -0.4141  0.2796
16070TIP3    H169625   1.822   0.903  13.064 -0.1742  0.4814  0.2585
16070TIP3    H269626   1.674   0.890  13.092 -0.4893  0.5568 -1.2895
16071TIP3   OH269627   2.111   0.774  11.989 -0.4041 -0.0621  0.1062
16071TIP3    H169628   2.125   0.679  11.989 -1.2594 -0.2008  1.7016
16071TIP3    H269629   2.059   0.790  11.910 -0.3671 -0.9146 -0.1066
16072TIP3   OH269630   1.596   0.634  12.298  0.8227  0.1322  0.4284
16072TIP3    H169631   1.590   0.728  12.312 -2.8448  0.2064 -0.7370
16072TIP3    H269632   1.581   0.622  12.204  1.2977 -1.6385  0.5271
16073TIP3   OH269633   3.848   0.562  16.617 -0.2163  0.1563  0.9091
16073TIP3    H169634   3.813   0.529  16.534  1.1850 -3.2479  1.5106
16073TIP3    H269635   3.770   0.577  16.671 -1.0104 -2.2312  0.5244
16074TIP3   OH269636   3.171   3.821  15.745  0.3618  0.0161 -0.4482
16074TIP3    H169637   3.211   3.797  15.661  0.1149  0.0632 -0.5809
16074TIP3    H269638   3.232   3.787  15.811  1.4323  1.4731 -0.6464
16075TIP3   OH269639   4.660   5.560   2.704  0.3335 -0.0575 -0.1507
16075TIP3    H169640   4.584   5.582   2.758 -0.1196  0.5716 -1.0135
16075TIP3    H269641   4.715   5.506   2.761 -0.1417  0.5480  0.9210
16076TIP3   OH269642   5.334   4.544  11.539  0.2555  0.3519 -0.0953
16076TIP3    H169643   5.245   4.532  11.507 -0.0236 -0.9248  1.0822
16076TIP3    H269644   5.345   4.639  11.541 -1.3439  0.5611  0.4088
16077TIP3   OH269645   5.530   5.743   1.668  0.3943 -0.0646 -0.4181
16077TIP3    H169646   5.524   5.723   1.762  0.6305  0.8656 -0.2007
16077TIP3    H269647   5.497   5.832   1.660  0.4110 -0.1240 -1.2208
16078TIP3   OH269648   2.360   0.999  15.970  0.2216 -0.3264  0.6706
16078TIP3    H169649   2.409   0.928  16.012 -0.8717 -0.1769  2.2961
16078TIP3    H269650   2.421   1.073  15.968  0.0103 -0.0073  3.0854
16079TIP3   OH269651   6.562   1.218  12.538  0.6335 -0.3654 -0.0598
16079TIP3    H169652   6.655   1.241  12.529  0.4967  1.2654  1.8895
16079TIP3    H269653   6.562   1.144  12.599  0.7145 -1.8070 -1.7212
16080TIP3   OH269654   1.618   1.777   1.299 -0.3793  0.0468  0.4917
16080TIP3    H169655   1.615   1.807   1.208 -2.7041  1.0859  0.8314
16080TIP3    H269656   1.678   1.838   1.342  0.7098 -0.4335 -0.3077
16081TIP3   OH269657   6.171   4.906   1.665  0.2448  0.2276  0.1780
16081TIP3    H169658   6.239   4.840   1.671 -0.0281  0.0458  1.5624
16081TIP3    H269659   6.138   4.916   1.755 -0.1306  1.8066 -0.0994
16082TIP3   OH269660   5.972   0.796  15.411  0.1578 -0.4015 -0.1367
16082TIP3    H169661   5.942   0.870  15.358 -0.6999 -1.2809 -0.9265
16082TIP3    H269662   5.904   0.729  15.399  0.9833 -1.3698  0.4382
16083TIP3   OH269663   2.108   2.925   3.139  0.3909  0.8285  0.4551
16083TIP3    H169664   2.125   2.842   3.183 -0.1261  0.4472 -0.0500
16083TIP3    H269665   2.018   2.947   3.162  0.3876  1.0395  0.2449
16084TIP3   OH269666   5.925   2.507   4.552 -0.7874  0.2107 -0.4785
16084TIP3    H169667   6.012   2.467   4.542 -0.9937  0.2484 -2.7761
16084TIP3    H269668   5.885   2.457   4.624  0.2056 -1.4903 -1.0312
16085TIP3   OH269669   4.057   1.271   3.886 -0.0179  0.0477  0.3808
16085TIP3    H169670   4.103   1.200   3.930  2.1480  0.6041 -0.8391
16085TIP3    H269671   4.009   1.315   3.957 -1.2428 -2.4115  1.1945
16086TIP3   OH269672   3.661   6.037  11.262 -0.0360  0.0332  0.8095
16086TIP3    H169673   3.653   5.949  11.224 -0.4269  0.8095 -0.9692
16086TIP3    H269674   3.725   6.026  11.332  0.3140 -1.5708  0.2928
16087TIP3   OH269675   1.946   5.911  17.285 -0.0210 -0.7608 -0.0604
16087TIP3    H169676   1.865   5.946  17.247  0.5063  0.0370 -0.4786
16087TIP3    H269677   2.016   5.961  17.243  0.6222 -0.3283  1.4734
16088TIP3   OH269678   5.911   6.451   5.251  0.0564  0.0678 -0.9983
16088TIP3    H169679   5.920   6.363   5.288 -0.2217  0.2063 -0.5905
16088TIP3    H269680   5.947   6.444   5.163 -0.2340 -0.5308 -1.0770
16089TIP3   OH269681   2.515   2.146  12.382  0.3665 -0.2352 -0.1126
16089TIP3    H169682   2.488   2.054  12.376  1.5547 -0.5667 -0.5816
16089TIP3    H269683   2.435   2.192  12.409 -0.6967 -1.1775 -1.4674
16090TIP3   OH269684   4.757   0.592  14.812 -0.1512  0.0794  0.2784
16090TIP3    H169685   4.849   0.616  14.801  0.0718 -1.2455 -1.0003
16090TIP3    H269686   4.745   0.586  14.906  1.0845  0.2006  0.4606
16091TIP3   OH269687   3.575   4.296   2.199 -0.1869 -0.6395  0.2748
16091TIP3    H169688   3.517   4.268   2.129 -1.7496  0.7145  0.9510
16091TIP3    H269689   3.594   4.388   2.180  0.4288 -0.6161  0.9387
16092TIP3   OH269690   5.892   2.183  12.517  0.0623  0.6474 -0.5134
16092TIP3    H169691   5.947   2.104  12.517 -0.1167  0.4633 -2.5690
16092TIP3    H269692   5.807   2.152  12.547  0.2904  0.3045 -0.2049
16093TIP3   OH269693   1.417   0.612   6.733 -0.0112  0.4512 -0.5248
16093TIP3    H169694   1.357   0.541   6.755  0.7116 -0.0169 -0.0067
16093TIP3    H269695   1.456   0.585   6.649  0.2876  0.2104 -0.3121
16094TIP3   OH269696   4.733   5.550  16.403 -0.3258  0.0277 -0.3941
16094TIP3    H169697   4.700   5.461  16.395 -1.1214  0.4347 -2.1176
16094TIP3    H269698   4.654   5.603  16.417 -0.0229  0.6330 -0.9646
16095TIP3   OH269699   2.489   0.974  14.263 -0.2445 -0.2729 -0.3429
16095TIP3    H169700   2.571   1.013  14.293  0.7292 -1.1134 -1.7925
16095TIP3    H269701   2.442   1.046  14.222 -1.8318  1.0404  3.3233
16096TIP3   OH269702   0.815   4.224   3.935 -0.2842  0.3842 -0.0606
16096TIP3    H169703   0.857   4.196   3.854  1.3930 -0.2481  0.9506
16096TIP3    H269704   0.734   4.173   3.940  0.3321 -0.6787 -0.6202
16097TIP3   OH269705   2.181   4.267  16.745 -0.1062  0.3705 -0.0549
16097TIP3    H169706   2.158   4.217  16.823  0.4824 -0.8794 -0.6440
16097TIP3    H269707   2.236   4.338  16.777 -0.2930  0.1743  0.7176
16098TIP3   OH269708   2.679   6.648  17.154 -0.1151 -0.1135 -0.0237
16098TIP3    H169709   2.714   6.709  17.089 -2.4456  0.8864 -0.4482
16098TIP3    H269710   2.751   6.635  17.216  0.9702  1.8570 -0.7780
16099TIP3   OH269711   4.501   1.558  10.855  0.3531 -0.5158  0.6210
16099TIP3    H169712   4.494   1.467  10.824 -0.7330 -0.7290  1.4148
16099TIP3    H269713   4.579   1.592  10.812  1.2181 -2.0529  0.8799
16100TIP3   OH269714   1.185   4.124   4.399 -0.5270 -0.5678 -0.3738
16100TIP3    H169715   1.145   4.196   4.351 -2.1820 -0.2418  1.3731
16100TIP3    H269716   1.251   4.166   4.454 -2.4183 -0.0618  1.6725
16101TIP3   OH269717   4.779   1.284   0.171  0.4845  0.2472  0.0891
16101TIP3    H169718   4.718   1.258   0.239 -1.5140 -0.2793 -1.8097
16101TIP3    H269719   4.745   1.367   0.138  0.5299 -0.2426 -1.2542
16102TIP3   OH269720   5.840   6.053  16.420  0.1573  0.2065 -0.1013
16102TIP3    H169721   5.855   6.084  16.510  1.8791  0.0418 -0.2911
16102TIP3    H269722   5.831   5.958  16.429  0.0119  0.2244 -0.0618
16103TIP3   OH269723   0.698   5.411   3.347 -0.4098 -0.1896  0.0190
16103TIP3    H169724   0.714   5.467   3.271 -0.1673 -1.6732 -1.0647
16103TIP3    H269725   0.604   5.418   3.363 -0.3853  0.4988 -0.1220
16104TIP3   OH269726   3.374   3.128  13.046  0.3617 -0.1965 -0.1922
16104TIP3    H169727   3.370   3.085  13.131  0.7408 -1.7496 -0.9076
16104TIP3    H269728   3.457   3.176  13.047  0.2480 -0.0053  0.4030
16105TIP3   OH269729   4.181   6.364  12.251  0.2635  0.6358  0.0529
16105TIP3    H169730   4.125   6.361  12.174  0.2047  0.3972  0.1037
16105TIP3    H269731   4.182   6.274  12.283 -1.9174  1.1728  1.9164
16106TIP3   OH269732   4.247   3.864  14.416  0.1711 -0.4752  0.3120
16106TIP3    H169733   4.304   3.810  14.360 -1.4719 -1.4400 -0.4964
16106TIP3    H269734   4.208   3.803  14.477 -1.6631 -0.2575 -0.5624
16107TIP3   OH269735   3.473   4.475   5.138 -0.6338  0.4081  0.0548
16107TIP3    H169736   3.448   4.405   5.078  1.3565 -1.4074  1.1840
16107TIP3    H269737   3.390   4.511   5.169 -1.8478 -2.7676  0.8535
16108TIP3   OH269738   6.714   3.807   1.422 -0.7703 -0.0760 -0.4761
16108TIP3    H169739   6.796   3.853   1.401 -1.0761  0.0459 -1.4407
16108TIP3    H269740   6.741   3.735   1.479 -0.0352  0.1812 -0.4884
16109TIP3   OH269741   4.932   4.589   1.186 -0.1030  0.0632 -0.5011
16109TIP3    H169742   4.836   4.597   1.188  0.0001  1.3936  0.7147
16109TIP3    H269743   4.960   4.658   1.125  0.0556 -1.2152 -1.9524
16110TIP3   OH269744   1.863   4.651  13.347 -0.3997 -0.2854 -0.3000
16110TIP3    H169745   1.953   4.669  13.371 -0.5358 -0.6814  0.5455
16110TIP3    H269746   1.852   4.693  13.262 -0.0269  1.5773  0.5208
16111TIP3   OH269747   3.331   3.467  13.571  0.2419 -1.3829 -0.0332
16111TIP3    H169748   3.379   3.536  13.526 -2.6522  0.3628 -0.7344
16111TIP3    H269749   3.267   3.513  13.625 -1.0906 -3.4822  0.3262
16112TIP3   OH269750   6.762   3.904  14.814  0.2618  0.3044 -1.0200
16112TIP3    H169751   6.843   3.886  14.861  0.0216  1.4176 -0.1408
16112TIP3    H269752   6.772   3.858  14.731  0.7813 -1.5856  0.0187
16113TIP3   OH269753   2.093   5.372   4.064 -0.1439 -0.1025 -0.5803
16113TIP3    H169754   2.021   5.352   4.005 -0.5949 -1.6442  0.4411
16113TIP3    H269755   2.135   5.449   4.025 -0.8913 -0.5852 -2.4559
16114TIP3   OH269756   1.690   4.269   4.723 -0.3565 -0.4397  0.3289
16114TIP3    H169757   1.784   4.287   4.714 -0.3913  0.0624  0.8860
16114TIP3    H269758   1.684   4.174   4.727  0.1219 -0.4768  0.1654
16115TIP3   OH269759   2.328   4.115   1.161 -0.6957  0.1846  0.2385
16115TIP3    H169760   2.387   4.045   1.189 -1.7685 -0.7825  0.1857
16115TIP3    H269761   2.270   4.074   1.098 -1.7055  0.9761  0.6091
16116TIP3   OH269762   3.262   1.951  14.919 -0.1386  0.0679 -0.0677
16116TIP3    H169763   3.270   1.910  14.832 -0.1445  0.2659 -0.1625
16116TIP3    H269764   3.308   1.891  14.978  0.0928  0.0654 -0.2480
16117TIP3   OH269765   0.053   2.735  13.231 -0.2716 -0.4492  0.1492
16117TIP3    H169766   0.122   2.738  13.298  0.8826  0.0774 -1.0089
16117TIP3    H269767  -0.001   2.811  13.248 -0.2638 -0.5808  0.7722
16118TIP3   OH269768   2.805   3.242   5.827 -0.0183 -0.5141  0.2270
16118TIP3    H169769   2.821   3.206   5.915 -0.3071 -0.6745  0.2148
16118TIP3    H269770   2.781   3.166   5.774  1.6008 -0.6517 -0.3594
16119TIP3   OH269771   0.550   1.852   5.280 -0.0843  0.0751  0.6305
16119TIP3    H169772   0.464   1.846   5.238  0.6561 -0.3432 -0.8854
16119TIP3    H269773   0.583   1.762   5.280  0.3094  0.2126  1.3117
16120TIP3   OH269774   4.999   1.682   4.760 -0.3429 -0.2621 -0.2575
16120TIP3    H169775   4.953   1.644   4.835  1.3893 -1.1150  0.4203
16120TIP3    H269776   5.050   1.755   4.797 -0.5980  0.2434 -0.8753
16121TIP3   OH269777   3.970   3.060  15.529 -0.2602  0.3641  0.3333
16121TIP3    H169778   4.032   2.988  15.517 -0.0468  0.6228 -0.1638
16121TIP3    H269779   4.017   3.123  15.585  0.7632  1.5044 -1.6830
16122TIP3   OH269780   5.324   2.948   1.869 -0.2346 -0.1610 -0.0298
16122TIP3    H169781   5.338   3.020   1.807 -0.1356 -3.0506 -3.7431
16122TIP3    H269782   5.411   2.925   1.899 -0.2807  1.2696  1.3140
16123TIP3   OH269783   3.242   2.943   3.364 -0.1540  0.5894  0.2185
16123TIP3    H169784   3.192   2.878   3.315  2.8337 -1.0532 -0.9045
16123TIP3    H269785   3.186   3.021   3.366 -2.2121 -0.7296 -1.9002
16124TIP3   OH269786   5.305   3.604  16.524 -0.4469 -0.3310 -0.3693
16124TIP3    H169787   5.341   3.651  16.600 -1.8820  1.2120 -0.5913
16124TIP3    H269788   5.297   3.671  16.456 -0.5331 -1.3829 -1.4227
16125TIP3   OH269789   6.443   0.101   5.093  0.3742  0.5631 -0.0670
16125TIP3    H169790   6.424   0.097   5.187 -0.7506 -0.3447 -0.3038
16125TIP3    H269791   6.530   0.061   5.085 -0.1641 -0.7906  0.4525
16126TIP3   OH269792   6.647   0.820   1.286 -0.7931  0.1231 -0.5052
16126TIP3    H169793   6.590   0.813   1.210 -0.2419 -0.1824 -0.8991
16126TIP3    H269794   6.705   0.894   1.266 -1.3860  0.7689  0.1241
16127TIP3   OH269795   1.859   4.689  16.216  0.1012 -0.2893  0.1240
16127TIP3    H169796   1.938   4.716  16.263  0.9050 -2.3672  0.0663
16127TIP3    H269797   1.817   4.626  16.274 -1.5810  0.8070  0.1664
16128TIP3   OH269798   3.891   4.360   2.396 -0.0930 -0.5534 -0.2180
16128TIP3    H169799   3.980   4.349   2.431 -0.1594 -0.1048  0.1019
16128TIP3    H269800   3.905   4.394   2.307  0.0669 -1.3180 -0.4930
16129TIP3   OH269801   3.984   6.357  15.031 -0.3039  0.1068  0.1507
16129TIP3    H169802   3.950   6.373  14.943  0.1618  0.3522  0.0099
16129TIP3    H269803   3.946   6.428  15.084  1.7049  1.7338 -0.4610
16130TIP3   OH269804   2.747   1.611  13.912 -0.1723 -0.9306 -0.2372
16130TIP3    H169805   2.774   1.613  13.820  0.2981 -0.4551 -0.0980
16130TIP3    H269806   2.756   1.702  13.942 -1.3773 -0.8609 -0.0135
16131TIP3   OH269807   1.894   4.976   1.899  0.2506 -0.4746  0.0903
16131TIP3    H169808   1.952   5.037   1.944 -0.8280  0.3328  0.4308
16131TIP3    H269809   1.937   4.958   1.815  0.0334  1.6741 -0.5301
16132TIP3   OH269810   2.034   2.126   1.401  0.0528 -0.2354 -0.0422
16132TIP3    H169811   1.983   2.194   1.356  1.2402  1.5328  1.1689
16132TIP3    H269812   2.125   2.146   1.379  0.5227 -0.5230  1.5051
16133TIP3   OH269813   2.632   1.479  14.543  0.3401 -0.1290  0.4482
16133TIP3    H169814   2.553   1.431  14.517  0.9166 -1.7414  1.5216
16133TIP3    H269815   2.642   1.462  14.636  2.1977 -0.3400  0.2553
16134TIP3   OH269816   1.744   6.089   2.846 -0.2308 -1.0396  0.6560
16134TIP3    H169817   1.694   6.168   2.824 -0.4639 -1.8484 -2.1436
16134TIP3    H269818   1.680   6.030   2.886 -1.0408 -1.2229 -0.8350
16135TIP3   OH269819   3.776   1.691   0.528 -0.3347 -0.3474  0.0685
16135TIP3    H169820   3.810   1.602   0.519 -0.0020 -0.2802  0.6208
16135TIP3    H269821   3.683   1.683   0.507 -0.4121 -0.9180  0.5954
16136TIP3   OH269822   2.518   1.374   2.107 -0.0795  0.1515  0.3800
16136TIP3    H169823   2.488   1.386   2.197  0.5035 -0.7224  0.7110
16136TIP3    H269824   2.478   1.291   2.079  0.5691 -0.1125  0.2100
16137TIP3   OH269825   0.062   2.719   4.294  0.0463  0.2840 -0.2609
16137TIP3    H169826   0.139   2.770   4.319  1.3316 -2.4767  1.8270
16137TIP3    H269827  -0.010   2.761   4.342  1.1270 -0.0037  1.7003
16138TIP3   OH269828   4.565   4.747   6.603  0.2930  0.5555  0.1229
16138TIP3    H169829   4.520   4.782   6.527  0.5111  2.1205  0.6883
16138TIP3    H269830   4.658   4.758   6.584  0.3858 -0.1931  0.1042
16139TIP3   OH269831   2.905   1.323  14.307  0.0448 -0.2713 -0.1962
16139TIP3    H169832   2.975   1.290  14.251  0.6084 -1.0828  0.9419
16139TIP3    H269833   2.950   1.366  14.380 -0.6743  1.0460 -0.4816
16140TIP3   OH269834   4.404   0.273  12.172 -0.1690 -0.0797  0.2851
16140TIP3    H169835   4.399   0.367  12.187  0.2057  0.4584 -2.4297
16140TIP3    H269836   4.323   0.251  12.126  0.1868 -0.8733  0.0079
16141TIP3   OH269837   5.086   1.501   5.084 -0.0641 -0.3038  0.3114
16141TIP3    H169838   5.009   1.454   5.053  0.6201 -0.5877 -1.0487
16141TIP3    H269839   5.055   1.552   5.158 -2.0574  1.1113 -1.3671
16142TIP3   OH269840   2.793   4.666  13.522  0.3820  0.3979  0.1741
16142TIP3    H169841   2.845   4.586  13.533  1.4260  1.1606  1.0000
16142TIP3    H269842   2.742   4.650  13.442 -0.5926 -1.6962  1.1327
16143TIP3   OH269843   2.748   6.776   2.090 -0.0722  0.0497  0.0459
16143TIP3    H169844   2.775   6.685   2.102 -0.1612 -0.0089 -0.2023
16143TIP3    H269845   2.668   6.772   2.037  0.5640  0.3204 -0.9817
16144TIP3   OH269846   3.445   0.887   3.441 -0.1009 -0.1137 -0.0413
16144TIP3    H169847   3.472   0.966   3.488 -1.0319 -0.1072  0.5172
16144TIP3    H269848   3.433   0.915   3.351 -0.0068  0.2801  0.0664
16145TIP3   OH269849   4.051   1.543   1.150 -0.5063  0.2622 -0.0196
16145TIP3    H169850   3.973   1.540   1.094  0.0608 -1.2907 -0.7977
16145TIP3    H269851   4.050   1.458   1.195  0.3652  0.5223  0.5004
16146TIP3   OH269852   3.282   3.510  15.827  0.0053 -0.0320  0.1486
16146TIP3    H169853   3.353   3.574  15.823  0.0423 -0.0789  0.0550
16146TIP3    H269854   3.324   3.426  15.808  0.0825 -0.1817  0.9781
16147TIP3   OH269855   4.426   1.774  12.136 -0.2042  0.1132  0.3213
16147TIP3    H169856   4.331   1.781  12.142 -0.3300 -0.4998 -0.7164
16147TIP3    H269857   4.450   1.839  12.071  0.0902  0.2730  0.5898
16148TIP3   OH269858   0.178   6.446  14.142  0.4004 -0.1299 -0.0113
16148TIP3    H169859   0.233   6.466  14.218 -1.0087 -1.0060  1.3231
16148TIP3    H269860   0.132   6.528  14.124 -2.9796 -0.9506  3.3974
16149TIP3   OH269861   0.157   4.738  16.046  0.1690  0.4146 -0.2082
16149TIP3    H169862   0.176   4.669  16.109 -1.5269 -1.5857 -1.7548
16149TIP3    H269863   0.185   4.702  15.962  2.4258  3.0227 -0.7253
16150TIP3   OH269864   4.000   5.138  10.498  0.3544  0.3853  0.3812
16150TIP3    H169865   3.946   5.091  10.434  2.2118 -0.6389 -0.5448
16150TIP3    H269866   3.948   5.213  10.523 -1.4957 -0.5591 -0.4193
16151TIP3   OH269867   6.572   1.118  17.131  0.0750  0.0916  0.5247
16151TIP3    H169868   6.523   1.152  17.056  0.8416  0.7997  0.3244
16151TIP3    H269869   6.594   1.028  17.105 -0.5099  0.0002  0.3275
16152TIP3   OH269870   3.709   3.179   2.878  0.3352  0.1291  0.2246
16152TIP3    H169871   3.751   3.127   2.810 -0.0482  1.1058 -0.7894
16152TIP3    H269872   3.633   3.218   2.836 -0.4704 -0.0181  1.4920
16153TIP3   OH269873   6.124   6.367  12.057 -0.4729 -0.6316 -0.6946
16153TIP3    H169874   6.071   6.420  11.997  2.4109  1.2840 -1.8053
16153TIP3    H269875   6.134   6.422  12.135 -1.9054 -1.9580  0.4944
16154TIP3   OH269876   6.561   1.881  11.593 -0.1595  0.4255  0.1356
16154TIP3    H169877   6.654   1.861  11.588 -0.6108 -2.9224  2.4313
16154TIP3    H269878   6.542   1.890  11.686 -2.6078 -1.9635 -0.0110
16155TIP3   OH269879   5.177   3.829   0.319 -0.2466 -0.6193 -0.0619
16155TIP3    H169880   5.253   3.776   0.297  0.6252  1.1602 -1.6456
16155TIP3    H269881   5.118   3.819   0.244  0.8383  2.1093 -1.4501
16156TIP3   OH269882   5.250   5.807  12.058 -0.5654 -0.5128 -0.5128
16156TIP3    H169883   5.242   5.769  11.971  0.7165  0.3369 -1.0385
16156TIP3    H269884   5.167   5.853  12.072 -0.5579 -0.1542 -1.5457
16157TIP3   OH269885   5.669   0.001   4.147  0.2197  0.1602  0.0131
16157TIP3    H169886   5.654  -0.088   4.179  0.8556  0.0038 -0.1099
16157TIP3    H269887   5.607   0.055   4.196 -0.2241 -0.3584  0.0342
16158TIP3   OH269888   2.252   5.685  11.848  0.6363 -0.1328 -0.5567
16158TIP3    H169889   2.274   5.599  11.884 -1.1436 -0.3064  0.2336
16158TIP3    H269890   2.269   5.746  11.919  0.6765  0.0110 -0.6897
16159TIP3   OH269891   6.185   4.339  14.982  0.0559  0.8508  0.2820
16159TIP3    H169892   6.267   4.366  15.023  0.6331 -2.0065  1.2276
16159TIP3    H269893   6.118   4.390  15.028  1.0127  0.3882  2.3057
16160TIP3   OH269894   5.058   1.810   5.197  0.5823 -0.1028 -0.2390
16160TIP3    H169895   5.014   1.786   5.279 -0.1172 -0.9135 -0.8341
16160TIP3    H269896   5.106   1.890   5.218 -2.1929  1.5923  0.1297
16161TIP3   OH269897   3.167   4.566   4.541 -0.0773 -0.1735  0.3528
16161TIP3    H169898   3.243   4.514   4.566  0.2919  0.3758  0.3845
16161TIP3    H269899   3.195   4.616   4.465 -0.3606  0.1313  0.4421
16162TIP3   OH269900   3.901   5.923  15.977  0.2868  0.5263 -0.3303
16162TIP3    H169901   3.919   6.015  15.994 -0.3344  0.9717 -1.9256
16162TIP3    H269902   3.933   5.878  16.055  0.5230  2.0870  0.5214
16163TIP3   OH269903   0.630   0.569   1.226 -0.3843 -0.5243  0.2622
16163TIP3    H169904   0.712   0.560   1.178 -0.4621 -1.9817  0.3366
16163TIP3    H269905   0.574   0.623   1.170  0.9965  1.5108  0.7466
16164TIP3   OH269906   6.631   3.069  15.983  0.5068 -0.1114  0.0430
16164TIP3    H169907   6.673   3.002  15.930  0.7515 -0.4940  0.7131
16164TIP3    H269908   6.650   3.044  16.074 -1.7126 -0.6842  0.4023
16165TIP3   OH269909   4.796   2.503   2.333  0.5693  0.6025  0.1434
16165TIP3    H169910   4.877   2.473   2.293  0.2522 -0.0200 -0.0389
16165TIP3    H269911   4.785   2.448   2.411 -0.5627 -0.5303 -0.7709
16166TIP3   OH269912   5.655   2.092  16.661  0.2661 -0.6310 -0.0849
16166TIP3    H169913   5.586   2.026  16.658 -1.0327  0.6411  0.4520
16166TIP3    H269914   5.722   2.059  16.601  0.1054 -2.8646  0.8554
16167TIP3   OH269915   3.323   6.311  17.242  0.2088  0.2605 -0.1120
16167TIP3    H169916   3.321   6.216  17.259  0.1782  0.2776 -0.0159
16167TIP3    H269917   3.343   6.318  17.149  1.4700  0.1768  0.1374
16168TIP3   OH269918   0.750   0.619  13.582 -0.1876 -0.2035  0.3621
16168TIP3    H169919   0.688   0.547  13.597 -0.5397 -0.1211 -0.6196
16168TIP3    H269920   0.695   0.697  13.572  0.2092  0.2793  1.7588
16169TIP3   OH269921   3.300   4.901   2.186 -0.3493 -0.3265  0.1216
16169TIP3    H169922   3.284   4.903   2.280 -2.5743 -0.0809 -0.2211
16169TIP3    H269923   3.302   4.808   2.163  1.2556 -0.4283  0.5213
16170TIP3   OH269924   0.553   5.906  12.774 -0.0639 -0.5496  0.4467
16170TIP3    H169925   0.524   5.846  12.705 -0.5212  0.0729  0.0938
16170TIP3    H269926   0.475   5.955  12.799  0.3944  0.2162  0.4170
16171TIP3   OH269927   3.811   4.390  12.843  0.1858 -0.2977 -0.2773
16171TIP3    H169928   3.805   4.428  12.931 -0.2608 -0.6139 -0.1676
16171TIP3    H269929   3.838   4.463  12.788 -1.3267  0.3769 -0.1829
16172TIP3   OH269930   1.869   5.391   0.398 -0.3259 -0.0706 -0.0237
16172TIP3    H169931   1.892   5.433   0.482 -1.1814 -1.3947  0.9124
16172TIP3    H269932   1.787   5.433   0.372 -0.4292 -0.1419  0.1779
16173TIP3   OH269933   5.907   3.231   2.337 -0.3842  0.5249 -0.2950
16173TIP3    H169934   5.987   3.283   2.342  0.2597 -0.4396 -0.3697
16173TIP3    H269935   5.910   3.175   2.415  0.1960 -1.1492 -1.4755
16174TIP3   OH269936   4.333   0.651  11.029  0.1643  0.5276  0.1188
16174TIP3    H169937   4.389   0.723  10.998  0.6399 -0.7495 -2.1709
16174TIP3    H269938   4.395   0.585  11.060 -0.1705  0.1341 -0.0456
16175TIP3   OH269939   4.912   1.302   4.703 -0.1567 -0.0555  0.0541
16175TIP3    H169940   5.001   1.280   4.730  0.0563  0.1071 -0.5159
16175TIP3    H269941   4.860   1.226   4.729  0.2839 -0.4941 -0.3265
16176TIP3   OH269942   2.717   4.449   1.140 -0.1203  0.0298 -0.1908
16176TIP3    H169943   2.624   4.470   1.153  0.3353  3.8231 -1.7943
16176TIP3    H269944   2.721   4.411   1.052 -0.4487 -4.1125  1.3388
16177TIP3   OH269945   2.678   0.548  13.148  0.1038 -0.1942  0.3703
16177TIP3    H169946   2.719   0.588  13.071 -0.2095  0.5011  0.5477
16177TIP3    H269947   2.671   0.620  13.211 -1.4065 -0.2746  0.3303
16178TIP3   OH269948   4.281   5.367  12.544 -0.3154 -0.0978  0.4186
16178TIP3    H169949   4.209   5.328  12.494 -0.3162 -0.0542  0.3863
16178TIP3    H269950   4.250   5.455  12.566 -0.4276 -0.2133  0.7322
16179TIP3   OH269951   2.493   1.327   1.803 -0.3710 -0.3588 -0.7299
16179TIP3    H169952   2.533   1.265   1.743 -0.3096 -0.9736 -0.0603
16179TIP3    H269953   2.402   1.333   1.775 -0.3867 -0.7834 -0.7649
16180TIP3   OH269954   2.826   1.579   0.767 -0.2417 -0.1607 -1.1508
16180TIP3    H169955   2.902   1.521   0.771  0.3666  0.5806 -1.6896
16180TIP3    H269956   2.804   1.583   0.674 -1.3460 -0.8666 -0.9399
16181TIP3   OH269957   3.354   2.351   3.673  0.5616 -0.3076 -0.2434
16181TIP3    H169958   3.340   2.443   3.695 -0.2009 -0.1605 -1.2360
16181TIP3    H269959   3.350   2.348   3.577 -0.0791 -1.4603 -0.2129
16182TIP3   OH269960   5.503   2.411   3.824  0.1355 -0.3606  0.8976
16182TIP3    H169961   5.454   2.481   3.780  0.7080  0.3024  1.2907
16182TIP3    H269962   5.592   2.445   3.830  1.0859 -2.2107 -1.2820
16183TIP3   OH269963   0.967   2.555   5.609 -0.3279 -0.4487  0.2502
16183TIP3    H169964   0.949   2.638   5.653  0.9089 -0.3835  0.6803
16183TIP3    H269965   0.990   2.495   5.680  0.6829 -0.6189 -0.1992
16184TIP3   OH269966   1.807   1.313   2.449 -0.3952 -0.0419  0.1815
16184TIP3    H169967   1.795   1.375   2.521  0.7634 -1.1320  1.3646
16184TIP3    H269968   1.729   1.258   2.451 -0.6512  0.3187  0.1931
16185TIP3   OH269969   2.938   4.986  16.141  0.4665  0.2074 -0.5357
16185TIP3    H169970   2.919   4.903  16.097 -0.0857  0.9551 -1.7671
16185TIP3    H269971   3.019   4.970  16.189 -1.7883 -2.3637  2.8587
16186TIP3   OH269972   1.540   6.101  14.013 -0.2194  0.3999 -0.0566
16186TIP3    H169973   1.484   6.140  14.080  1.9081  0.0987  2.0544
16186TIP3    H269974   1.480   6.064  13.949 -2.3921  0.5625  1.7771
16187TIP3   OH269975   4.468   1.695   5.043 -0.4629 -0.0059  0.2859
16187TIP3    H169976   4.528   1.623   5.067 -0.5237 -0.6328 -1.3450
16187TIP3    H269977   4.512   1.741   4.972 -2.0846 -0.8054 -1.3310
16188TIP3   OH269978   6.721   1.841   6.178  0.1203 -0.0871  0.4700
16188TIP3    H169979   6.795   1.825   6.236 -0.3259 -0.6243  0.9023
16188TIP3    H269980   6.644   1.836   6.235 -0.1404  2.8114  0.5220
16189TIP3   OH269981   4.314   4.531  15.367  0.0926 -0.1327 -0.1616
16189TIP3    H169982   4.365   4.451  15.354 -2.4253 -1.7284 -1.0019
16189TIP3    H269983   4.305   4.540  15.462 -0.3011 -1.3605 -0.0696
16190TIP3   OH269984   5.113   6.634   5.352 -0.1012  0.3462 -0.1358
16190TIP3    H169985   5.204   6.652   5.376 -0.2398  0.2406  0.4992
16190TIP3    H269986   5.071   6.610   5.435 -0.5434 -0.2906 -0.5344
16191TIP3   OH269987   3.595   5.423  16.684 -0.3674 -0.0027  0.1784
16191TIP3    H169988   3.634   5.504  16.649 -0.6754 -0.4495 -1.2593
16191TIP3    H269989   3.669   5.373  16.717 -0.0983  0.5680  0.4561
16192TIP3   OH269990   3.038   4.197   2.095 -0.1589 -0.3107 -0.0983
16192TIP3    H169991   2.995   4.251   2.162 -1.9558 -1.8007  0.0379
16192TIP3    H269992   3.130   4.196   2.121 -0.0896  2.4297  0.0116
16193TIP3   OH269993   2.438   0.747  16.608 -0.1510  0.3425  0.2047
16193TIP3    H169994   2.360   0.708  16.648  0.7009  0.1759  1.7687
16193TIP3    H269995   2.413   0.837  16.589 -0.9017  0.1314  0.1614
16194TIP3   OH269996   6.101   2.219   4.842 -0.1732  0.5047  0.0982
16194TIP3    H169997   6.142   2.305   4.844 -1.9544  1.3759  0.6272
16194TIP3    H269998   6.029   2.224   4.904 -2.0520 -0.4500 -1.8442
16195TIP3   OH269999   5.084   4.111  16.403 -0.1001  0.7419  0.0485
16195TIP3    H170000   5.089   4.138  16.312 -0.8509  0.8724  0.0398
16195TIP3    H270001   5.090   4.015  16.400 -1.6997  0.6247 -0.2850
16196TIP3   OH270002   4.376   1.121   1.669 -0.0036 -0.5229  0.1750
16196TIP3    H170003   4.397   1.203   1.714 -1.7381 -0.1619  0.3743
16196TIP3    H270004   4.428   1.124   1.589 -0.8694  1.3160 -0.3635
16197TIP3   OH270005   0.039   2.697   6.730 -0.2576 -0.1703  0.8421
16197TIP3    H170006  -0.016   2.761   6.685 -0.1911 -0.6798  0.0253
16197TIP3    H270007  -0.023   2.643   6.780 -0.3650  0.1418  1.0513
16198TIP3   OH270008   1.208   1.663  11.511 -0.0536 -0.1106  0.5223
16198TIP3    H170009   1.249   1.730  11.457 -1.6796 -1.0746 -2.0856
16198TIP3    H270010   1.155   1.712  11.574  2.7825  1.0614  2.1984
16199TIP3   OH270011   3.238   5.610   2.930 -0.3629  0.1337 -0.0257
16199TIP3    H170012   3.264   5.687   2.879 -1.8252  1.6683  1.3917
16199TIP3    H270013   3.294   5.614   3.008 -0.7523  0.0118  0.2603
16200TIP3   OH270014   0.229   6.566   2.456 -0.2736  0.1953 -0.2651
16200TIP3    H170015   0.288   6.563   2.381 -0.7100 -2.1405 -0.5872
16200TIP3    H270016   0.287   6.562   2.532  0.0509 -0.4838 -0.5431
16201TIP3   OH270017   6.103   5.533  13.683 -0.1671 -0.9688  0.0285
16201TIP3    H170018   6.031   5.589  13.654 -0.5365 -1.1493  0.5965
16201TIP3    H270019   6.181   5.588  13.671 -0.5280 -0.3047  0.6125
16202TIP3   OH270020   4.982   2.348  15.712  0.2612  0.1385  0.5046
16202TIP3    H170021   5.012   2.295  15.786  0.8433  1.0420  0.9345
16202TIP3    H270022   4.887   2.334  15.710  0.2505  0.0334  1.3683
16203TIP3   OH270023   5.545   4.899  14.044 -0.1328  0.0099 -0.5249
16203TIP3    H170024   5.480   4.917  14.112  1.1012 -1.6334  1.1917
16203TIP3    H270025   5.513   4.820  14.000  0.1909 -0.2236 -0.3437
16204TIP3   OH270026   0.747   2.372   5.548 -0.2915 -0.0531 -0.2407
16204TIP3    H170027   0.806   2.371   5.472 -1.5832 -0.0733 -1.2741
16204TIP3    H270028   0.772   2.451   5.596  1.5743 -0.8392  0.1922
16205TIP3   OH270029   5.024   1.501  14.812 -0.3589  0.2056  0.1274
16205TIP3    H170030   4.980   1.474  14.731  1.7761 -1.8954 -0.4585
16205TIP3    H270031   5.117   1.497  14.790  0.3798 -1.9243  3.0387
16206TIP3   OH270032   6.014   5.622   5.459  0.2573  0.5960 -0.3783
16206TIP3    H170033   6.085   5.567   5.492 -0.3543  0.2592  0.4138
16206TIP3    H270034   6.058   5.690   5.408  0.9671 -1.9259 -3.4767
16207TIP3   OH270035   4.266   1.536   2.319 -0.1206  0.1610  0.1736
16207TIP3    H170036   4.185   1.588   2.316  0.3324  0.8666 -0.0674
16207TIP3    H270037   4.296   1.544   2.409 -1.6850 -2.2739  0.9990
16208TIP3   OH270038   5.494   3.838   4.292 -0.2466 -0.1265  0.3976
16208TIP3    H170039   5.563   3.897   4.263 -0.7115  1.0266  1.5162
16208TIP3    H270040   5.492   3.768   4.227  1.7595 -0.0313  0.1964
16209TIP3   OH270041   2.008   0.957  15.283  0.3620  0.4317 -0.1258
16209TIP3    H170042   1.997   0.871  15.241 -2.5218  0.4687  0.3263
16209TIP3    H270043   1.950   0.954  15.359 -0.1370  2.9080 -0.3220
16210TIP3   OH270044   2.708   1.948   4.500  0.0928 -0.5347 -0.3415
16210TIP3    H170045   2.756   1.987   4.427  1.4780  0.0316  0.8171
16210TIP3    H270046   2.633   2.006   4.512  1.8170  1.5779  0.9802
16211TIP3   OH270047   5.448   0.820   1.473  0.0599  0.4791 -0.3630
16211TIP3    H170048   5.387   0.880   1.516 -0.5976  0.2541 -0.9787
16211TIP3    H270049   5.534   0.847   1.506 -0.3796  0.6180  0.7256
16212TIP3   OH270050   2.600   0.801  16.917  0.1430  0.0291 -0.6214
16212TIP3    H170051   2.519   0.750  16.918  0.3530 -0.2946 -0.3679
16212TIP3    H270052   2.643   0.781  16.999 -0.0417  1.0422 -0.2563
16213TIP3   OH270053   4.468   3.856   4.830 -0.3060  0.1059 -1.4129
16213TIP3    H170054   4.407   3.815   4.892  0.4629  0.6584 -0.2495
16213TIP3    H270055   4.510   3.783   4.785  0.1070 -0.3620 -0.2957
16214TIP3   OH270056   5.244   1.521  15.183  0.8117  0.0228  0.3858
16214TIP3    H170057   5.202   1.545  15.266  2.6494  0.2932  1.2906
16214TIP3    H270058   5.183   1.553  15.115 -0.5818  0.0717  1.6025
16215TIP3   OH270059   5.169   2.423  13.729  0.3320  0.3090  0.0258
16215TIP3    H170060   5.081   2.455  13.744  0.5359  0.8810  0.0376
16215TIP3    H270061   5.161   2.327  13.728 -0.2701  0.3594  0.0896
16216TIP3   OH270062   1.600   5.394  16.742  0.4130 -0.4423 -0.0558
16216TIP3    H170063   1.673   5.368  16.798  1.5124 -1.5797 -1.8799
16216TIP3    H270064   1.550   5.313  16.730  0.4327 -0.3355 -0.9838
16217TIP3   OH270065   0.573   3.910  11.680 -0.0485 -0.3333 -0.1180
16217TIP3    H170066   0.561   3.913  11.775 -0.0354 -1.6383 -0.0527
16217TIP3    H270067   0.484   3.901  11.645  0.0279 -1.0030 -0.1524
16218TIP3   OH270068   2.962   4.106  13.404 -0.4892  0.1950 -0.2254
16218TIP3    H170069   2.971   4.012  13.388 -2.2899  0.1025 -0.8556
16218TIP3    H270070   2.928   4.112  13.493 -1.6237  0.1652 -0.6412
16219TIP3   OH270071   4.841   4.472  17.156 -0.2903  0.4847 -0.3311
16219TIP3    H170072   4.809   4.562  17.161 -0.6167  0.5109 -2.0405
16219TIP3    H270073   4.880   4.466  17.069 -1.1854 -1.3065 -0.6538
16220TIP3   OH270074   6.444   5.954  13.851  0.3401  0.7003 -0.0734
16220TIP3    H170075   6.488   5.975  13.933  1.1932 -1.1888 -0.0018
16220TIP3    H270076   6.471   6.024  13.791  1.1004  1.1426  0.7597
16221TIP3   OH270077   5.980   2.065   3.471  0.2866  0.0763 -0.0335
16221TIP3    H170078   5.957   2.056   3.564  0.0566 -2.9734 -0.2854
16221TIP3    H270079   6.069   2.031   3.466 -0.0554 -0.7093 -1.0402
16222TIP3   OH270080   5.570   6.054   1.125 -0.4096  0.8118 -0.0538
16222TIP3    H170081   5.570   6.074   1.032  0.2048  1.4469  0.0781
16222TIP3    H270082   5.548   5.960   1.129  1.8994  0.1665 -0.9827
16223TIP3   OH270083   0.824   3.540  11.764  0.2020 -0.0887  0.3246
16223TIP3    H170084   0.823   3.468  11.701 -1.0778  0.0877  0.1267
16223TIP3    H270085   0.807   3.498  11.848 -0.1725 -0.0769  0.2586
16224TIP3   OH270086   5.190   6.185   4.844  0.4111 -0.0491  0.1318
16224TIP3    H170087   5.216   6.207   4.934 -0.6892 -0.8964  0.6814
16224TIP3    H270088   5.142   6.102   4.852 -0.9511  0.5736 -1.0285
16225TIP3   OH270089   2.245   1.841  13.075  0.1110 -0.1908 -0.5818
16225TIP3    H170090   2.191   1.766  13.103  2.2552 -1.6601 -0.1526
16225TIP3    H270091   2.255   1.893  13.155  0.4829 -0.6851 -0.2969
16226TIP3   OH270092   0.156   2.155  13.365  0.1877 -0.5617  0.3031
16226TIP3    H170093   0.245   2.177  13.336 -0.2252 -0.5827 -1.0375
16226TIP3    H270094   0.159   2.061  13.383  0.7703 -0.3205  1.5990
16227TIP3   OH270095   3.859   5.560  14.789 -0.4057 -0.5151  0.5824
16227TIP3    H170096   3.852   5.481  14.735  1.4415 -0.3533  0.0210
16227TIP3    H270097   3.801   5.544  14.863 -0.3870 -2.2334  0.2710
16228TIP3   OH270098   3.934   6.601   2.410  0.3522 -0.7801  0.3300
16228TIP3    H170099   3.883   6.610   2.490 -0.2652 -2.0341  0.1027
16228TIP3    H270100   4.023   6.585   2.440  0.4373  0.3182  0.7327
16229TIP3   OH270101   6.180   5.102   6.067  0.1165 -0.1061  0.2960
16229TIP3    H170102   6.086   5.087   6.077  0.2131 -0.2834  0.9905
16229TIP3    H270103   6.203   5.160   6.139  0.3341  0.8808 -0.5442
16230TIP3   OH270104   0.901   4.112  12.782  0.0931 -0.1482  0.0198
16230TIP3    H170105   0.925   4.052  12.852  0.0468 -1.6980 -1.2418
16230TIP3    H270106   0.875   4.055  12.709  1.2895  1.3737 -1.6839
16231TIP3   OH270107   0.262   0.020  14.928  0.1305 -0.4512  0.0829
16231TIP3    H170108   0.340   0.057  14.888  1.7487 -1.4924  2.0640
16231TIP3    H270109   0.233   0.087  14.990  0.6136 -0.7813  0.6890
16232TIP3   OH270110   0.406   4.722   5.176 -0.2682  0.0558 -0.1497
16232TIP3    H170111   0.345   4.648   5.179  0.4808 -0.5916 -0.4247
16232TIP3    H270112   0.350   4.799   5.182 -1.0120 -0.5350  1.1052
16233TIP3   OH270113   0.069   1.937  13.076  0.1289  0.4551  0.2178
16233TIP3    H170114   0.142   1.977  13.030  0.9812  0.2568  1.3334
16233TIP3    H270115   0.095   1.940  13.168 -0.5487 -1.0642  0.4917
16234TIP3   OH270116   5.769   6.563  16.310 -0.5877  0.8543  0.1453
16234TIP3    H170117   5.734   6.636  16.259 -0.5265  0.3467 -0.6498
16234TIP3    H270118   5.860   6.586  16.326 -0.8294  1.3998  0.7503
16235TIP3   OH270119   1.295   3.312   1.420  0.0064 -0.3609 -0.0512
16235TIP3    H170120   1.378   3.304   1.374 -0.5118 -0.6438 -0.9849
16235TIP3    H270121   1.263   3.400   1.399  0.2059 -0.1430  0.5483
16236TIP3   OH270122   0.214   0.896   0.381  0.1500  0.1491 -0.2747
16236TIP3    H170123   0.210   0.854   0.467  1.0799 -0.0835 -0.3377
16236TIP3    H270124   0.170   0.834   0.323  1.9124 -0.9982 -0.4516
16237TIP3   OH270125   2.275   6.640   4.689  0.3331  0.7687  0.5421
16237TIP3    H170126   2.264   6.606   4.778 -0.3478 -0.0922  0.1413
16237TIP3    H270127   2.364   6.615   4.665 -0.4058 -1.4910 -0.0327
16238TIP3   OH270128   0.976   3.159  11.447  0.5466  0.1356  0.1744
16238TIP3    H170129   0.954   3.114  11.365 -1.6201 -0.0451  0.7903
16238TIP3    H270130   1.038   3.100  11.490 -2.1353 -2.3942  0.9164
16239TIP3   OH270131   0.395   0.123   2.347  0.0629 -0.0254 -0.0494
16239TIP3    H170132   0.410   0.035   2.311 -0.0612  0.2503 -0.8021
16239TIP3    H270133   0.333   0.163   2.286  2.0587  1.5013 -1.2272
16240TIP3   OH270134   4.823   0.889   1.296  0.0771 -0.4187 -0.2419
16240TIP3    H170135   4.833   0.949   1.222  0.1360  1.7582  1.4282
16240TIP3    H270136   4.810   0.946   1.372 -0.1061 -2.5502  1.4382
16241TIP3   OH270137   3.612   2.256  14.658  0.1477  0.8049 -0.0220
16241TIP3    H170138   3.690   2.206  14.633  0.8095  2.1545 -0.7716
16241TIP3    H270139   3.644   2.345  14.669 -1.0240  1.1077  1.1706
16242TIP3   OH270140   2.895   3.364   1.088  0.1156 -0.1907  0.2117
16242TIP3    H170141   2.829   3.334   1.150  1.4036 -0.7416  1.3716
16242TIP3    H270142   2.923   3.449   1.122  0.1141 -0.0296 -0.1861
16243TIP3   OH270143   0.532   2.258   2.599 -0.0853  0.1764  0.2331
16243TIP3    H170144   0.620   2.284   2.625 -0.3618  0.6373  0.7207
16243TIP3    H270145   0.544   2.214   2.514  0.6833 -0.3301  0.5897
16244TIP3   OH270146   5.889   2.737   2.978  0.0264  0.0549  0.1442
16244TIP3    H170147   5.897   2.642   2.969 -1.3619  0.0830 -1.9881
16244TIP3    H270148   5.976   2.766   3.008  1.2160 -1.6479 -1.4559
16245TIP3   OH270149   5.059   2.327  15.283 -0.1166 -0.3684  0.5427
16245TIP3    H170150   5.118   2.395  15.252 -1.3022  0.0676 -0.8773
16245TIP3    H270151   5.101   2.292  15.361  1.0144  1.3020  0.7306
16246TIP3   OH270152   5.963   1.801  11.086  0.2416  0.6814  0.0609
16246TIP3    H170153   5.926   1.744  11.018  0.8319 -1.4564  1.4526
16246TIP3    H270154   6.003   1.872  11.037 -1.2289  0.3662 -1.7200
16247TIP3   OH270155   6.386   2.737  14.313 -0.3860  0.1680  0.1014
16247TIP3    H170156   6.385   2.797  14.388 -0.4025 -0.1296  0.3387
16247TIP3    H270157   6.414   2.653  14.349  0.3028  0.1951 -0.3583
16248TIP3   OH270158   2.853   5.830  13.100 -0.1229  0.6310  0.3043
16248TIP3    H170159   2.808   5.771  13.161 -1.6062  0.7628 -0.6276
16248TIP3    H270160   2.825   5.802  13.013  1.9178  0.4871 -0.3572
16249TIP3   OH270161   3.204   5.944   0.280 -0.2713 -0.8981  0.6949
16249TIP3    H170162   3.170   5.860   0.251 -2.2372  0.1774 -0.4166
16249TIP3    H270163   3.210   5.997   0.200 -2.5134  1.0713  1.6888
16250TIP3   OH270164   2.204   6.370   4.621  0.1925  0.1758 -0.1466
16250TIP3    H170165   2.231   6.380   4.530  1.3577 -1.1477  0.0099
16250TIP3    H270166   2.236   6.449   4.665  1.4714 -0.1202 -0.5083
16251TIP3   OH270167   0.150   4.488   0.160 -0.0069  0.1641  0.2213
16251TIP3    H170168   0.084   4.544   0.121 -0.0976 -0.6945 -0.9137
16251TIP3    H270169   0.218   4.481   0.093  1.1678  0.8835  1.2939
16252TIP3   OH270170   5.389   1.665   0.891  0.2579  0.1136 -0.7353
16252TIP3    H170171   5.400   1.760   0.898 -0.4624  0.2552 -1.3875
16252TIP3    H270172   5.383   1.649   0.797  0.7472 -0.6308 -0.6486
16253TIP3   OH270173   1.829   6.361  14.675 -0.3541 -0.2044 -0.0093
16253TIP3    H170174   1.872   6.441  14.646  0.8032 -1.2519 -1.3217
16253TIP3    H270175   1.738   6.371  14.647  0.5898 -1.0112 -4.0860
16254TIP3   OH270176   3.969   6.090   3.343 -0.0828 -0.0199  0.0570
16254TIP3    H170177   3.905   6.151   3.308 -0.3333  0.3252  1.0761
16254TIP3    H270178   4.050   6.110   3.296 -1.0192 -1.4641 -2.3258
16255TIP3   OH270179   2.254   6.470   4.915 -0.0101  0.0182 -0.3914
16255TIP3    H170180   2.217   6.506   4.996  1.1374  0.0980  0.1185
16255TIP3    H270181   2.320   6.407   4.944  2.1327  1.7583 -1.1818
16256TIP3   OH270182   0.104   0.252  13.412 -0.3290 -0.4964 -0.7241
16256TIP3    H170183   0.116   0.316  13.481 -0.8626 -1.1985  0.0457
16256TIP3    H270184   0.186   0.202  13.411  0.0726  0.1682 -1.3015
16257TIP3   OH270185   0.155   0.582  15.372 -0.0950 -0.0773 -0.1979
16257TIP3    H170186   0.064   0.563  15.392 -1.4242  2.5687 -2.8122
16257TIP3    H270187   0.161   0.678  15.377  2.4080 -0.1475 -0.5530
16258TIP3   OH270188   3.695   4.624   2.775  0.1350  0.2644 -0.5356
16258TIP3    H170189   3.716   4.562   2.705 -1.4285  0.5377 -1.2938
16258TIP3    H270190   3.780   4.648   2.812  0.9183 -0.7317 -1.6068
16259TIP3   OH270191   2.754   4.070  12.849  0.0346  0.6018  0.4952
16259TIP3    H170192   2.796   4.028  12.774  1.4337 -0.9359  2.0493
16259TIP3    H270193   2.808   4.148  12.866 -0.5804  1.2271 -0.3708
16260TIP3   OH270194   2.756   4.773  12.064 -0.0058 -0.0393 -0.1296
16260TIP3    H170195   2.818   4.839  12.033  0.1908  0.5434  1.4012
16260TIP3    H270196   2.808   4.693  12.074 -0.4835 -0.8250 -3.1027
16261TIP3   OH270197   5.332   6.458   2.110  0.3125 -0.0732 -0.3278
16261TIP3    H170198   5.365   6.515   2.179  0.6556 -1.0329  0.3247
16261TIP3    H270199   5.402   6.456   2.045  0.5290 -0.1841 -0.0918
16262TIP3   OH270200   5.616   2.676   2.172 -0.4191 -0.2495  0.0653
16262TIP3    H170201   5.679   2.671   2.243  0.6611 -1.3368 -0.9276
16262TIP3    H270202   5.542   2.622   2.201 -0.5169  0.2814  0.8387
16263TIP3   OH270203   2.248   0.559   0.644  0.3613  0.3142 -0.1268
16263TIP3    H170204   2.333   0.583   0.609  0.7595 -1.5256 -0.5214
16263TIP3    H270205   2.219   0.484   0.591 -2.0770  1.6112 -0.8016
16264TIP3   OH270206   2.158   1.247  11.271  0.5398 -0.1567 -0.1458
16264TIP3    H170207   2.173   1.273  11.362  0.1075  1.7696 -0.5824
16264TIP3    H270208   2.198   1.317  11.219 -1.9014  0.4146 -1.3894
16265TIP3   OH270209   4.965   1.121   4.308 -0.0510  0.0424 -0.2309
16265TIP3    H170210   4.961   1.217   4.311 -0.3227  0.0143  0.3461
16265TIP3    H270211   5.034   1.102   4.245  0.9265  0.6330  0.6332
16266TIP3   OH270212   2.501   1.251   5.855  0.7613 -0.1921 -0.6074
16266TIP3    H170213   2.443   1.223   5.927  4.1901  0.8464  2.8780
16266TIP3    H270214   2.518   1.170   5.806 -2.6126 -0.7197 -1.1505
16267TIP3   OH270215   3.974   0.683  14.487 -0.1992  0.3989 -0.0634
16267TIP3    H170216   3.969   0.668  14.581 -1.3456 -0.2106 -0.2068
16267TIP3    H270217   3.883   0.686  14.458  0.1321  0.7696 -1.1297
16268TIP3   OH270218   4.374   4.348   2.035  0.0739 -0.2158  0.4302
16268TIP3    H170219   4.385   4.269   2.089 -2.4103 -1.1058 -0.2415
16268TIP3    H270220   4.279   4.359   2.027  0.3462  2.4565 -0.1157
16269TIP3   OH270221   1.141   4.808  11.884 -0.2679  0.0912 -0.4062
16269TIP3    H170222   1.170   4.717  11.877  1.5792  0.7180 -1.7622
16269TIP3    H270223   1.056   4.803  11.928 -0.2194 -2.2729 -0.4512
16270TIP3   OH270224   0.719   0.754  14.967  0.2623  0.2993 -0.9272
16270TIP3    H170225   0.707   0.736  14.873  1.8357  2.1257 -1.5554
16270TIP3    H270226   0.798   0.706  14.990  0.1889  0.2933 -0.6931
16271TIP3   OH270227   4.470   4.792  10.926 -0.2025  0.2659 -0.2521
16271TIP3    H170228   4.463   4.812  10.833  1.4975  0.4177 -0.3792
16271TIP3    H270229   4.563   4.806  10.947 -0.0809 -1.8624  0.9520
16272TIP3   OH270230   4.977   6.481  13.600 -0.6036 -0.2150  0.9154
16272TIP3    H170231   4.958   6.575  13.607  0.7262  0.0933  0.7762
16272TIP3    H270232   4.955   6.459  13.510 -0.0936  0.1787  0.6891
16273TIP3   OH270233   3.903   4.505  16.876  0.7623 -0.2236 -0.3774
16273TIP3    H170234   3.940   4.552  16.801 -0.9340 -0.2779 -1.2807
16273TIP3    H270235   3.893   4.415  16.845 -1.7473  0.1417 -0.8163
16274TIP3   OH270236   2.489   2.326   1.924  0.7881 -0.5107  0.1025
16274TIP3    H170237   2.486   2.421   1.937  1.2406 -0.5690  0.6858
16274TIP3    H270238   2.570   2.298   1.967  0.0099 -1.3312  1.0798
16275TIP3   OH270239   1.618   0.028  12.669 -0.6645  0.1245 -0.2399
16275TIP3    H170240   1.664   0.048  12.588  0.2828  0.9362  0.4722
16275TIP3    H270241   1.525   0.034  12.646 -0.5013 -2.2392 -1.8639
16276TIP3   OH270242   0.557   1.524  11.766  0.1939  0.0730  0.1265
16276TIP3    H170243   0.572   1.536  11.672  1.0570  2.1249  0.4627
16276TIP3    H270244   0.461   1.529  11.775 -0.0321 -1.8517 -0.7964
16277TIP3   OH270245   0.093   2.028   4.102 -0.2022 -0.0969  0.4574
16277TIP3    H170246   0.027   2.012   4.169 -0.2176 -0.6423  0.3180
16277TIP3    H270247   0.174   1.996   4.140 -0.2045 -0.3718  0.2293
16278TIP3   OH270248   3.502   6.574   5.834 -0.1491  0.0379  0.5245
16278TIP3    H170249   3.488   6.504   5.898  0.0711 -0.5682 -0.0883
16278TIP3    H270250   3.418   6.621   5.832 -0.6158 -0.8064  0.2105
16279TIP3   OH270251   1.638   1.394  11.851 -0.9046  0.0708  0.2196
16279TIP3    H170252   1.597   1.310  11.870  1.0335 -1.0888 -0.3730
16279TIP3    H270253   1.730   1.382  11.877  0.0539  1.0512 -2.3451
16280TIP3   OH270254   2.602   0.274   4.492  0.8311 -0.0763 -0.2683
16280TIP3    H170255   2.667   0.286   4.423  2.7434 -0.8537  1.2988
16280TIP3    H270256   2.569   0.362   4.510  2.5064  0.5647 -0.1689
16281TIP3   OH270257   0.614   4.963   4.831  0.1687 -0.5554  0.2483
16281TIP3    H170258   0.530   5.002   4.855 -0.5338 -1.3498 -0.7910
16281TIP3    H270259   0.632   4.995   4.743  0.8257 -0.6030  0.3574
16282TIP3   OH270260   5.428   0.103  17.089  0.1290 -0.0675  0.6634
16282TIP3    H170261   5.476   0.138  17.013  0.9883 -1.0436  0.7424
16282TIP3    H270262   5.338   0.133  17.076  0.6195  1.2987  0.1949
16283TIP3   OH270263   5.638   0.014   1.975  0.3234  0.2395  0.0690
16283TIP3    H170264   5.591   0.088   2.014  0.0981 -0.6867  1.6686
16283TIP3    H270265   5.724   0.016   2.016  0.6822  0.2231 -0.6715
16284TIP3   OH270266   2.384   0.174  12.561  0.1452  0.1541  0.3054
16284TIP3    H170267   2.468   0.215  12.580  0.2973 -0.5384  1.2170
16284TIP3    H270268   2.327   0.201  12.633 -0.2265  0.1056  0.0335
16285TIP3   OH270269   6.694   2.417  16.852  0.0761 -0.5642  0.2442
16285TIP3    H170270   6.624   2.369  16.897  0.4023 -1.3058 -0.0179
16285TIP3    H270271   6.774   2.369  16.876  0.2523 -0.9822 -1.1210
16286TIP3   OH270272   2.224   3.227  11.693 -0.0573 -0.2117 -0.5974
16286TIP3    H170273   2.201   3.238  11.785  1.4667  0.9166 -0.3207
16286TIP3    H270274   2.140   3.229  11.646 -0.8071 -0.3569  0.7019
16287TIP3   OH270275   1.567   2.968   2.015  0.3401  0.3434 -0.2612
16287TIP3    H170276   1.618   2.904   1.966  2.1649 -0.3479  2.3406
16287TIP3    H270277   1.491   2.920   2.047  0.1970  0.2781 -0.6900
16288TIP3   OH270278   3.804   1.412  14.537  0.0803 -0.1623 -0.3835
16288TIP3    H170279   3.771   1.484  14.591  1.5422 -0.0071  0.3753
16288TIP3    H270280   3.766   1.333  14.575 -0.5102  0.1120 -0.4045
16289TIP3   OH270281   0.204   3.827  13.574  0.0017 -0.2828  0.2091
16289TIP3    H170282   0.124   3.869  13.540  1.1179  0.1090 -2.1559
16289TIP3    H270283   0.192   3.826  13.669 -2.5122  0.3674 -0.0137
16290TIP3   OH270284   6.488   0.362   0.819  0.2329  0.7121 -0.1617
16290TIP3    H170285   6.396   0.343   0.836  0.6896 -1.0476  0.6193
16290TIP3    H270286   6.511   0.429   0.884 -0.5925  1.5566 -0.7073
16291TIP3   OH270287   1.764   1.690  11.053  0.1865  0.6607 -0.2290
16291TIP3    H170288   1.756   1.758  10.987 -2.9034  0.1326 -0.5576
16291TIP3    H270289   1.775   1.736  11.136 -2.0007  1.6591 -0.4272
16292TIP3   OH270290   4.828   1.550   0.499 -0.0247 -0.2749  0.3414
16292TIP3    H170291   4.862   1.573   0.413 -1.6011 -0.8403 -0.4838
16292TIP3    H270292   4.773   1.624   0.524 -0.4042 -0.5580  0.3654
16293TIP3   OH270293   0.629   6.648   5.019  0.3005  0.4034 -0.0349
16293TIP3    H170294   0.656   6.558   5.002  0.5258  0.5071 -0.2386
16293TIP3    H270295   0.608   6.683   4.932  0.1400  0.5249  0.0521
16294TIP3   OH270296   1.911   0.728   0.976 -0.1335  0.3346 -0.0214
16294TIP3    H170297   1.851   0.783   1.025 -0.5036 -0.4059  0.3668
16294TIP3    H270298   1.962   0.790   0.923 -2.3273  0.8711 -1.6106
16295TIP3   OH270299   2.652   2.378   3.564 -0.1767 -0.3417 -0.1674
16295TIP3    H170300   2.599   2.422   3.497 -0.1972 -1.6994 -1.0803
16295TIP3    H270301   2.726   2.341   3.515  1.2413  0.8774  0.9717
16296TIP3   OH270302   1.582   2.212   1.297  0.2584 -0.1037  0.5196
16296TIP3    H170303   1.617   2.295   1.328  0.7934  0.1102 -0.5866
16296TIP3    H270304   1.526   2.236   1.223  0.8105 -0.7609 -0.1242
16297TIP3   OH270305   5.464   1.428  13.394 -0.3297  0.2546 -0.2111
16297TIP3    H170306   5.550   1.387  13.388  0.7098  2.0384  1.5453
16297TIP3    H270307   5.450   1.467  13.308  1.6122  1.7508  0.0951
16298TIP3   OH270308   2.422   3.374   2.713 -0.0736  0.2937  0.0792
16298TIP3    H170309   2.372   3.308   2.760 -0.3298  0.6313  0.2895
16298TIP3    H270310   2.467   3.326   2.644  0.2028 -0.1843  0.5911
16299TIP3   OH270311   5.346   2.507  16.825 -0.5052  0.4657  0.4384
16299TIP3    H170312   5.422   2.560  16.846 -1.7845  2.0525  1.2734
16299TIP3    H270313   5.379   2.440  16.766  1.4577  1.3123  0.5112
16300TIP3   OH270314   6.415   4.846   2.589  0.1499 -0.0810 -0.2661
16300TIP3    H170315   6.329   4.882   2.612  0.1619 -0.3616  0.2343
16300TIP3    H270316   6.477   4.914   2.614  0.0893  0.0417 -0.4458
16301TIP3   OH270317   6.259   0.305   2.110  0.2242 -0.0646 -0.2244
16301TIP3    H170318   6.325   0.312   2.180  1.5673  0.5902 -1.4965
16301TIP3    H270319   6.222   0.393   2.104 -0.4069 -0.3026  0.1360
16302TIP3   OH270320   3.544   0.579  10.713 -0.2636 -0.1135 -0.7908
16302TIP3    H170321   3.500   0.494  10.712 -2.7869  1.0370 -3.6020
16302TIP3    H270322   3.588   0.584  10.628  0.5423  1.0854 -0.3297
16303TIP3   OH270323   0.947   0.040  11.711  0.2016 -0.4341  0.3410
16303TIP3    H170324   0.871   0.036  11.653  0.6055 -2.2027 -0.1145
16303TIP3    H270325   0.911   0.064  11.796 -0.5151  1.3114 -0.3981
16304TIP3   OH270326   4.524   3.884  11.388  0.0735  0.4788 -0.3259
16304TIP3    H170327   4.499   3.956  11.445  1.5617  0.2115  0.7282
16304TIP3    H270328   4.577   3.926  11.319  1.7425  0.3484  0.8058
16305TIP3   OH270329   2.981   1.477  12.888 -0.0522  0.1125  0.9142
16305TIP3    H170330   2.947   1.393  12.920  0.7286 -0.1716  1.0055
16305TIP3    H270331   2.902   1.528  12.867 -0.5314 -0.7282  0.6222
16306TIP3   OH270332   3.839   3.515  11.339 -0.0626 -0.1877  0.1941
16306TIP3    H170333   3.754   3.479  11.362  0.2745  1.1158  4.2652
16306TIP3    H270334   3.901   3.473  11.399  1.8107  0.5174 -1.1317
16307TIP3   OH270335   5.761   5.795  12.226 -0.1691 -0.4177 -0.0194
16307TIP3    H170336   5.692   5.853  12.195  0.2415 -0.5963 -1.3673
16307TIP3    H270337   5.755   5.718  12.169  0.4682 -0.8921  0.5314
16308TIP3   OH270338   5.258   5.051  16.299  0.3143 -0.2802  0.4766
16308TIP3    H170339   5.262   4.989  16.372  1.1397  0.9626  1.5231
16308TIP3    H270340   5.350   5.065  16.274  0.0221 -1.2497 -1.3336
16309TIP3   OH270341   2.314   3.214   2.354  0.1435 -0.2174  0.0111
16309TIP3    H170342   2.312   3.207   2.450  1.3548  1.1717  0.1615
16309TIP3    H270343   2.257   3.289   2.335 -0.0294 -0.4413 -0.3541
16310TIP3   OH270344   3.557   0.487   1.004 -0.0501 -0.7182  0.0678
16310TIP3    H170345   3.529   0.420   0.941 -0.0945 -1.6834  1.0719
16310TIP3    H270346   3.652   0.473   1.013  0.3308  0.7756 -1.3090
16311TIP3   OH270347   0.392   2.117   3.537 -0.3193  0.1477 -0.5810
16311TIP3    H170348   0.447   2.195   3.529  0.5729 -0.5186 -1.0981
16311TIP3    H270349   0.318   2.134   3.478  1.1685 -0.4494 -2.7412
16312TIP3   OH270350   3.272   0.793   4.392  0.0767 -0.6074  0.1879
16312TIP3    H170351   3.362   0.825   4.381 -0.2916  0.5907  0.6099
16312TIP3    H270352   3.220   0.870   4.412 -0.9649 -1.3644  0.5277
16313TIP3   OH270353   2.200   4.866   0.335 -0.1454  0.4963  0.0118
16313TIP3    H170354   2.156   4.938   0.380  2.7313  0.6163  3.0812
16313TIP3    H270355   2.167   4.787   0.378 -1.4964  0.0693 -1.6865
16314TIP3   OH270356   1.252   1.464   5.511 -0.1033  0.3295  0.2404
16314TIP3    H170357   1.181   1.504   5.461 -0.3855 -1.9796 -1.3914
16314TIP3    H270358   1.254   1.512   5.594 -2.7716  1.2549 -0.1402
16315TIP3   OH270359   5.717   6.240   5.122  0.1367 -0.6303 -0.1154
16315TIP3    H170360   5.811   6.221   5.119  0.1097 -0.6505 -1.1395
16315TIP3    H270361   5.695   6.236   5.215  1.3300  0.2858  0.2340
16316TIP3   OH270362   3.101   4.744   4.004 -0.1001 -0.1795 -0.2782
16316TIP3    H170363   3.115   4.649   4.007  0.3845 -0.1173 -0.5241
16316TIP3    H270364   3.006   4.753   4.001 -0.1661 -0.6427  0.2038
16317TIP3   OH270365   3.128   2.211  15.263  0.2735  0.0064 -0.0876
16317TIP3    H170366   3.173   2.226  15.346 -0.3084  1.2745  0.0184
16317TIP3    H270367   3.197   2.218  15.197  0.5492  0.1300  0.2108
16318TIP3   OH270368   1.539   1.442   1.719 -0.4506  0.1900  0.2775
16318TIP3    H170369   1.618   1.397   1.690 -0.4967 -1.0775  1.9553
16318TIP3    H270370   1.570   1.509   1.779 -0.5844  0.4290  0.0819
16319TIP3   OH270371   0.972   6.744  14.970  0.0384 -0.0686  0.5379
16319TIP3    H170372   0.886   6.763  14.933 -0.0873  0.5692  1.1330
16319TIP3    H270373   1.032   6.801  14.922  0.0568 -0.1430  0.4718
16320TIP3   OH270374   3.653   3.702  11.380  0.1298 -0.3772  0.1039
16320TIP3    H170375   3.729   3.651  11.353  0.4969  0.1642  0.1032
16320TIP3    H270376   3.681   3.793  11.374 -0.5537 -0.1664  0.0043
16321TIP3   OH270377   5.947   0.779   4.821 -0.4021 -0.2854  0.6188
16321TIP3    H170378   5.883   0.797   4.752  0.6067  2.1424  0.2258
16321TIP3    H270379   5.899   0.728   4.886 -2.4637  0.6840 -0.0760
16322TIP3   OH270380   1.387   4.306   4.132 -0.1267  0.0955 -0.3129
16322TIP3    H170381   1.339   4.319   4.051  0.2109 -0.3646 -0.5915
16322TIP3    H270382   1.384   4.212   4.147 -0.6702  0.2362  0.5103
16323TIP3   OH270383   5.014   6.264  16.053  0.4913  0.2971 -0.3224
16323TIP3    H170384   5.033   6.223  15.969 -0.2648  1.3498 -1.0300
16323TIP3    H270385   4.929   6.306  16.041  1.0089  1.6525  0.4993
16324TIP3   OH270386   5.106   5.895  13.834  0.0614 -0.2743  0.2259
16324TIP3    H170387   5.083   5.942  13.914  1.0797 -0.9993  0.9717
16324TIP3    H270388   5.023   5.881  13.789 -0.5491 -0.0531  1.2622
16325TIP3   OH270389   3.037   6.245  17.023 -0.4944 -0.1762  0.9866
16325TIP3    H170390   3.107   6.283  16.971 -0.3692 -1.8774 -0.1856
16325TIP3    H270391   3.027   6.304  17.098  0.8192  1.1547  0.1578
16326TIP3   OH270392   6.430   2.854  15.440  0.0663 -1.1764  0.0875
16326TIP3    H170393   6.481   2.885  15.515  0.5195 -0.3717 -0.5469
16326TIP3    H270394   6.353   2.813  15.480 -0.2964  0.2784  0.9793
16327TIP3   OH270395   6.351   5.371  15.138 -0.4082  0.1403  0.1902
16327TIP3    H170396   6.314   5.295  15.184  1.1231 -0.7153  0.0851
16327TIP3    H270397   6.374   5.337  15.052  3.6444 -0.4172  1.2472
16328TIP3   OH270398   3.341   2.758  15.145  0.4668 -0.1228 -0.2796
16328TIP3    H170399   3.332   2.671  15.107 -1.5629 -0.6818  1.3133
16328TIP3    H270400   3.395   2.745  15.223  0.9580  0.2307 -0.5541
16329TIP3   OH270401   3.346   1.733  17.187 -0.5111  0.2204 -0.0381
16329TIP3    H170402   3.350   1.734  17.092  0.0304  2.2011 -0.0289
16329TIP3    H270403   3.332   1.824  17.212  0.3503 -0.0962  1.8110
16330TIP3   OH270404   2.150   4.560   1.984 -0.3865 -0.5663  0.2341
16330TIP3    H170405   2.227   4.559   2.041 -0.2427 -0.3447  0.0469
16330TIP3    H270406   2.103   4.480   2.005  0.8749 -1.6764 -0.9862
16331TIP3   OH270407   4.029   4.898   2.978  0.2621 -0.5724 -0.1855
16331TIP3    H170408   4.102   4.869   3.032  0.2218 -0.0207  0.1680
16331TIP3    H270409   4.036   4.994   2.977 -0.8330 -0.4703  0.3934
16332TIP3   OH270410   4.528   3.062  14.289 -0.1243  0.2709 -0.0101
16332TIP3    H170411   4.493   3.144  14.323 -3.5693 -1.4373  1.0081
16332TIP3    H270412   4.464   3.034  14.223  0.0905 -2.2975  0.7520
16333TIP3   OH270413   2.505   5.743  15.942 -0.2399 -0.4237  0.4944
16333TIP3    H170414   2.415   5.735  15.912  0.1230  0.0434 -0.7652
16333TIP3    H270415   2.541   5.654  15.933 -0.4723 -0.5347  0.6667
16334TIP3   OH270416   1.750   5.097   5.647 -0.9494 -0.4082 -0.2677
16334TIP3    H170417   1.822   5.160   5.633 -1.2086 -0.1054 -0.2526
16334TIP3    H270418   1.780   5.042   5.719 -1.4172  0.7656  0.8600
16335TIP3   OH270419   2.018   2.030  14.021 -0.5542  0.2233  0.5156
16335TIP3    H170420   2.000   1.973  14.096 -2.5606  1.3807  0.9949
16335TIP3    H270421   1.991   2.117  14.050 -3.5607  0.4110 -2.1711
16336TIP3   OH270422   1.046   3.697  11.750  0.3428 -0.8041  0.8641
16336TIP3    H170423   0.973   3.635  11.753  2.3561 -3.2963  1.6345
16336TIP3    H270424   1.061   3.713  11.657 -1.1835 -0.1748  0.6971
16337TIP3   OH270425   2.005   2.058  14.797  0.3059 -0.8655  0.3202
16337TIP3    H170426   1.931   2.067  14.858 -2.0038 -2.1799 -2.0969
16337TIP3    H270427   1.995   2.131  14.736  1.4862 -0.6288  0.3863
16338TIP3   OH270428   5.839   1.308  11.094 -0.6335  0.0020  0.4824
16338TIP3    H170429   5.769   1.282  11.034 -1.0850 -0.5123  1.2102
16338TIP3    H270430   5.840   1.403  11.090 -3.0480  0.1947  2.2694
16339TIP3   OH270431   0.384   2.061   1.763 -0.0478  0.1603  0.1924
16339TIP3    H170432   0.416   2.097   1.846 -0.6608  1.9248 -0.2900
16339TIP3    H270433   0.430   2.111   1.696  0.1144 -0.9504 -0.5528
16340TIP3   OH270434   4.066   4.022  17.144 -0.2946 -0.4682  0.1374
16340TIP3    H170435   4.032   3.940  17.183 -2.7789 -0.3636 -1.5442
16340TIP3    H270436   4.128   3.993  17.077  0.0063 -0.8901  0.5921
16341TIP3   OH270437   4.698   3.056  14.605  0.6505 -0.0104 -0.3448
16341TIP3    H170438   4.632   3.013  14.551  1.2398 -2.1015  0.5065
16341TIP3    H270439   4.781   3.038  14.562  0.8680  0.9483 -0.3582
16342TIP3   OH270440   5.553   2.977  16.261  0.1507  0.2952 -0.0049
16342TIP3    H170441   5.623   2.938  16.209  0.3424  1.9892 -1.0690
16342TIP3    H270442   5.597   3.043  16.315 -0.3841  0.1067  0.6849
16343TIP3   OH270443   6.478   0.614  15.991 -0.2849 -0.5939 -0.3439
16343TIP3    H170444   6.408   0.666  15.952  0.9200  0.7882 -0.7764
16343TIP3    H270445   6.458   0.613  16.084 -0.6673  0.1645 -0.4032
16344TIP3   OH270446   6.461   1.421   4.964  0.2420  0.0759 -0.2884
16344TIP3    H170447   6.458   1.476   4.887 -0.8482 -1.2396 -1.2374
16344TIP3    H270448   6.550   1.431   4.998  1.6842 -1.3840 -3.3080
16345TIP3   OH270449   3.233   3.007  15.198  0.1548  0.4458  0.5286
16345TIP3    H170450   3.251   2.918  15.168  0.7565 -0.3912  3.1579
16345TIP3    H270451   3.138   3.011  15.206 -0.4512  1.7801 -4.2780
16346TIP3   OH270452   5.808   3.959  11.312 -0.4364  0.5680 -0.0840
16346TIP3    H170453   5.838   4.029  11.254 -1.0502 -0.5119 -1.7597
16346TIP3    H270454   5.836   3.879  11.269  0.2783 -0.2630  1.8174
16347TIP3   OH270455   5.207   0.849  16.537 -0.1895  0.4043 -0.3840
16347TIP3    H170456   5.136   0.806  16.584 -0.6162  1.6808  0.1814
16347TIP3    H270457   5.286   0.803  16.566 -0.6389 -0.0859  0.0862
16348TIP3   OH270458   1.078   0.830  15.273 -0.7920  0.2298 -0.4810
16348TIP3    H170459   1.125   0.823  15.190  1.0124 -0.3070  0.5311
16348TIP3    H270460   1.044   0.919  15.274  1.0081  0.9636 -0.8913
16349TIP3   OH270461   3.562   5.930  14.681  0.0820  0.7246  0.0761
16349TIP3    H170462   3.517   5.974  14.609  0.0004 -0.2819 -0.5122
16349TIP3    H270463   3.628   5.875  14.637  1.0782  1.2732  0.8537
16350TIP3   OH270464   6.098   5.065  12.608 -0.1291  0.0660 -0.3148
16350TIP3    H170465   6.073   5.139  12.663  0.5803 -0.3032  0.5345
16350TIP3    H270466   6.130   4.999  12.670  2.3636  0.2808 -1.2405
16351TIP3   OH270467   0.618   6.651  13.206 -0.2759 -0.3073 -0.1477
16351TIP3    H170468   0.693   6.663  13.265 -0.6137  1.2065 -0.0008
16351TIP3    H270469   0.632   6.563  13.168 -0.3508 -1.5878  2.5663
16352TIP3   OH270470   5.322   2.072  15.821 -0.3226  0.4954  0.0266
16352TIP3    H170471   5.375   2.148  15.796  1.5401  0.2436  2.7821
16352TIP3    H270472   5.351   2.051  15.910 -3.7398 -0.9170  0.9439
16353TIP3   OH270473   0.117   4.717  16.693 -0.1127  0.2999 -0.4525
16353TIP3    H170474   0.044   4.713  16.631  0.9516 -0.7715 -1.6919
16353TIP3    H270475   0.179   4.778  16.654  0.7333 -0.6711 -0.6488
16354TIP3   OH270476   6.633   1.939   1.859  0.3810  0.5004  0.8607
16354TIP3    H170477   6.709   1.939   1.800  0.1758 -1.3651  0.5220
16354TIP3    H270478   6.636   1.853   1.900 -2.3051 -0.1817 -0.1763
16355TIP3   OH270479   4.529   3.706  12.575 -0.0878  0.1755  0.4366
16355TIP3    H170480   4.583   3.707  12.497  0.1629 -0.6476  0.5947
16355TIP3    H270481   4.446   3.668  12.547  0.4410 -1.3386  0.8345
16356TIP3   OH270482   4.315   6.465  13.777 -0.2056 -0.1497  0.2406
16356TIP3    H170483   4.298   6.489  13.868  1.0461  1.0374  0.2030
16356TIP3    H270484   4.394   6.411  13.782 -1.0980 -1.4957  0.0007
16357TIP3   OH270485   4.959   5.473   1.368  0.4067 -0.0330  0.0941
16357TIP3    H170486   4.948   5.385   1.403 -0.0068  0.2944  0.8132
16357TIP3    H270487   4.996   5.460   1.281 -0.6318 -0.9724 -0.2318
16358TIP3   OH270488   6.682   1.541  16.022 -0.2241 -0.5753 -0.3743
16358TIP3    H170489   6.660   1.553  15.929 -1.9316  0.7349  0.1431
16358TIP3    H270490   6.610   1.487  16.056 -1.5050  1.7563  0.8554
16359TIP3   OH270491   4.410   3.300   3.005  0.1325 -0.0781 -0.6194
16359TIP3    H170492   4.405   3.362   3.078  0.5837 -1.4056  0.5864
16359TIP3    H270493   4.410   3.354   2.927  1.5830  1.5000  0.4154
16360TIP3   OH270494   0.391   4.092   1.483 -0.1889  0.0580 -0.2085
16360TIP3    H170495   0.341   4.172   1.500  1.3928  0.8836  0.9012
16360TIP3    H270496   0.460   4.120   1.423  2.2009  0.3817  2.4396
16361TIP3   OH270497   3.333   2.063   0.453  0.5786 -0.2920 -0.1512
16361TIP3    H170498   3.256   2.110   0.483  0.3155 -0.5821 -0.3631
16361TIP3    H270499   3.363   2.015   0.530  3.3150  3.3559  1.3242
16362TIP3   OH270500   5.761   0.025   0.404 -0.0486  0.0621  0.2272
16362TIP3    H170501   5.725   0.113   0.395 -1.4425 -0.4863  0.2529
16362TIP3    H270502   5.741  -0.001   0.493  0.3729 -0.2808  0.2257
16363TIP3   OH270503   6.420   1.388  17.194  0.1241 -0.7978 -0.2839
16363TIP3    H170504   6.399   1.344  17.277 -4.0143  1.3422  0.0430
16363TIP3    H270505   6.495   1.443  17.214  1.0886 -2.5231  1.1347
16364TIP3   OH270506   0.519   4.418   5.082  0.0279  0.2770  0.8104
16364TIP3    H170507   0.502   4.325   5.068 -0.6652  0.5809 -0.5353
16364TIP3    H270508   0.432   4.458   5.084  0.3455  0.9760  0.7348
16365TIP3   OH270509   3.156   1.293  11.733  0.3093  0.2821 -0.3900
16365TIP3    H170510   3.178   1.377  11.774 -1.5013  0.9528 -0.7274
16365TIP3    H270511   3.209   1.291  11.654  0.7684  0.8535 -0.1084
16366TIP3   OH270512   2.953   2.343  16.581  0.4479  0.2793 -0.3244
16366TIP3    H170513   2.897   2.269  16.606 -0.3476  0.9905  0.0415
16366TIP3    H270514   2.960   2.337  16.486  1.5593 -1.0807 -0.1826
16367TIP3   OH270515   1.100   3.759  14.024 -0.2831 -0.3711 -0.0849
16367TIP3    H170516   1.162   3.821  14.062  0.9346 -1.4384 -0.2582
16367TIP3    H270517   1.014   3.790  14.052  0.4180  0.3332  1.3826
16368TIP3   OH270518   4.756   2.391  14.881 -0.8492  0.3086  0.4186
16368TIP3    H170519   4.823   2.449  14.845  0.3755 -0.4598  1.3700
16368TIP3    H270520   4.791   2.303  14.869 -2.2257 -0.2028 -0.0920
16369TIP3   OH270521   5.177   3.977   3.615  0.4331 -0.5592 -0.9872
16369TIP3    H170522   5.108   4.000   3.553 -1.2268 -0.0750  0.9210
16369TIP3    H270523   5.170   3.882   3.625  0.5264 -0.6027 -1.3297
16370TIP3   OH270524   3.861   3.685   5.212 -0.1209 -0.0650 -0.2272
16370TIP3    H170525   3.900   3.598   5.203  0.5755  0.1701  0.4829
16370TIP3    H270526   3.771   3.668   5.240  0.4732 -0.5281  1.4621
16371TIP3   OH270527   1.845   4.181   1.434 -0.8885  0.5012  0.2320
16371TIP3    H170528   1.875   4.220   1.516 -2.6978 -0.0176  1.1719
16371TIP3    H270529   1.853   4.252   1.370 -0.2037  1.1494  1.0101
16372TIP3   OH270530   0.752   1.489   5.813  0.3321 -0.2976 -0.4855
16372TIP3    H170531   0.701   1.447   5.744 -0.7631  0.4853 -0.1750
16372TIP3    H270532   0.804   1.418   5.851  0.2172 -0.9170 -1.4659
16373TIP3   OH270533   0.416   6.164   5.842  0.1673  0.2029 -0.4667
16373TIP3    H170534   0.353   6.127   5.780  0.8433 -1.1626 -0.3654
16373TIP3    H270535   0.484   6.202   5.786  1.3730 -2.0412 -0.6529
16374TIP3   OH270536   2.784   6.098  13.509 -0.4702 -0.6171  0.2022
16374TIP3    H170537   2.800   6.103  13.604  0.0081  2.2604  0.0836
16374TIP3    H270538   2.872   6.099  13.471 -0.6632  0.7584 -0.2628
16375TIP3   OH270539   6.395   2.908  12.458 -0.1834 -0.6875 -0.3683
16375TIP3    H170540   6.380   2.849  12.532  0.0290  0.1660  0.3748
16375TIP3    H270541   6.322   2.891  12.399  0.1617 -2.0709 -0.4266
16376TIP3   OH270542   4.758   6.152   3.592 -0.3555  0.1420 -0.1353
16376TIP3    H170543   4.716   6.121   3.673  0.6681  0.8635  0.6901
16376TIP3    H270544   4.847   6.173   3.618  0.0769  0.1071 -1.5359
16377TIP3   OH270545   4.688   5.416  15.457  0.4420  0.5207  0.1510
16377TIP3    H170546   4.665   5.342  15.513 -1.6820 -1.4031 -2.9140
16377TIP3    H270547   4.626   5.485  15.482 -1.0044 -0.5758 -0.2595
16378TIP3   OH270548   0.080   3.844  11.430  0.2468 -0.7176 -0.7579
16378TIP3    H170549  -0.006   3.842  11.390 -0.1629  0.8728 -0.0415
16378TIP3    H270550   0.113   3.932  11.413  1.1455 -0.8425  0.1565
16379TIP3   OH270551   0.940   1.836  16.426  0.4712  0.0244 -0.1827
16379TIP3    H170552   0.907   1.835  16.516  1.8713  1.1895  0.3824
16379TIP3    H270553   1.030   1.804  16.434  1.5676  2.7537 -0.7111
16380TIP3   OH270554   6.433   4.562  13.555 -0.2661  0.0097 -0.7745
16380TIP3    H170555   6.523   4.595  13.545 -0.5716  2.5458  2.9697
16380TIP3    H270556   6.381   4.615  13.495  0.2544  1.2980 -0.1183
16381TIP3   OH270557   4.667   4.278   2.773  0.1314  0.7269  0.3412
16381TIP3    H170558   4.598   4.217   2.748 -1.2223  1.7892  1.3441
16381TIP3    H270559   4.728   4.277   2.699  0.3670 -2.0878  0.4804
16382TIP3   OH270560   6.365   2.480   3.774  0.1079  0.2853  0.5666
16382TIP3    H170561   6.306   2.523   3.713  2.1668 -0.7273 -2.4018
16382TIP3    H270562   6.445   2.533   3.772  0.8876 -0.8309  0.8668
16383TIP3   OH270563   0.854   4.443   1.622  0.1738 -0.5654  0.5974
16383TIP3    H170564   0.790   4.404   1.563  0.1775  0.3637 -0.0582
16383TIP3    H270565   0.820   4.425   1.710 -2.0288  1.4851  0.2804
16384TIP3   OH270566   6.559   0.492   0.094  0.0031 -0.3467 -0.1713
16384TIP3    H170567   6.586   0.495   0.186 -1.7175  0.4972  0.3445
16384TIP3    H270568   6.614   0.424   0.055  0.2696 -1.2314  1.6533
16385TIP3   OH270569   3.814   6.459  14.497  0.2903 -0.3196 -0.2074
16385TIP3    H170570   3.747   6.396  14.472  0.6263 -1.2996  1.2107
16385TIP3    H270571   3.766   6.531  14.538 -0.0959  0.4002 -1.8633
16386TIP3   OH270572   2.371   3.946  12.715 -0.3861  0.2096 -0.0739
16386TIP3    H170573   2.284   3.949  12.675 -0.0996  0.4752 -0.6883
16386TIP3    H270574   2.413   4.027  12.687 -1.3152  2.1642  3.4787
16387TIP3   OH270575   0.380   3.720  12.069  0.3923  0.3559  0.0690
16387TIP3    H170576   0.308   3.697  12.129 -0.8805  1.9487 -0.7577
16387TIP3    H270577   0.383   3.648  12.006 -0.2539  0.0997  0.3255
16388TIP3   OH270578   3.983   3.275  11.562 -0.5447 -0.5313  0.1558
16388TIP3    H170579   3.926   3.209  11.602  0.0888 -0.8459  0.5414
16388TIP3    H270580   3.995   3.341  11.630 -0.7899 -0.2516 -0.0702
16389TIP3   OH270581   0.459   4.579  15.738 -0.0451  0.1083 -0.1380
16389TIP3    H170582   0.485   4.557  15.827  0.0120 -2.4779 -0.7196
16389TIP3    H270583   0.390   4.517  15.716 -0.4130  1.0075 -1.7373
16390TIP3   OH270584   1.148   5.355   0.031  0.1243 -0.2207  0.1126
16390TIP3    H170585   1.221   5.305   0.068  0.7727  1.3793  1.0994
16390TIP3    H270586   1.151   5.335  -0.062  2.9667  1.1225 -0.1991
16391TIP3   OH270587   0.650   0.394   2.735  0.5538  0.5029  0.3009
16391TIP3    H170588   0.721   0.347   2.692  0.6105  0.0074  0.9273
16391TIP3    H270589   0.574   0.381   2.678  1.2130  2.0753 -1.0479
16392TIP3   OH270590   6.346   1.122   2.321 -0.0703  0.5520  0.5868
16392TIP3    H170591   6.256   1.119   2.352  0.1089  0.4328  1.1078
16392TIP3    H270592   6.360   1.036   2.281  0.2226  0.0565  1.7065
16393TIP3   OH270593   2.622   2.382   4.512  0.1970 -0.0534  0.3969
16393TIP3    H170594   2.715   2.372   4.494  0.8170  1.7452  2.2038
16393TIP3    H270595   2.580   2.377   4.426  1.8483 -1.6440 -0.3745
16394TIP3   OH270596   0.769   5.299   5.431  0.0896 -0.4296 -0.2782
16394TIP3    H170597   0.782   5.309   5.526  2.6020 -2.1405 -0.3414
16394TIP3    H270598   0.682   5.261   5.422 -0.3549  0.1257  1.2906
16395TIP3   OH270599   3.030   3.876   0.334 -0.6564  0.4848  0.4777
16395TIP3    H170600   3.079   3.803   0.298 -1.6980  1.0499 -2.2999
16395TIP3    H270601   3.084   3.907   0.407  0.4865 -2.1018  0.8303
16396TIP3   OH270602   1.506   4.578   3.299  0.4501 -0.5193 -0.3674
16396TIP3    H170603   1.466   4.494   3.278 -2.2658  0.0911  1.7923
16396TIP3    H270604   1.472   4.638   3.231 -0.8696 -0.4100  0.3515
16397TIP3   OH270605   0.485   3.012  12.818 -0.7327  0.3899 -0.9063
16397TIP3    H170606   0.427   2.984  12.890 -1.6751 -1.1697 -2.2134
16397TIP3    H270607   0.540   3.079  12.858 -0.6477 -0.9750  1.5235
16398TIP3   OH270608   1.997   5.248   5.962  0.5791 -0.4497  0.0263
16398TIP3    H170609   2.007   5.281   6.052  1.6631  1.2502 -0.6818
16398TIP3    H270610   1.904   5.226   5.956  0.1933  0.7189  1.1539
16399TIP3   OH270611   2.406   2.479   5.581  0.6082 -0.5945  0.5047
16399TIP3    H170612   2.368   2.393   5.567  0.7695 -0.3890 -1.5510
16399TIP3    H270613   2.331   2.538   5.588  0.4995 -0.7028  0.2811
16400TIP3   OH270614   3.731   0.423   0.008 -0.4336 -0.1541 -0.0529
16400TIP3    H170615   3.755   0.497   0.063  0.4599 -0.2983 -0.2254
16400TIP3    H270616   3.734   0.458  -0.081  0.5356 -0.5265 -0.1744
16401TIP3   OH270617   2.808   1.707   2.874 -0.2485 -0.5150 -0.2597
16401TIP3    H170618   2.904   1.711   2.871 -0.2791 -0.3724 -1.3946
16401TIP3    H270619   2.781   1.798   2.884 -0.2701 -0.5583  0.0897
16402TIP3   OH270620   5.840   3.726  11.165  0.6396  0.1226  0.0153
16402TIP3    H170621   5.814   3.665  11.234 -2.1342 -1.5967 -2.3532
16402TIP3    H270622   5.899   3.676  11.109 -0.2840  0.1249 -0.9987
16403TIP3   OH270623   3.450   0.862  15.838 -0.1423 -0.2430  0.1331
16403TIP3    H170624   3.400   0.929  15.884 -0.8923 -0.6000 -0.1415
16403TIP3    H270625   3.493   0.812  15.907  1.4367  1.2583  0.3043
16404TIP3   OH270626   3.573   1.664   5.505  0.0857  0.1088  0.0021
16404TIP3    H170627   3.608   1.631   5.588  0.4438  0.4819  0.0010
16404TIP3    H270628   3.557   1.585   5.453  3.6810 -0.0751 -1.1209
16405TIP3   OH270629   2.634   0.347   4.799  0.0460  0.6695 -0.0760
16405TIP3    H170630   2.727   0.361   4.814  0.3700  1.7785 -2.5259
16405TIP3    H270631   2.592   0.427   4.830  0.1961  1.0688 -0.8605
16406TIP3   OH270632   2.889   1.175  14.688 -0.1728  0.1920 -0.0402
16406TIP3    H170633   2.815   1.200  14.743  0.7230  2.9732  0.0271
16406TIP3    H270634   2.898   1.247  14.625  1.5132 -0.8402 -1.0527
16407TIP3   OH270635   1.649   4.726   1.381  0.5076  0.1393  0.1287
16407TIP3    H170636   1.656   4.803   1.325 -0.0836 -0.2685 -0.5116
16407TIP3    H270637   1.591   4.666   1.334  0.6641 -0.5509  0.7883
16408TIP3   OH270638   0.052   3.849  16.005 -0.9494 -0.2193 -0.6380
16408TIP3    H170639   0.077   3.776  15.948 -0.6833  0.8700 -1.9809
16408TIP3    H270640   0.127   3.861  16.063 -1.2115 -1.3259 -0.0275
16409TIP3   OH270641   0.627   3.905  10.783  0.3591 -0.2160 -0.3645
16409TIP3    H170642   0.685   3.914  10.707 -0.1025 -0.7437 -0.7909
16409TIP3    H270643   0.575   3.826  10.764  0.7919 -0.8205  0.8691
16410TIP3   OH270644   6.408   4.460   1.911 -0.7135  0.1013  0.5853
16410TIP3    H170645   6.457   4.382   1.938 -0.7867  0.2085  1.0436
16410TIP3    H270646   6.378   4.498   1.993 -0.1730  0.9459  0.3980
16411TIP3   OH270647   0.314   4.669  14.480  0.3757 -0.0715 -0.2615
16411TIP3    H170648   0.408   4.657  14.495  0.3570  0.0577 -0.0344
16411TIP3    H270649   0.277   4.581  14.490  0.5071 -0.1682 -0.6176
16412TIP3   OH270650   5.987   0.070  13.097 -0.0805  0.3129 -0.5043
16412TIP3    H170651   6.049   0.088  13.168 -0.8256 -0.6788  0.4262
16412TIP3    H270652   6.039   0.024  13.031  0.3456  0.1412 -0.0560
16413TIP3   OH270653   6.141   1.264   4.481 -0.4662  0.7816  0.1906
16413TIP3    H170654   6.224   1.261   4.529 -0.3254 -1.7270 -0.0372
16413TIP3    H270655   6.166   1.277   4.390 -0.2731 -0.1060  0.1040
16414TIP3   OH270656   0.198   2.376   2.262 -0.0048  0.2962 -0.3058
16414TIP3    H170657   0.224   2.346   2.175  0.8537  1.2324 -0.3874
16414TIP3    H270658   0.172   2.297   2.308  0.4325 -0.3231 -1.1068
16415TIP3   OH270659   5.916   5.319   1.124 -0.1212 -0.0219  0.2367
16415TIP3    H170660   5.914   5.297   1.217 -0.1816 -1.2364 -0.0393
16415TIP3    H270661   5.922   5.415   1.123  0.4900 -0.0182  1.4923
16416TIP3   OH270662   0.236   4.241  14.320 -0.2847 -0.1512  0.1128
16416TIP3    H170663   0.302   4.252  14.251 -0.0094  1.3867  0.5913
16416TIP3    H270664   0.161   4.203  14.275  1.2994 -3.1803 -0.2101
16417TIP3   OH270665   2.027   1.221  14.408  0.0377  0.2368  0.4688
16417TIP3    H170666   2.058   1.234  14.318 -1.4555  0.4562 -0.0301
16417TIP3    H270667   1.990   1.305  14.433 -1.7464 -0.4913  0.3937
16418TIP3   OH270668   2.173   3.657   4.752 -0.2806  0.0167 -0.3357
16418TIP3    H170669   2.242   3.648   4.818 -0.4312 -0.6713 -0.2668
16418TIP3    H270670   2.177   3.749   4.725 -1.6314  0.9284  2.2008
16419TIP3   OH270671   3.114   1.795  12.935  0.8586  0.0951  0.5258
16419TIP3    H170672   3.183   1.787  13.001 -0.9347 -1.9338  2.2774
16419TIP3    H270673   3.131   1.724  12.873  0.6987 -0.0154  0.6084
16420TIP3   OH270674   5.645   5.650   0.916 -0.3506  0.1184  0.0258
16420TIP3    H170675   5.553   5.654   0.944  0.3482 -2.6761  3.5054
16420TIP3    H270676   5.660   5.557   0.895  1.0974  0.9588 -3.2698
16421TIP3   OH270677   4.397   2.070   3.532 -0.1963  0.2711 -0.0360
16421TIP3    H170678   4.384   2.164   3.518  0.4916  0.4146  0.2688
16421TIP3    H270679   4.471   2.047   3.476 -0.7084 -0.2127 -0.5325
16422TIP3   OH270680   3.102   6.007  12.453  0.2405 -0.1107 -0.2799
16422TIP3    H170681   3.181   5.954  12.446  1.0307  0.7639  1.3868
16422TIP3    H270682   3.073   5.994  12.544 -0.1553  1.4261 -0.1677
16423TIP3   OH270683   0.415   0.513  13.084 -0.0851  0.0709  0.1671
16423TIP3    H170684   0.340   0.522  13.143 -0.5052  0.2096 -0.3788
16423TIP3    H270685   0.395   0.434  13.033  1.0825 -1.0479  1.3493
16424TIP3   OH270686   1.805   1.115  14.985  0.4211  0.4178  0.5003
16424TIP3    H170687   1.871   1.060  14.942  0.8307  1.4347 -0.2108
16424TIP3    H270688   1.792   1.188  14.925 -2.9616 -0.7872 -0.4405
16425TIP3   OH270689   1.311   3.585  14.509 -0.0981  0.4067  0.1301
16425TIP3    H170690   1.270   3.670  14.498  0.7821  1.0122  1.2900
16425TIP3    H270691   1.291   3.560  14.600 -1.6099 -1.3412 -0.6218
16426TIP3   OH270692   6.012   4.245   2.083 -0.0889  0.4088  0.3259
16426TIP3    H170693   6.105   4.234   2.105  0.3497  0.1014 -1.4639
16426TIP3    H270694   5.987   4.328   2.124  1.9607  2.2820 -1.8902
16427TIP3   OH270695   1.181   3.743   3.243  0.2853 -0.1708  0.0846
16427TIP3    H170696   1.090   3.716   3.238  0.1792  0.1100  0.4971
16427TIP3    H270697   1.187   3.795   3.323  0.8604 -0.3863  0.1890
16428TIP3   OH270698   1.935   5.523  12.590 -0.3260  0.3406  0.1011
16428TIP3    H170699   2.010   5.527  12.532 -0.6561 -0.9255 -0.4582
16428TIP3    H270700   1.962   5.464  12.661  0.0037  1.7114  1.1800
16429TIP3   OH270701   1.997   6.431  16.794  0.1770 -0.6749 -0.0185
16429TIP3    H170702   2.087   6.434  16.826  0.2553  0.9664 -0.3210
16429TIP3    H270703   1.944   6.439  16.873  0.1736 -3.5692  0.4085
16430TIP3   OH270704   6.528   0.690  14.335  0.1361 -0.2852  0.8376
16430TIP3    H170705   6.469   0.651  14.400 -0.4393 -0.8773 -0.0228
16430TIP3    H270706   6.600   0.727  14.387 -0.3868 -0.6156  1.8177
16431TIP3   OH270707   5.789   6.317   2.399  0.2939  0.3843 -0.3553
16431TIP3    H170708   5.721   6.293   2.336 -0.0995  2.2014 -0.6899
16431TIP3    H270709   5.759   6.281   2.483  1.3211 -2.9534 -1.2725
16432TIP3   OH270710   2.924   2.274   5.543  0.7399  0.0525  0.1055
16432TIP3    H170711   2.933   2.335   5.616  0.2416  2.0203 -1.4094
16432TIP3    H270712   2.841   2.298   5.502  0.4716 -1.7460 -0.4797
16433TIP3   OH270713   3.162   3.976   2.832  0.5140 -1.0481  0.1381
16433TIP3    H170714   3.096   4.045   2.820  1.7516  0.5225  1.7702
16433TIP3    H270715   3.160   3.926   2.751 -0.9122  0.5082 -0.8423
16434TIP3   OH270716   6.241   1.952   2.439  0.1967 -0.2200  0.2962
16434TIP3    H170717   6.198   1.944   2.354  0.7315  2.0660 -0.2503
16434TIP3    H270718   6.275   1.864   2.457 -4.1129 -2.1023  0.5353
16435TIP3   OH270719   1.905   2.549  11.719 -0.0769  0.4276 -0.0447
16435TIP3    H170720   1.982   2.509  11.679 -0.4876 -0.9792  0.5058
16435TIP3    H270721   1.906   2.518  11.810 -0.5270  1.5411  0.3573
16436TIP3   OH270722   0.393   2.788   5.056  0.8884 -0.1802  0.0765
16436TIP3    H170723   0.380   2.881   5.073  1.5814  0.2885 -1.7008
16436TIP3    H270724   0.480   2.768   5.091  0.3562 -0.4080  1.3023
16437TIP3   OH270725   5.582   0.376   6.048 -0.1510 -0.0186 -0.4731
16437TIP3    H170726   5.540   0.370   5.962 -1.0697 -0.6792  0.0019
16437TIP3    H270727   5.545   0.302   6.097 -0.5523  1.0465  0.8681
16438TIP3   OH270728   6.212   2.067  12.295  0.2417 -0.2236 -0.0174
16438TIP3    H170729   6.287   2.030  12.249 -0.2054  0.1744 -1.1136
16438TIP3    H270730   6.156   1.992  12.315  0.1652 -0.3459 -0.6681
16439TIP3   OH270731   4.945   6.531  15.559  0.0496  0.4093 -0.0128
16439TIP3    H170732   4.979   6.490  15.480 -1.6484  0.7661 -0.9601
16439TIP3    H270733   4.994   6.490  15.630  0.2908 -1.2752 -1.1069
16440TIP3   OH270734   2.661   6.366  11.701 -0.5383  0.0948 -0.2655
16440TIP3    H170735   2.605   6.403  11.632  1.3313  1.3237 -1.2127
16440TIP3    H270736   2.669   6.437  11.765 -0.6386 -0.3387  0.2322
16441TIP3   OH270737   5.944   3.852   2.685  0.0796  0.2590 -0.4473
16441TIP3    H170738   5.873   3.792   2.709  0.6245 -0.6422 -1.0797
16441TIP3    H270739   6.004   3.800   2.632  1.1938  1.0278  0.0135
16442TIP3   OH270740   2.146   5.515  10.559 -0.5084  0.1903 -0.5404
16442TIP3    H170741   2.133   5.602  10.522 -1.3460  0.5742  0.6047
16442TIP3    H270742   2.241   5.506  10.567 -0.4084  0.9252 -0.8097
16443TIP3   OH270743   0.964   1.584  12.764 -0.1320  0.0601 -0.6772
16443TIP3    H170744   1.048   1.631  12.765 -0.4392  0.7026  1.9758
16443TIP3    H270745   0.982   1.504  12.716  2.1027  0.0616  0.0499
16444TIP3   OH270746   4.391   3.286  11.561  0.6916 -0.3025 -0.0147
16444TIP3    H170747   4.344   3.209  11.594  2.3426 -0.9260  0.9531
16444TIP3    H270748   4.431   3.325  11.638 -1.7728  2.8202 -0.0992
16445TIP3   OH270749   2.260   5.439  13.753  0.0414 -0.7764  0.0548
16445TIP3    H170750   2.270   5.501  13.825  0.6679 -0.5481 -0.2267
16445TIP3    H270751   2.193   5.478  13.697  2.8994  1.5146 -2.0300
16446TIP3   OH270752   1.060   0.865   4.122  0.9270  0.1546  0.1836
16446TIP3    H170753   1.063   0.926   4.048  1.9706 -1.6547 -1.3474
16446TIP3    H270754   0.989   0.805   4.099  0.6369  0.1226  1.1390
16447TIP3   OH270755   4.383   1.949  12.660  0.3432  0.1357  0.4434
16447TIP3    H170756   4.446   2.014  12.690  0.3375 -1.1248  3.4946
16447TIP3    H270757   4.311   2.000  12.623  2.3709  1.6321 -1.7339
16448TIP3   OH270758   1.775   5.824  12.605  0.1865  0.0040  0.0592
16448TIP3    H170759   1.828   5.779  12.539  0.3949  0.0485  0.1938
16448TIP3    H270760   1.684   5.806  12.580  0.2681 -0.4137  0.0576
16449TIP3   OH270761   1.875   0.125   4.408 -0.0586  0.4253  0.1367
16449TIP3    H170762   1.872   0.033   4.433  0.0648  0.2633 -0.4255
16449TIP3    H270763   1.847   0.173   4.486  0.5542 -0.0497  0.6573
16450TIP3   OH270764   3.243   5.757  11.961 -0.3357  0.1244 -0.0508
16450TIP3    H170765   3.184   5.767  12.036  1.0165  0.1219  1.0611
16450TIP3    H270766   3.230   5.666  11.934 -1.5020  0.3845 -0.4237
16451TIP3   OH270767   6.336   0.179  11.192 -0.1750 -0.0632 -0.1162
16451TIP3    H170768   6.325   0.091  11.156 -0.2131  0.2907 -0.9951
16451TIP3    H270769   6.429   0.186  11.212 -0.1378 -0.2257 -0.2381
16452TIP3   OH270770   0.617   3.626   3.003  0.3315 -0.2676  0.0586
16452TIP3    H170771   0.563   3.555   3.038  1.9088  0.3176  4.3096
16452TIP3    H270772   0.695   3.582   2.968 -0.3861 -0.7830 -0.9374
16453TIP3   OH270773   1.662   4.134  14.842  1.0023  0.4105 -0.2957
16453TIP3    H170774   1.632   4.139  14.933 -2.0314 -0.7351 -1.0886
16453TIP3    H270775   1.615   4.205  14.798  1.3077  0.0514 -1.2195
16454TIP3   OH270776   5.324   2.546  12.782 -0.0925 -0.9055 -0.6132
16454TIP3    H170777   5.391   2.479  12.800  0.4607 -0.5849 -1.4137
16454TIP3    H270778   5.325   2.601  12.860 -0.4215 -1.7111 -0.0216
16455TIP3   OH270779   4.218   0.793  11.242  0.1075  0.5710 -1.0383
16455TIP3    H170780   4.298   0.845  11.238 -0.0441  0.7438 -3.1062
16455TIP3    H270781   4.236   0.717  11.186 -0.7030 -0.1060 -0.4089
16456TIP3   OH270782   6.155   3.580   0.615 -0.6749 -0.0267 -0.6108
16456TIP3    H170783   6.152   3.603   0.708  1.0226  1.2362 -0.8036
16456TIP3    H270784   6.072   3.611   0.580 -1.5576 -0.9851  0.5585
16457TIP3   OH270785   4.874   2.394  11.946 -0.1222 -0.1687 -0.5083
16457TIP3    H170786   4.915   2.453  12.009  0.9910 -0.4945 -0.9168
16457TIP3    H270787   4.864   2.447  11.866  2.1002 -0.8581 -1.3115
16458TIP3   OH270788   4.900   2.105  13.300  0.6395 -0.2992 -0.1829
16458TIP3    H170789   4.822   2.085  13.352  1.9105 -1.0903  1.5321
16458TIP3    H270790   4.890   2.197  13.275  0.6889  0.6386  2.8922
16459TIP3   OH270791   0.970   1.677   0.400  0.7979 -0.5466 -0.2135
16459TIP3    H170792   1.009   1.617   0.463 -1.1033 -0.4905  1.1090
16459TIP3    H270793   0.935   1.749   0.453  0.7066  0.4150 -1.5075
16460TIP3   OH270794   3.258   1.765   0.225  0.4042 -0.1277 -0.0231
16460TIP3    H170795   3.193   1.732   0.287  1.7783 -0.9862  1.0425
16460TIP3    H270796   3.226   1.852   0.201 -0.7988 -0.2582  0.9561
16461TIP3   OH270797   4.139   6.699  15.720 -0.0843 -0.1250  0.3177
16461TIP3    H170798   4.234   6.706  15.729 -0.2335  0.5675  1.5421
16461TIP3    H270799   4.123   6.711  15.626  1.0551 -0.6553  0.0367
16462TIP3   OH270800   5.574   5.655   2.973  0.1308 -0.1661 -0.3157
16462TIP3    H170801   5.537   5.566   2.981  1.0311 -0.5555 -0.3923
16462TIP3    H270802   5.668   5.642   2.982  0.4807  0.5088 -2.4257
16463TIP3   OH270803   3.047   4.609   1.689 -0.9448 -0.7962 -0.0440
16463TIP3    H170804   3.142   4.600   1.690 -0.9954 -1.3047  1.0405
16463TIP3    H270805   3.014   4.522   1.669 -1.1825 -0.4423 -1.2925
16464TIP3   OH270806   1.606   5.145  16.135 -0.2141 -0.5956  0.2434
16464TIP3    H170807   1.670   5.111  16.197 -0.5227 -0.3709  0.6955
16464TIP3    H270808   1.536   5.079  16.135 -1.2697  0.4361  1.8519
16465TIP3   OH270809   5.283   5.210  11.931 -0.0062  0.1104 -0.6022
16465TIP3    H170810   5.302   5.299  11.901  2.6245 -0.2597 -0.2963
16465TIP3    H270811   5.368   5.167  11.934 -1.1819 -2.4033 -0.5777
16466TIP3   OH270812   5.618   5.112  11.471 -0.1447  0.2258 -0.3468
16466TIP3    H170813   5.544   5.096  11.412 -0.5008  0.1797  0.1059
16466TIP3    H270814   5.581   5.104  11.559  0.2127  1.0567 -0.1103
16467TIP3   OH270815   1.270   5.218  13.878  0.0465 -0.5953  0.0145
16467TIP3    H170816   1.326   5.155  13.834  0.7837 -0.9938  1.4742
16467TIP3    H270817   1.241   5.174  13.958 -1.1885  0.1350  0.0032
16468TIP3   OH270818   0.345   2.822   3.189  0.3935 -0.4896  0.2633
16468TIP3    H170819   0.312   2.781   3.269  0.6904 -1.6420 -0.1961
16468TIP3    H270820   0.437   2.842   3.208 -0.1706  1.6166  1.1072
16469TIP3   OH270821   4.044   3.423  12.816  0.2344  0.3754 -0.3736
16469TIP3    H170822   4.074   3.358  12.753 -0.1116 -0.2781  0.1209
16469TIP3    H270823   4.032   3.374  12.897  1.4695  1.3576  0.4380
16470TIP3   OH270824   4.696   3.324   5.026  0.4744 -0.4481 -0.1003
16470TIP3    H170825   4.633   3.264   5.066  1.1489 -1.1309 -0.0505
16470TIP3    H270826   4.662   3.411   5.047 -1.4865 -0.7531 -1.6392
16471TIP3   OH270827   6.231   3.278   3.905 -0.4057  0.1821  0.1361
16471TIP3    H170828   6.307   3.274   3.848  0.2803  0.1890  1.0322
16471TIP3    H270829   6.198   3.188   3.909 -0.4365  0.1778 -0.2392
16472TIP3   OH270830   4.773   1.158  14.433  0.3385 -0.7909  0.2581
16472TIP3    H170831   4.678   1.158  14.442  0.3296  2.5057  1.3642
16472TIP3    H270832   4.802   1.088  14.492 -1.2887  0.1948  2.3426
16473TIP3   OH270833   0.998   4.533   2.062  0.4827  0.0310 -0.3875
16473TIP3    H170834   1.033   4.519   2.150  0.9953 -0.1290 -0.6147
16473TIP3    H270835   0.944   4.612   2.069  0.7626  0.1856 -0.0008
16474TIP3   OH270836   4.398   2.649   4.950 -0.0262 -1.0778 -0.1801
16474TIP3    H170837   4.354   2.692   5.024  0.0941  1.8998 -1.6798
16474TIP3    H270838   4.490   2.673   4.959  0.0877 -1.1951 -0.9374
16475TIP3   OH270839   2.343   0.366  14.049 -0.4793 -0.0706  0.2779
16475TIP3    H170840   2.370   0.392  14.137  0.8662  0.0300 -0.1492
16475TIP3    H270841   2.309   0.277  14.060  0.3903 -0.3538  0.7832
16476TIP3   OH270842   2.428   0.397  13.403  0.2531  0.0846  0.0643
16476TIP3    H170843   2.459   0.338  13.473 -0.2343  0.7978  0.9011
16476TIP3    H270844   2.455   0.484  13.431 -0.9583  0.5173 -0.0483
16477TIP3   OH270845   5.867   3.273  12.736 -0.1830 -0.1889  0.3679
16477TIP3    H170846   5.922   3.246  12.662 -1.0474 -0.9279 -0.0222
16477TIP3    H270847   5.850   3.366  12.721  0.2714 -0.1518  0.0497
16478TIP3   OH270848   4.733   2.492   5.050  0.3179  0.7864  0.0135
16478TIP3    H170849   4.806   2.482   5.111 -1.4933  0.7709  2.3345
16478TIP3    H270850   4.705   2.583   5.061 -0.8733  0.4101  0.2556
16479TIP3   OH270851   4.156   0.127   5.628  0.3441 -0.7154 -0.1300
16479TIP3    H170852   4.078   0.075   5.612  0.2307 -0.9902  1.2147
16479TIP3    H270853   4.124   0.218   5.629  0.0992 -0.8018  0.0356
16480TIP3   OH270854   3.093   2.263   4.733  0.1897 -0.0896  0.0811
16480TIP3    H170855   3.158   2.332   4.723  0.2056  0.1015  1.3610
16480TIP3    H270856   3.068   2.266   4.825 -3.2873  1.3559 -0.7281
16481TIP3   OH270857   2.395   2.445   5.242 -0.1095  0.2277 -0.1788
16481TIP3    H170858   2.415   2.355   5.268 -2.1019 -0.3138 -0.3900
16481TIP3    H270859   2.420   2.449   5.149  0.7861  0.1874  0.0447
16482TIP3   OH270860   0.954   3.706   1.871 -0.5721 -0.0029  0.0851
16482TIP3    H170861   1.013   3.712   1.947  1.3250  0.0538 -1.3128
16482TIP3    H270862   0.909   3.623   1.882  1.8128 -1.4185 -0.1237
16483TIP3   OH270863   6.627   4.129  14.897  0.3227 -0.4783  0.0369
16483TIP3    H170864   6.691   4.058  14.891  0.3326 -0.4137 -0.7531
16483TIP3    H270865   6.542   4.085  14.890  0.3456 -0.2585 -2.9023
16484TIP3   OH270866   6.266   0.167   6.419  0.2784  0.0678 -0.6116
16484TIP3    H170867   6.357   0.187   6.440  0.8663 -1.4005 -1.5910
16484TIP3    H270868   6.224   0.253   6.410  1.4303  0.7635  0.3472
16485TIP3   OH270869   0.478   6.080   5.501  0.0348  0.0973 -0.4358
16485TIP3    H170870   0.398   6.077   5.552 -0.2380  0.4482 -0.8383
16485TIP3    H270871   0.531   6.148   5.543 -0.0025  0.0740 -0.3509
16486TIP3   OH270872   4.013   0.409  16.993 -0.1644  0.6035  0.1801
16486TIP3    H170873   4.050   0.378  16.910  0.8994  2.0852  0.0559
16486TIP3    H270874   4.089   0.422  17.050 -0.8743 -0.3240  1.4071
16487TIP3   OH270875   0.400   3.140   5.770 -0.4284 -0.3576  0.1356
16487TIP3    H170876   0.326   3.160   5.828  0.9060  0.6239  1.5964
16487TIP3    H270877   0.458   3.085   5.822  0.5838  0.1488 -0.4091
16488TIP3   OH270878   5.428   2.506  15.640  0.1337 -0.2173 -0.2858
16488TIP3    H170879   5.410   2.418  15.674 -0.2475 -0.4224 -0.9952
16488TIP3    H270880   5.341   2.544  15.625  0.2947 -0.0009 -0.6791
16489TIP3   OH270881   4.960   6.466  17.003  0.1144  0.1790 -0.6539
16489TIP3    H170882   5.047   6.504  16.989 -0.0006  0.3504 -0.9010
16489TIP3    H270883   4.920   6.464  16.917 -0.0473 -0.1063 -0.5737
16490TIP3   OH270884   0.890   0.325   1.470 -0.1464 -0.0900 -0.8713
16490TIP3    H170885   0.853   0.405   1.509  0.0578 -0.9826  1.2505
16490TIP3    H270886   0.975   0.353   1.435  0.1901  0.5152  0.3772
16491TIP3   OH270887   1.005   5.766  12.609 -0.4740 -0.1454  0.1859
16491TIP3    H170888   1.063   5.691  12.623  0.1546  0.3560  0.2463
16491TIP3    H270889   0.966   5.782  12.695 -0.7929 -0.5458  0.1226
16492TIP3   OH270890   2.587   6.119  14.604 -0.5560  1.0029  0.9604
16492TIP3    H170891   2.587   6.142  14.512  1.4482 -2.5014 -0.0855
16492TIP3    H270892   2.497   6.093  14.622 -0.4080 -1.1388 -0.9513
16493TIP3   OH270893   6.501   4.198   2.030  0.1136  0.5633  0.0444
16493TIP3    H170894   6.562   4.125   2.036  0.5317  0.8442 -0.7044
16493TIP3    H270895   6.415   4.159   2.045  0.1909 -0.3292 -1.5947
16494TIP3   OH270896   0.779   4.624  12.284  0.3229  0.0832  0.2323
16494TIP3    H170897   0.751   4.709  12.251 -0.1421 -0.3181 -0.4315
16494TIP3    H270898   0.838   4.589  12.217  0.2781 -0.2438  0.3565
16495TIP3   OH270899   6.581   5.616   0.550  0.7563 -0.1058  0.4832
16495TIP3    H170900   6.498   5.568   0.546 -0.9215  2.2305  3.3072
16495TIP3    H270901   6.603   5.633   0.459 -3.1526  1.1351 -0.4396
16496TIP3   OH270902   1.625   0.152  11.340 -0.3044 -0.1756  0.2543
16496TIP3    H170903   1.703   0.207  11.341  0.0854 -0.7293  0.2342
16496TIP3    H270904   1.623   0.115  11.252  0.4780 -1.6760  0.8409
16497TIP3   OH270905   2.550   1.826   3.630 -0.4158 -0.2389 -0.2340
16497TIP3    H170906   2.645   1.814   3.634 -0.3090  0.7795  0.5593
16497TIP3    H270907   2.536   1.917   3.653 -1.6024 -0.3857 -0.2989
16498TIP3   OH270908   5.896   0.746   2.794  0.8264  0.0017 -0.2769
16498TIP3    H170909   5.854   0.690   2.729 -0.0238  0.3607 -0.0524
16498TIP3    H270910   5.981   0.704   2.811 -0.3386 -2.0296  0.9246
16499TIP3   OH270911   2.687   0.207   5.575  0.4915 -0.1996 -0.0086
16499TIP3    H170912   2.642   0.286   5.544 -0.5932 -0.9025 -0.2735
16499TIP3    H270913   2.736   0.236   5.652  0.0849  0.7269 -0.0814
16500TIP3   OH270914   4.305   0.387  16.329  0.1407 -0.0150 -0.4930
16500TIP3    H170915   4.380   0.360  16.383  0.2770 -1.4243 -1.3198
16500TIP3    H270916   4.276   0.305  16.288 -1.1316  0.7147 -1.0809
16501TIP3   OH270917   5.962   4.052   0.746  0.3530  0.0997  0.0923
16501TIP3    H170918   5.975   4.132   0.695  1.1298 -0.2313 -0.2505
16501TIP3    H270919   5.962   3.982   0.681 -1.9026 -0.0774  0.2111
16502TIP3   OH270920   0.581   4.482  14.772  0.2412 -0.0424 -0.6470
16502TIP3    H170921   0.493   4.444  14.781  0.1965 -0.1316 -1.3829
16502TIP3    H270922   0.571   4.548  14.704  0.4399  0.9523  0.2587
16503TIP3   OH270923   5.557   0.867  17.075  0.4497 -0.1922 -0.5522
16503TIP3    H170924   5.468   0.897  17.092  0.6742  1.5615 -2.0438
16503TIP3    H270925   5.594   0.850  17.161 -0.8313  0.6386  0.1945
16504TIP3   OH270926   4.517   6.386  12.938  0.1051  0.2253  0.2285
16504TIP3    H170927   4.546   6.301  12.970 -0.4038 -0.4826 -1.1119
16504TIP3    H270928   4.594   6.424  12.897  0.6490  0.9585  1.8293
16505TIP3   OH270929   2.023   2.782  11.490 -0.5562 -0.0333 -0.3454
16505TIP3    H170930   2.068   2.698  11.481 -0.6236 -0.1601  0.4280
16505TIP3    H270931   1.933   2.764  11.461 -1.2732 -0.9060  2.1603
16506TIP3   OH270932   3.624   4.819  13.377  0.8826  0.0728 -0.1780
16506TIP3    H170933   3.598   4.891  13.435 -0.3831 -0.4180 -0.1008
16506TIP3    H270934   3.715   4.839  13.353 -0.4398  3.6485 -3.0912
16507TIP3   OH270935   1.345   3.471   4.612 -0.0583  0.2866 -0.3135
16507TIP3    H170936   1.393   3.466   4.530  1.0324  1.1045  0.2494
16507TIP3    H270937   1.409   3.448   4.679 -1.3319 -2.0330  0.2381
16508TIP3   OH270938   1.808   1.415  14.068 -0.1223 -0.0614 -0.3355
16508TIP3    H170939   1.847   1.415  13.980 -2.9296 -0.6173 -1.6934
16508TIP3    H270940   1.750   1.338  14.069  1.1231 -1.1256  2.6995
16509TIP3   OH270941   6.294   3.437   0.443 -0.6726 -0.1423 -0.3133
16509TIP3    H170942   6.250   3.485   0.513  0.1309 -0.8095  0.6897
16509TIP3    H270943   6.336   3.505   0.390 -0.9225  0.3515  0.1099
16510TIP3   OH270944   3.671   3.068   0.007 -0.3600  0.4010  0.5377
16510TIP3    H170945   3.655   3.162  -0.005 -0.7071  0.3946  0.8974
16510TIP3    H270946   3.621   3.046   0.086  0.5212  0.1182  1.0305
16511TIP3   OH270947   2.286   2.647  12.138 -0.9838  0.6656 -0.7610
16511TIP3    H170948   2.307   2.739  12.123 -0.8626  1.0064  1.1710
16511TIP3    H270949   2.199   2.635  12.101 -0.9242  1.5154 -1.1938
16512TIP3   OH270950   0.363   1.566   3.462 -0.8864 -0.2339  0.2827
16512TIP3    H170951   0.458   1.560   3.449 -1.0585 -0.6811 -0.8539
16512TIP3    H270952   0.353   1.582   3.556  0.2817 -0.9514  0.5506
16513TIP3   OH270953   1.359   2.344  16.995 -0.6071 -0.6093 -0.0021
16513TIP3    H170954   1.316   2.421  16.959 -0.6013 -0.5419  0.1311
16513TIP3    H270955   1.310   2.270  16.959 -1.0096 -0.5263  0.3638
16514TIP3   OH270956   3.702   1.724  13.892 -0.2204  0.2627  0.1575
16514TIP3    H170957   3.721   1.818  13.892 -0.1584  0.2538  0.5610
16514TIP3    H270958   3.725   1.696  13.981 -2.4164  0.3238  0.8135
16515TIP3   OH270959   3.156   1.455  16.471 -0.3980  0.2234 -0.2521
16515TIP3    H170960   3.173   1.401  16.549 -0.0277  0.6861 -0.0051
16515TIP3    H270961   3.129   1.540  16.506 -0.5874  0.3210 -0.6351
16516TIP3   OH270962   2.141   0.842  16.487  0.1400  0.8463  0.9945
16516TIP3    H170963   2.165   0.813  16.399 -0.0052  0.6966  1.0062
16516TIP3    H270964   2.167   0.934  16.489  3.2069  0.0763  1.8790
16517TIP3   OH270965   2.395   6.510   2.973 -0.1130  0.2341  0.1169
16517TIP3    H170966   2.319   6.528   2.917 -0.3985  1.0086  0.7318
16517TIP3    H270967   2.402   6.587   3.029 -0.1986 -0.7692  1.5578
16518TIP3   OH270968   2.623   1.657  10.585  0.2634 -0.0490 -0.0230
16518TIP3    H170969   2.631   1.581  10.528 -1.8102 -1.7750  1.8097
16518TIP3    H270970   2.684   1.721  10.548  0.6665 -1.8492 -2.7897
16519TIP3   OH270971   2.484   3.285   5.521 -0.1829  0.3400  0.8382
16519TIP3    H170972   2.410   3.324   5.474 -0.2410  0.4987  1.0591
16519TIP3    H270973   2.507   3.351   5.587  1.9648  1.5716 -1.0061
16520TIP3   OH270974   6.666   5.057  16.260  0.2532  0.4512 -0.3433
16520TIP3    H170975   6.624   5.021  16.182 -1.0442  0.5355  0.2995
16520TIP3    H270976   6.671   5.151  16.244  0.0239  0.4630 -0.3416
16521TIP3   OH270977   4.471   4.115  17.200  0.3237 -0.6326  0.0361
16521TIP3    H170978   4.419   4.062  17.139 -0.3331 -1.1232  1.0039
16521TIP3    H270979   4.530   4.164  17.143 -2.1102  1.0399 -1.2599
16522TIP3   OH270980   3.209   0.259  16.057 -0.5451 -0.3629  0.2002
16522TIP3    H170981   3.149   0.189  16.083 -2.3536  0.5522 -1.2816
16522TIP3    H270982   3.262   0.221  15.987  0.6459 -1.1558  1.4754
16523TIP3   OH270983   1.090   0.141   4.172  0.7705  0.2495 -0.3568
16523TIP3    H170984   1.039   0.113   4.096  2.9435 -0.6418 -1.5678
16523TIP3    H270985   1.148   0.068   4.190  0.8826  0.7878  1.6858
16524TIP3   OH270986   3.861   3.339   2.355 -0.3519 -0.2918 -0.4037
16524TIP3    H170987   3.770   3.323   2.331 -0.4429  1.6600 -1.5300
16524TIP3    H270988   3.906   3.257   2.337 -1.5872 -0.7673 -1.4138
16525TIP3   OH270989   3.647   4.727   1.754  0.1595 -0.5542  0.4101
16525TIP3    H170990   3.625   4.737   1.661 -0.9552 -0.0536  0.7115
16525TIP3    H270991   3.632   4.634   1.773  1.8666 -1.0024 -0.2526
16526TIP3   OH270992   5.052   3.178   1.167 -0.0343 -0.5507 -0.1207
16526TIP3    H170993   5.056   3.269   1.136 -0.6186 -0.6474 -0.5039
16526TIP3    H270994   5.108   3.177   1.244  2.2525 -0.5020 -1.6658
16527TIP3   OH270995   5.171   4.759  14.937 -0.2168 -0.6263 -0.1733
16527TIP3    H170996   5.122   4.713  14.869  0.4846  0.7308 -1.6706
16527TIP3    H270997   5.193   4.844  14.898  1.8786 -0.5326  1.0216
16528TIP3   OH270998   0.220   1.146   5.986 -0.0682 -0.2006 -0.0576
16528TIP3    H170999   0.231   1.153   6.081 -0.7191 -1.5001  0.1396
16528TIP3    H271000   0.253   1.059   5.965 -0.9478 -0.3589 -0.8498
16529TIP3   OH271001   2.584   1.087  16.978  0.4151  0.5324  0.0697
16529TIP3    H171002   2.663   1.050  16.939  0.0610 -0.6506  0.4297
16529TIP3    H271003   2.586   1.179  16.952  1.0992  0.1826 -1.2563
16530TIP3   OH271004   3.158   3.491  16.208  0.3862 -0.0305  0.0477
16530TIP3    H171005   3.081   3.448  16.247 -0.7602  0.9627 -1.0302
16530TIP3    H271006   3.217   3.419  16.186 -0.5804 -0.8874  0.1806
16531TIP3   OH271007   2.745   2.886   3.909 -0.3243  0.3931 -0.2082
16531TIP3    H171008   2.693   2.944   3.965 -0.1711  0.3601 -0.0325
16531TIP3    H271009   2.680   2.831   3.865 -0.3403 -1.2086  1.7013
16532TIP3   OH271010   5.544   0.161  15.398 -0.1774  0.4494  0.5039
16532TIP3    H171011   5.503   0.212  15.468  1.7989  0.4668  1.7266
16532TIP3    H271012   5.493   0.183  15.320 -2.0677  0.9167  1.7953
16533TIP3   OH271013   4.322   0.369  14.705  0.3907  0.2322 -0.1231
16533TIP3    H171014   4.294   0.282  14.731 -0.4013  0.5819  0.2212
16533TIP3    H271015   4.415   0.371  14.725  0.4938 -0.6589 -0.4780
16534TIP3   OH271016   1.433   6.335  11.092 -0.3860  0.0500  0.3026
16534TIP3    H171017   1.351   6.364  11.131  0.3619  1.5844  0.8054
16534TIP3    H271018   1.421   6.241  11.078 -2.7659  0.4505 -1.0056
16535TIP3   OH271019   4.852   4.932  12.061  0.5302  0.4530 -0.0084
16535TIP3    H171020   4.941   4.962  12.043 -0.0125  1.1049 -1.7972
16535TIP3    H271021   4.850   4.842  12.030  1.2233 -0.4235  2.3189
16536TIP3   OH271022   4.798   2.009   0.579 -0.6956 -0.0736 -0.2012
16536TIP3    H171023   4.770   2.081   0.521  0.4100  1.7149  1.3555
16536TIP3    H271024   4.800   2.048   0.666 -1.8762 -2.5751  1.0399
16537TIP3   OH271025   3.756   4.892   4.813  0.3252  0.3846  0.1008
16537TIP3    H171026   3.839   4.846   4.826  0.2586 -0.0937 -1.0506
16537TIP3    H271027   3.735   4.929   4.899  0.2719 -1.8889  1.1382
16538TIP3   OH271028   3.602   3.795  12.992 -0.4015  0.7792 -0.2104
16538TIP3    H171029   3.595   3.881  12.950 -1.1113  0.4572 -0.7886
16538TIP3    H271030   3.677   3.802  13.051 -0.1121  1.6177 -0.6671
16539TIP3   OH271031   1.147   0.442   1.102  0.5616  0.1593 -0.1117
16539TIP3    H171032   1.233   0.480   1.120  0.7493 -0.4887  0.3835
16539TIP3    H271033   1.165   0.352   1.076 -0.1141 -1.0740  3.2100
16540TIP3   OH271034   4.232   1.219   0.993  0.2421  0.4986  0.0196
16540TIP3    H171035   4.263   1.133   0.966 -0.8746  0.1586 -0.2184
16540TIP3    H271036   4.190   1.204   1.077  1.1400  1.0483  0.5909
16541TIP3   OH271037   2.463   4.407   5.334 -0.6122 -0.0471 -0.0950
16541TIP3    H171038   2.490   4.341   5.398 -2.4370 -2.3962 -1.5987
16541TIP3    H271039   2.545   4.433   5.292  0.0148 -3.4009 -1.2619
16542TIP3   OH271040   6.529   3.932  16.861 -0.6429  0.1282  0.3627
16542TIP3    H171041   6.564   4.007  16.909  2.3865 -0.3829 -0.7756
16542TIP3    H271042   6.497   3.872  16.928  1.1693  0.4908  1.6232
16543TIP3   OH271043   0.199   6.536  13.008  0.0347 -0.0413  0.2053
16543TIP3    H171044   0.140   6.464  13.031  0.8654 -1.0251 -0.6998
16543TIP3    H271045   0.157   6.578  12.933  0.2188 -0.4112 -0.1046
16544TIP3   OH271046   4.233   4.652  13.451 -0.2007 -0.8257  0.1174
16544TIP3    H171047   4.295   4.686  13.515 -1.1992 -0.1403  0.7407
16544TIP3    H271048   4.184   4.585  13.498  0.8444 -2.2247 -0.7162
16545TIP3   OH271049   1.623   2.102   4.005  0.3640 -0.1176 -0.0906
16545TIP3    H171050   1.606   2.047   4.082 -0.1952 -0.9037 -0.7535
16545TIP3    H271051   1.627   2.040   3.932  0.0978  0.6876 -0.8048
16546TIP3   OH271052   5.516   4.471   3.287 -0.3757 -0.6138 -0.5451
16546TIP3    H171053   5.440   4.527   3.274 -0.3963 -0.0455  1.6469
16546TIP3    H271054   5.485   4.402   3.346  0.5426 -0.9697 -0.4655
16547TIP3   OH271055   6.104   4.526  12.883  0.5334 -0.1180 -0.0862
16547TIP3    H171056   6.126   4.455  12.823 -1.2165 -0.5954 -0.2080
16547TIP3    H271057   6.078   4.599  12.826  0.8971  0.1339  0.0637
16548TIP3   OH271058   6.636   5.979   0.357  0.4183 -0.1330  0.2127
16548TIP3    H171059   6.589   5.899   0.334  1.0031 -0.4823  0.2152
16548TIP3    H271060   6.656   5.969   0.450  1.3727 -0.4526 -0.0125
16549TIP3   OH271061   6.279   2.562  16.663  0.4106  0.5721 -0.1945
16549TIP3    H171062   6.295   2.646  16.707  0.2469  1.4740 -1.7989
16549TIP3    H271063   6.360   2.544  16.616  0.2256  0.1398 -0.3489
16550TIP3   OH271064   6.327   4.881   4.619  0.2685  0.4958  0.1485
16550TIP3    H171065   6.368   4.958   4.659 -0.8802  0.4407  1.5295
16550TIP3    H271066   6.340   4.811   4.683 -1.1867  0.2670  0.2155
16551TIP3   OH271067   0.430   4.862  15.875 -0.7835 -0.0251  0.1960
16551TIP3    H171068   0.449   4.949  15.909 -2.8568  0.2428  0.8166
16551TIP3    H271069   0.460   4.802  15.943 -1.1212  0.3160  0.6512
16552TIP3   OH271070   4.285   2.649  11.191 -0.1376  0.0597  0.3404
16552TIP3    H171071   4.242   2.734  11.190  1.1957  0.7944  1.5212
16552TIP3    H271072   4.371   2.666  11.230  1.4002 -1.2451 -2.2132
16553TIP3   OH271073   1.811   4.551   4.391 -0.1974  0.1896 -0.1318
16553TIP3    H171074   1.817   4.597   4.307  1.0181  2.9119  1.3216
16553TIP3    H271075   1.717   4.543   4.407 -0.4473 -0.2275 -1.6361
16554TIP3   OH271076   4.423   3.756   1.297 -0.1962  0.1067  0.2882
16554TIP3    H171077   4.431   3.703   1.376 -0.5330  0.9356  0.8923
16554TIP3    H271078   4.436   3.694   1.225 -1.6590 -1.0003  0.9391
16555TIP3   OH271079   2.300   5.431   1.262  0.5924  0.1294 -0.3779
16555TIP3    H171080   2.315   5.437   1.167  0.7601 -0.8154 -0.4212
16555TIP3    H271081   2.231   5.365   1.271  0.6107  0.1810  0.1609
16556TIP3   OH271082   3.650   3.896   1.624 -0.2533 -0.4004  0.2089
16556TIP3    H171083   3.625   3.804   1.613 -1.6838 -0.4437  2.9710
16556TIP3    H271084   3.712   3.895   1.697  0.9411  0.7345 -0.7280
16557TIP3   OH271085   3.468   2.726  10.982  0.1123 -0.3649  0.2567
16557TIP3    H171086   3.544   2.741  10.926  0.3907 -2.0955  0.1318
16557TIP3    H271087   3.404   2.792  10.953  1.2417  0.5777 -0.1888
16558TIP3   OH271088   1.374   5.166   4.482  0.4342 -0.4061  0.2685
16558TIP3    H171089   1.465   5.192   4.500  1.0879 -2.4279  0.1309
16558TIP3    H271090   1.353   5.210   4.399  1.8806 -1.2080 -0.5666
16559TIP3   OH271091   6.072   4.965  10.890  0.6143 -0.0566  0.2431
16559TIP3    H171092   6.147   4.935  10.839 -0.8417 -0.2361 -1.9261
16559TIP3    H271093   6.048   5.049  10.851 -1.5536 -0.9775 -0.5793
16560TIP3   OH271094   3.238   6.436   2.408  0.2082  0.5571  0.2737
16560TIP3    H171095   3.273   6.462   2.494 -2.6774  1.1518  1.3967
16560TIP3    H271096   3.264   6.507   2.349  2.0716  0.2349  0.6410
16561TIP3   OH271097   1.333   3.612  11.320  0.2605 -0.1187  0.3380
16561TIP3    H171098   1.336   3.520  11.349  0.0343  0.3570  1.9531
16561TIP3    H271099   1.260   3.650  11.369 -0.6302  0.5887 -1.4368
16562TIP3   OH271100   2.822   5.813   5.242 -0.3377  0.5673 -0.2631
16562TIP3    H171101   2.880   5.739   5.227 -0.8257  0.1290  0.0132
16562TIP3    H271102   2.876   5.876   5.290 -0.9468 -1.0663  2.7497
16563TIP3   OH271103   0.324   5.092  16.433  0.0768 -0.6254 -0.1650
16563TIP3    H171104   0.375   5.039  16.371 -0.2128 -0.5750 -0.4495
16563TIP3    H271105   0.240   5.045  16.441  0.2037 -0.7655  0.3794
16564TIP3   OH271106   4.650   6.110   1.588 -0.9138  0.0126  0.3679
16564TIP3    H171107   4.688   6.173   1.651  0.0613 -0.7218  0.5321
16564TIP3    H271108   4.714   6.107   1.517 -1.2228 -0.3912  0.1115
16565TIP3   OH271109   2.051   2.774   3.728  0.4990  0.2767  0.0843
16565TIP3    H171110   2.034   2.716   3.653  2.3208 -0.4257  0.1602
16565TIP3    H271111   1.965   2.785   3.770 -0.0846 -1.5731 -0.5068
16566TIP3   OH271112   5.807   0.633   0.577  0.7549 -0.0100 -0.4375
16566TIP3    H171113   5.834   0.545   0.550 -0.8188 -0.2345 -1.3734
16566TIP3    H271114   5.757   0.667   0.503  0.3704  1.2398  0.3613
16567TIP3   OH271115   3.091   6.729   4.641 -0.4980 -0.7770 -0.4481
16567TIP3    H171116   3.003   6.768   4.645 -0.6649 -1.2392  1.4970
16567TIP3    H271117   3.089   6.673   4.564 -1.2759  0.6309 -1.5050
16568TIP3   OH271118   5.254   5.406   0.811 -0.0183 -0.6616 -0.0491
16568TIP3    H171119   5.267   5.330   0.868 -2.6915 -2.0816 -1.1225
16568TIP3    H271120   5.279   5.375   0.724  0.8022  0.3965 -0.2133
16569TIP3   OH271121   6.747   3.405  13.812  0.1758 -0.3934 -0.1434
16569TIP3    H171122   6.819   3.356  13.772  0.6680  0.1492  0.0490
16569TIP3    H271123   6.747   3.376  13.904  0.8696  0.3973  0.1212
16570TIP3   OH271124   0.768   1.005  14.692 -0.1694 -0.0644 -0.3646
16570TIP3    H171125   0.811   0.926  14.727  1.2759  0.6366 -0.4978
16570TIP3    H271126   0.690   0.971  14.647 -0.9979 -1.1759  1.7390
16571TIP3   OH271127   4.604   6.462   0.051  0.1038 -0.2942 -0.3830
16571TIP3    H171128   4.591   6.554   0.074 -0.1759  0.3624 -2.8929
16571TIP3    H271129   4.693   6.458   0.016 -0.3962 -0.6420 -1.6669
16572TIP3   OH271130   5.450   6.282   4.631 -0.3832  0.5568 -0.3549
16572TIP3    H171131   5.357   6.276   4.654 -0.3404 -0.8881 -0.4649
16572TIP3    H271132   5.477   6.191   4.616  1.2406  0.8715  0.4394
16573TIP3   OH271133   1.894   1.006   0.520 -0.0790 -0.6213  0.0331
16573TIP3    H171134   1.971   1.009   0.578  0.1060 -0.2779 -0.2269
16573TIP3    H271135   1.819   1.005   0.580  0.0780  0.7988  0.2792
16574TIP3   OH271136   6.074   3.684   5.339 -0.6662 -0.1645  0.6915
16574TIP3    H171137   6.097   3.730   5.419  1.7259  1.2529 -0.6931
16574TIP3    H271138   6.150   3.627   5.321 -0.9812 -0.1689 -0.7463
16575TIP3   OH271139   5.021   3.611  16.033  0.7388  0.2160 -0.7643
16575TIP3    H171140   5.052   3.587  15.946 -0.3623 -1.0281 -0.8534
16575TIP3    H271141   5.078   3.683  16.060  0.2777  1.5117 -3.0181
16576TIP3   OH271142   5.918   1.562   0.008  0.6152 -0.3662 -0.2475
16576TIP3    H171143   5.964   1.638  -0.027 -0.3667  0.7132  0.7056
16576TIP3    H271144   5.872   1.595   0.086 -1.1904 -1.5289 -0.7498
16577TIP3   OH271145   1.713   6.608  16.668  0.5402 -0.0446 -0.4217
16577TIP3    H171146   1.739   6.517  16.653 -1.0332 -0.4174 -1.1674
16577TIP3    H271147   1.677   6.608  16.757 -0.0896 -0.3238 -0.6699
16578TIP3   OH271148   2.316   5.949  15.796  0.1958  0.4007  0.2268
16578TIP3    H171149   2.304   5.999  15.877 -0.5214  0.2775  0.1981
16578TIP3    H271150   2.228   5.926  15.768  0.5016 -0.6645  0.0963
16579TIP3   OH271151   2.506   0.678   5.918  0.4928 -0.2224  0.0630
16579TIP3    H171152   2.420   0.636   5.921  0.7158 -0.6576  0.9231
16579TIP3    H271153   2.491   0.764   5.958  0.3401 -0.0724 -0.3160
16580TIP3   OH271154   6.296   1.392  11.249  0.4169 -0.1069  0.2717
16580TIP3    H171155   6.330   1.321  11.303 -0.2234 -1.5474 -1.1517
16580TIP3    H271156   6.371   1.419  11.195  0.1889 -1.0070 -0.5126
16581TIP3   OH271157   1.250   1.692  15.165  0.2977 -0.2420 -0.6256
16581TIP3    H171158   1.305   1.669  15.090  2.9072 -1.6566  1.5413
16581TIP3    H271159   1.170   1.640  15.153 -0.0536  0.7672 -3.1490
16582TIP3   OH271160   3.432   5.876   2.054 -0.0777  0.1578 -0.0445
16582TIP3    H171161   3.510   5.839   2.014  0.7807  1.3612  0.4497
16582TIP3    H271162   3.361   5.818   2.026  0.9075 -0.6854 -0.8979
16583TIP3   OH271163   0.847   5.961   6.072 -0.0999 -0.0053 -0.2126
16583TIP3    H171164   0.897   6.042   6.072 -0.6073  0.3097  0.3921
16583TIP3    H271165   0.857   5.927   5.983  1.2950 -0.0216 -0.0612
16584TIP3   OH271166   1.351   3.280  12.407 -0.0450  0.1534  0.6333
16584TIP3    H171167   1.381   3.228  12.332 -0.1401  0.1226  0.6172
16584TIP3    H271168   1.368   3.224  12.483  0.4743  0.3652  0.6785
16585TIP3   OH271169   6.454   0.073   2.454 -0.7655  0.3264  0.3198
16585TIP3    H171170   6.493   0.080   2.541 -0.6685  0.8955  0.2402
16585TIP3    H271171   6.361   0.092   2.468 -2.0629 -5.1626  1.2067
16586TIP3   OH271172   2.191   2.567  11.859  0.2371  0.7392  0.3664
16586TIP3    H171173   2.220   2.638  11.801 -0.8066  0.8027 -0.1218
16586TIP3    H271174   2.128   2.609  11.918 -1.7374 -0.0609 -1.0550
16587TIP3   OH271175   1.856   6.075   0.219 -0.1407 -0.2522 -0.0484
16587TIP3    H171176   1.818   5.988   0.231  0.1286 -0.3119  0.4304
16587TIP3    H271177   1.781   6.134   0.214 -0.3283 -0.5309 -0.5676
16588TIP3   OH271178   4.706   6.349   3.396  0.2142 -0.0357  0.3146
16588TIP3    H171179   4.791   6.392   3.400  1.0171 -0.4705 -5.0426
16588TIP3    H271180   4.711   6.280   3.461  3.8372  0.1868  0.4683
16589TIP3   OH271181   5.000   0.188  13.368 -0.1628 -0.1729  0.3134
16589TIP3    H171182   5.046   0.233  13.439  0.0740  0.1097 -0.0168
16589TIP3    H271183   5.039   0.101  13.365 -1.1557 -0.6806  1.4656
16590TIP3   OH271184   0.232   0.032   4.693 -0.1752 -0.2360  0.4464
16590TIP3    H171185   0.157   0.046   4.635 -0.5678  2.0001  1.4025
16590TIP3    H271186   0.199  -0.026   4.762 -0.3244 -1.1138 -0.3377
16591TIP3   OH271187   3.291   3.425   5.126  0.5064 -0.7050 -0.4817
16591TIP3    H171188   3.300   3.504   5.178 -0.7141 -1.5738  1.1465
16591TIP3    H271189   3.351   3.437   5.052  3.2791  0.0419  1.7402
16592TIP3   OH271190   1.875   1.048  11.833 -0.6988 -0.4964 -0.7055
16592TIP3    H171191   1.953   1.048  11.778  1.0838  0.3313  1.6560
16592TIP3    H271192   1.858   0.956  11.850  0.7418 -0.6607  0.0005
16593TIP3   OH271193   1.659   6.290  16.695 -0.3418  0.0685 -0.0887
16593TIP3    H171194   1.639   6.201  16.664  0.5110 -0.4545  0.8139
16593TIP3    H271195   1.578   6.320  16.735 -0.4868 -0.5156  0.0752
16594TIP3   OH271196   3.559   1.871  11.676 -0.3544 -0.4263 -0.4016
16594TIP3    H171197   3.585   1.963  11.667  0.3119 -0.7486 -2.2875
16594TIP3    H271198   3.634   1.822  11.643 -1.0267 -1.6239 -0.1944
16595TIP3   OH271199   6.244   4.908   1.348  0.2768  0.1538 -0.2677
16595TIP3    H171200   6.280   4.855   1.418  1.3539  0.0657 -0.8652
16595TIP3    H271201   6.260   4.999   1.376  1.2541  0.1126 -0.6603
16596TIP3   OH271202   5.954   0.200   2.619 -0.2574 -0.2786  0.3345
16596TIP3    H171203   5.893   0.136   2.583  1.5789 -1.7012 -0.4703
16596TIP3    H271204   5.982   0.163   2.703  0.5276 -0.3730  0.0463
16597TIP3   OH271205   3.179   2.472  10.957 -0.1637  0.4684  0.1404
16597TIP3    H171206   3.146   2.498  10.872 -1.1190 -1.1682 -0.0315
16597TIP3    H271207   3.268   2.440  10.940 -0.7833 -1.0152 -0.4971
16598TIP3   OH271208   6.491   3.716   5.998  0.5663 -0.6504 -0.3220
16598TIP3    H171209   6.457   3.647   5.940 -1.3198 -1.5545  1.7121
16598TIP3    H271210   6.429   3.788   5.989  3.5850  1.8793 -3.9913
16599TIP3   OH271211   1.800   1.453   2.215  0.1022  0.1964  0.1512
16599TIP3    H171212   1.818   1.387   2.281  0.6050  1.2993  1.1467
16599TIP3    H271213   1.880   1.505   2.211 -0.3664  0.8812 -0.4497
16600TIP3   OH271214   6.155   6.710   3.217  0.1303 -0.3281 -0.2191
16600TIP3    H171215   6.193   6.794   3.192 -0.0620 -0.7146 -1.9195
16600TIP3    H271216   6.144   6.663   3.135  0.5186 -2.1582  0.7213
16601TIP3   OH271217   1.442   5.478   1.304 -0.1511 -0.1409  0.3533
16601TIP3    H171218   1.490   5.414   1.252 -2.1607 -1.2242 -0.2926
16601TIP3    H271219   1.359   5.489   1.258 -1.2209  0.3721  2.2756
16602TIP3   OH271220   6.213   5.570   4.520 -0.3600 -0.0033 -0.2519
16602TIP3    H171221   6.309   5.576   4.521 -0.2804 -1.1018  1.0306
16602TIP3    H271222   6.185   5.636   4.583 -0.4083 -0.2008 -0.0670
16603TIP3   OH271223   5.768   1.715   0.730  0.0855 -0.8197 -0.6975
16603TIP3    H171224   5.817   1.737   0.650  0.2480  1.6772  0.0191
16603TIP3    H271225   5.765   1.619   0.730  3.1987 -1.0455 -1.8583
16604TIP3   OH271226   5.756   4.109  16.180  0.0899  0.4002  0.2902
16604TIP3    H171227   5.754   4.143  16.091  0.8244 -2.2226 -0.7939
16604TIP3    H271228   5.664   4.100  16.205 -0.1393  0.0651 -0.6462
16605TIP3   OH271229   6.698   2.979  11.497 -0.5821 -0.1767  0.5877
16605TIP3    H171230   6.771   2.956  11.440 -0.2873  0.8454  0.5253
16605TIP3    H271231   6.658   2.896  11.520 -0.8428 -0.6199 -1.2868
16606TIP3   OH271232   3.497   1.499   1.987 -0.0484  0.5666 -0.0140
16606TIP3    H171233   3.487   1.438   1.914 -3.9829  1.5520 -0.5187
16606TIP3    H271234   3.480   1.447   2.065  1.5716  0.0592  0.0297
16607TIP3   OH271235   1.649   6.305  12.731 -0.4875  0.3307  0.3670
16607TIP3    H171236   1.712   6.234  12.729 -0.1717  0.6228 -0.2533
16607TIP3    H271237   1.577   6.272  12.786 -1.2088 -1.1872 -1.3847
16608TIP3   OH271238   4.526   6.004   0.686  0.1863  0.0158  0.4473
16608TIP3    H171239   4.532   6.079   0.745 -0.7718  0.9768 -0.6256
16608TIP3    H271240   4.483   5.936   0.737 -0.8100  0.8982  0.7965
16609TIP3   OH271241   5.488   1.488   5.761 -0.1090 -0.3493 -0.5966
16609TIP3    H171242   5.508   1.488   5.855 -1.6313  0.1297 -0.2361
16609TIP3    H271243   5.563   1.446   5.720 -0.2638 -2.3891  1.0358
16610TIP3   OH271244   5.230   3.956   0.964 -0.1569  0.3551  0.1822
16610TIP3    H171245   5.213   4.027   0.901  1.1002  0.6999  0.2040
16610TIP3    H271246   5.281   3.997   1.033 -1.0317 -0.1585  1.1677
16611TIP3   OH271247   5.978   2.979   4.240 -0.2936  0.0292  0.1872
16611TIP3    H171248   6.005   3.053   4.294  1.8383 -0.3848 -0.2447
16611TIP3    H271249   5.946   3.019   4.159 -0.2032  0.5001  0.3828
16612TIP3   OH271250   5.101   0.970   2.657 -0.8226 -0.1566  0.3308
16612TIP3    H171251   5.063   1.055   2.676 -2.2202 -0.3865 -1.2587
16612TIP3    H271252   5.029   0.908   2.666  0.1362 -1.1805  1.3230
16613TIP3   OH271253   3.807   5.959  10.970  0.0465  0.1062  0.4951
16613TIP3    H171254   3.856   5.899  10.915 -1.8194 -0.8028 -0.2268
16613TIP3    H271255   3.757   5.903  11.029  0.7438  1.0340  2.0335
16614TIP3   OH271256   4.952   3.415  11.461 -0.0474  0.1978  0.1951
16614TIP3    H171257   4.936   3.501  11.423 -0.3260  0.4000  0.7675
16614TIP3    H271258   4.968   3.431  11.553 -1.1164 -0.4526  0.5141
16615TIP3   OH271259   0.500   6.570   4.564 -0.8190  0.1661 -0.2890
16615TIP3    H171260   0.553   6.613   4.497 -2.6591  0.2798 -1.7654
16615TIP3    H271261   0.413   6.564   4.525 -1.4336 -1.8262  1.2173
16616TIP3   OH271262   0.412   4.621   3.806  0.1438  0.2698 -0.1967
16616TIP3    H171263   0.369   4.706   3.817  1.5825  0.8430  1.5676
16616TIP3    H271264   0.340   4.561   3.784 -1.2589  1.5238  0.7048
16617TIP3   OH271265   1.141   5.340  16.149 -0.0535  0.2207 -0.1330
16617TIP3    H171266   1.206   5.409  16.132  1.2820 -1.1218 -0.7467
16617TIP3    H271267   1.136   5.334  16.244  1.9303 -0.6648 -0.0298
16618TIP3   OH271268   0.165   3.204  10.700  0.0623 -0.1096  0.3300
16618TIP3    H171269   0.233   3.161  10.650  0.2831  0.7198 -0.0977
16618TIP3    H271270   0.211   3.249  10.771  0.1132  1.3252 -0.5614
16619TIP3   OH271271   4.083   3.026  15.960 -0.3073  0.2556 -0.0135
16619TIP3    H171272   4.114   2.956  15.902  1.5398  0.9129  0.0975
16619TIP3    H271273   4.157   3.086  15.965 -1.3620  1.5133  1.0021
16620TIP3   OH271274   5.359   4.970  14.465 -0.1189 -0.2372 -0.2857
16620TIP3    H171275   5.295   4.990  14.396  1.6626  1.0691 -1.6424
16620TIP3    H271276   5.385   5.056  14.499  1.7413 -0.6524 -0.5776
16621TIP3   OH271277   1.764   2.809   2.225 -0.8507  0.7008  0.6076
16621TIP3    H171278   1.825   2.802   2.298 -0.6998 -1.1211  0.3714
16621TIP3    H271279   1.787   2.890   2.181 -0.5493  1.5324  2.2260
16622TIP3   OH271280   4.130   2.453   2.394  0.3078 -0.0276 -0.0160
16622TIP3    H171281   4.123   2.375   2.448 -0.3119  0.4538  0.6026
16622TIP3    H271282   4.171   2.422   2.313 -1.5208 -1.3488 -0.5001
16623TIP3   OH271283   0.612   4.439  14.316  0.3822  0.2410  0.2179
16623TIP3    H171284   0.566   4.514  14.279  2.0136  0.3164 -1.8584
16623TIP3    H271285   0.705   4.462  14.308  0.8729 -1.0529  1.6926
16624TIP3   OH271286   4.479   2.427  11.346 -0.0836  1.0349 -0.7680
16624TIP3    H171287   4.488   2.332  11.342  0.6729  1.0708 -0.0913
16624TIP3    H271288   4.549   2.455  11.404  0.0830  2.0701 -1.4446
16625TIP3   OH271289   0.787   2.655  11.020  0.1948 -0.7568  0.5425
16625TIP3    H171290   0.849   2.596  10.978 -0.4278 -0.9130 -0.1769
16625TIP3    H271291   0.777   2.620  11.108 -1.1340 -2.5341 -0.2452
16626TIP3   OH271292   1.360   3.170   3.099 -0.2616 -0.2248 -0.3033
16626TIP3    H171293   1.414   3.092   3.090  1.1253  0.7107 -0.4383
16626TIP3    H271294   1.285   3.142   3.150 -0.2735 -1.8584 -1.1738
16627TIP3   OH271295   4.220   1.054  13.863 -0.5935  0.4471 -0.2377
16627TIP3    H171296   4.212   1.077  13.956 -0.1080  2.2545 -0.5918
16627TIP3    H271297   4.313   1.041  13.850 -0.8140 -1.5410 -0.1477
16628TIP3   OH271298   5.388   6.562  11.707 -0.1877 -0.3187  0.5607
16628TIP3    H171299   5.373   6.467  11.708 -0.0544 -0.3406  0.3202
16628TIP3    H271300   5.329   6.595  11.639 -1.7414  0.0199  1.9920
16629TIP3   OH271301   3.448   4.329  16.665 -0.2166  0.1570 -0.1501
16629TIP3    H171302   3.531   4.377  16.670  0.3002 -0.7193 -0.0301
16629TIP3    H271303   3.435   4.312  16.572  0.5587 -1.0554 -0.0625
16630TIP3   OH271304   0.698   0.749  14.380 -0.4372  0.0431  0.8125
16630TIP3    H171305   0.651   0.804  14.443  1.6013  1.5811  1.1067
16630TIP3    H271306   0.759   0.698  14.433  1.9572  2.0217  0.1312
16631TIP3   OH271307   6.594   2.488   2.710  0.0825  0.3466 -0.5156
16631TIP3    H171308   6.632   2.575   2.715  0.0612  0.2903  1.1015
16631TIP3    H271309   6.503   2.502   2.685 -0.0204  0.8249  0.1179
16632TIP3   OH271310   4.361   5.228   3.795 -0.5432  0.8220 -0.5139
16632TIP3    H171311   4.394   5.313   3.764  0.6474  0.5705 -0.0141
16632TIP3    H271312   4.293   5.204   3.733 -0.2326  1.6987 -1.2090
16633TIP3   OH271313   1.264   6.248   4.453  0.5157  0.3109  0.2365
16633TIP3    H171314   1.224   6.164   4.476  0.1790  0.3937 -0.0453
16633TIP3    H271315   1.269   6.247   4.357 -1.0877  1.3361  0.1186
16634TIP3   OH271316   2.188   2.531   4.511 -0.2783 -0.3362 -0.0377
16634TIP3    H171317   2.098   2.548   4.538  0.3597  0.6377  1.6589
16634TIP3    H271318   2.208   2.600   4.447 -0.1238  0.7393  1.1231
16635TIP3   OH271319   4.507   0.412   2.515  0.3398  0.1361 -0.2593
16635TIP3    H171320   4.596   0.403   2.550  0.4770 -0.4341 -0.7371
16635TIP3    H271321   4.518   0.450   2.429  0.1051  0.2367 -0.2459
16636TIP3   OH271322   2.872   5.736  13.864 -0.5003 -0.0429  0.7502
16636TIP3    H171323   2.868   5.770  13.774  0.3926  1.0149  1.0821
16636TIP3    H271324   2.823   5.655  13.861  0.2173 -0.4672 -0.9040
16637TIP3   OH271325   6.538   1.935  12.591  0.7478  0.2970  0.1331
16637TIP3    H171326   6.565   1.994  12.661  1.4189  0.2080 -0.0452
16637TIP3    H271327   6.614   1.880  12.574  0.4774  0.0761 -0.4178
16638TIP3   OH271328   1.298   5.487  16.329 -1.1564  0.1750 -0.1739
16638TIP3    H171329   1.232   5.469  16.396 -0.9645  0.6152  0.1368
16638TIP3    H271330   1.298   5.582  16.321 -1.5679  0.0955 -1.1955
16639TIP3   OH271331   6.176   5.710  13.430 -0.2748 -0.4431  0.1414
16639TIP3    H171332   6.231   5.729  13.354  0.2929 -0.6942  0.4861
16639TIP3    H271333   6.226   5.743  13.504 -0.3219 -1.2187  0.5206
16640TIP3   OH271334   2.799   5.438   5.100  0.7276 -0.5399 -0.0803
16640TIP3    H171335   2.851   5.477   5.171  0.4242 -0.5950  0.1728
16640TIP3    H271336   2.709   5.448   5.129  0.6176 -0.8047 -0.3390
16641TIP3   OH271337   0.959   6.689  15.439 -0.5615 -0.6788 -0.2932
16641TIP3    H171338   0.908   6.620  15.482 -0.7024  0.0986  0.8053
16641TIP3    H271339   1.025   6.641  15.388 -0.5256 -1.6270  0.5999
16642TIP3   OH271340   2.383   4.544  15.495 -0.3302  0.2507 -0.3280
16642TIP3    H171341   2.294   4.553  15.530 -0.4017  0.5311 -0.5777
16642TIP3    H271342   2.431   4.495  15.562 -0.5856  0.3862 -0.0480
16643TIP3   OH271343   2.712   1.468   4.578  0.4713 -0.2743  0.0007
16643TIP3    H171344   2.624   1.477   4.613  0.6068 -0.5721  0.4205
16643TIP3    H271345   2.756   1.550   4.601  0.0752  0.2150 -0.9034
16644TIP3   OH271346   1.084   2.531  16.487  0.0069 -0.2112 -0.3785
16644TIP3    H171347   1.127   2.616  16.486  0.2887 -0.3316  0.5004
16644TIP3    H271348   1.153   2.469  16.463  0.8786 -0.6040  2.6465
16645TIP3   OH271349   1.224   3.557   1.329  0.1110 -0.3278  0.1143
16645TIP3    H171350   1.269   3.589   1.251  3.0325 -2.1343  0.9056
16645TIP3    H271351   1.206   3.636   1.380  1.9198  0.5728 -0.5469
16646TIP3   OH271352   6.182   2.545  11.810  0.1086 -0.2545  0.3302
16646TIP3    H171353   6.275   2.556  11.830 -0.0551 -0.8590  1.5445
16646TIP3    H271354   6.180   2.525  11.717  1.1019  0.8283  0.0446
16647TIP3   OH271355   6.663   3.008   5.520 -0.3633 -0.5056  0.2260
16647TIP3    H171356   6.673   2.979   5.610  0.6210 -1.8601 -0.2934
16647TIP3    H271357   6.598   3.078   5.524 -0.3785 -0.5931  1.9629
16648TIP3   OH271358   4.539   0.526  15.054  0.0465 -0.3180  0.4598
16648TIP3    H171359   4.539   0.578  15.135 -0.9436 -1.0566  0.9561
16648TIP3    H271360   4.464   0.560  15.005 -0.2948 -0.9096  0.5594
16649TIP3   OH271361   1.860   5.743   3.084 -0.2800  0.9232 -0.0589
16649TIP3    H171362   1.940   5.775   3.042  1.1902  0.4277  2.1382
16649TIP3    H271363   1.854   5.793   3.165  0.6057 -2.2660  2.1911
16650TIP3   OH271364   2.036   3.066  14.876  0.2260 -0.5005  1.1546
16650TIP3    H171365   2.025   3.056  14.971  0.1907 -0.0378  1.1997
16650TIP3    H271366   1.954   3.106  14.847  0.9422  1.0460  1.1902
16651TIP3   OH271367   2.941   3.080   3.176  0.6762 -0.2718 -0.3411
16651TIP3    H171368   3.006   3.078   3.106  0.5272 -1.2160 -0.4605
16651TIP3    H271369   2.983   3.130   3.246  1.5723 -0.9392 -0.3857
16652TIP3   OH271370   3.987   5.520   1.973 -0.3919  0.0002 -0.1053
16652TIP3    H171371   3.999   5.554   1.884  0.9718 -0.6904 -0.2101
16652TIP3    H271372   3.992   5.425   1.963 -0.0664 -0.0765  0.7307
16653TIP3   OH271373   5.859   2.359  12.091 -0.5315  0.2676 -0.4162
16653TIP3    H171374   5.840   2.338  11.999 -1.2504  2.2346 -0.7616
16653TIP3    H271375   5.780   2.334  12.138  0.4921 -2.4911  0.0480
16654TIP3   OH271376   6.656   5.403   3.989  0.2547 -0.3045 -0.3622
16654TIP3    H171377   6.560   5.397   3.986  0.2239  0.1298 -0.2728
16654TIP3    H271378   6.674   5.490   4.025  0.6806 -0.6383  0.2603
16655TIP3   OH271379   0.330   1.738   2.251  0.1621  0.3732 -0.3468
16655TIP3    H171380   0.320   1.783   2.336 -1.2345 -0.2432 -0.1594
16655TIP3    H271381   0.296   1.801   2.187 -1.2472 -0.1392 -0.1449
16656TIP3   OH271382   2.275   5.874  13.647 -0.2619  0.3622 -0.7750
16656TIP3    H171383   2.338   5.833  13.706  0.5746 -0.2726 -2.0817
16656TIP3    H271384   2.191   5.862  13.691  0.5299  1.7743  1.3143
16657TIP3   OH271385   6.463   0.176   0.431  0.2572  0.0428 -0.2141
16657TIP3    H171386   6.418   0.164   0.515 -1.1073 -1.3696 -1.0863
16657TIP3    H271387   6.399   0.222   0.377  0.6303 -0.1828 -0.8561
16658TIP3   OH271388   2.218   0.853  12.216 -0.0570  0.4774  0.1380
16658TIP3    H171389   2.186   0.832  12.128  0.7190 -0.8025  0.1412
16658TIP3    H271390   2.267   0.775  12.243  0.3264  1.1398  1.4153
16659TIP3   OH271391   2.151   1.244   1.175 -0.0965  0.2495 -0.2372
16659TIP3    H171392   2.182   1.288   1.095 -1.1108  0.2590 -0.6329
16659TIP3    H271393   2.208   1.168   1.183 -1.7840 -1.4052 -2.6370
16660TIP3   OH271394   3.326   4.816   0.316 -0.3924 -0.2582 -0.1974
16660TIP3    H171395   3.361   4.799   0.228  1.6287  0.2323  0.4591
16660TIP3    H271396   3.335   4.910   0.328  1.0109 -0.5201  1.1605
16661TIP3   OH271397   5.388   3.918   5.186 -0.1938 -0.0786  0.0890
16661TIP3    H171398   5.424   3.983   5.126 -1.0449 -0.5485 -0.9698
16661TIP3    H271399   5.406   3.953   5.273  0.7605  0.7897 -0.4428
16662TIP3   OH271400   2.445   1.151  16.499 -0.0839 -0.0981 -0.1529
16662TIP3    H171401   2.475   1.178  16.586  1.0852 -1.8083  0.0175
16662TIP3    H271402   2.489   1.067  16.483 -0.4793  0.0426 -2.2915
16663TIP3   OH271403   3.030   2.889  14.929  0.4176 -0.0483 -0.1458
16663TIP3    H171404   3.036   2.802  14.968 -0.5043 -0.1856 -0.2951
16663TIP3    H271405   3.008   2.946  15.003 -1.8181 -0.3797 -0.4848
16664TIP3   OH271406   0.236   6.053   5.638  0.3292 -0.1501  0.4780
16664TIP3    H171407   0.204   5.982   5.693 -0.2689 -1.5869 -1.5807
16664TIP3    H271408   0.158   6.101   5.611  0.4666 -0.2076 -0.0513
16665TIP3   OH271409   1.338   2.483   4.430  0.2824  0.2271 -0.3092
16665TIP3    H171410   1.356   2.550   4.364  1.7575  1.2882  1.1066
16665TIP3    H271411   1.350   2.400   4.384 -1.6057  0.8636 -2.1080
16666TIP3   OH271412   1.649   2.479   6.225  0.3608 -0.2450  0.3246
16666TIP3    H171413   1.638   2.497   6.318  0.5640  0.9846  0.1239
16666TIP3    H271414   1.573   2.519   6.183 -0.4373 -1.9386  0.0593
16667TIP3   OH271415   5.087   1.746  15.723  0.6749 -0.4330  0.4260
16667TIP3    H171416   5.130   1.732  15.639  1.3183 -0.4217  0.7480
16667TIP3    H271417   5.048   1.662  15.745 -2.3185  0.3169 -1.4046
16668TIP3   OH271418   4.125   5.676   1.757  0.3942 -0.1335  0.4277
16668TIP3    H171419   4.189   5.719   1.814 -0.9012  2.6602 -0.0176
16668TIP3    H271420   4.158   5.692   1.668 -0.6122  0.8997  0.2159
16669TIP3   OH271421   0.223   6.699  15.705 -0.2706 -0.2619  0.0393
16669TIP3    H171422   0.170   6.719  15.782 -0.2136 -0.0218  0.0171
16669TIP3    H271423   0.245   6.785  15.668 -1.4458 -0.3820 -1.0239
16670TIP3   OH271424   0.649   4.496   0.785  0.1758 -0.0632  0.4315
16670TIP3    H171425   0.655   4.515   0.879  0.1638  0.2233  0.3737
16670TIP3    H271426   0.559   4.465   0.773  0.7157 -1.9897  0.8573
16671TIP3   OH271427   2.419   5.469  14.459 -0.0241 -0.5034  0.2409
16671TIP3    H171428   2.401   5.419  14.539  1.0820 -0.1289  0.7477
16671TIP3    H271429   2.401   5.560  14.483 -2.3448 -0.6258 -0.7745
16672TIP3   OH271430   5.656   3.049  13.382  0.3744 -0.2686 -0.3340
16672TIP3    H171431   5.734   3.100  13.405 -1.1819  3.3494 -2.1375
16672TIP3    H271432   5.604   3.047  13.462  1.6723 -1.5867  0.5227
16673TIP3   OH271433   0.724   0.703   5.673  0.2427  0.1633  0.1658
16673TIP3    H171434   0.716   0.676   5.765  4.1694  0.5337  0.7898
16673TIP3    H271435   0.723   0.799   5.677  1.7658  0.2009  0.0459
16674TIP3   OH271436   1.522   4.674   4.014 -0.3562 -0.3500  0.1387
16674TIP3    H171437   1.491   4.762   3.993  2.4439  0.8992  0.8540
16674TIP3    H271438   1.538   4.633   3.930 -0.3661  0.3386 -0.2056
16675TIP3   OH271439   5.077   6.291  16.748  0.0814  0.1011  0.4552
16675TIP3    H171440   5.030   6.360  16.701 -0.2080  1.6026  2.7761
16675TIP3    H271441   5.167   6.325  16.756  0.2990 -0.4481  0.3919
16676TIP3   OH271442   5.416   6.393  15.908  0.2653 -0.4511  0.4709
16676TIP3    H171443   5.384   6.480  15.931 -0.4653 -0.8716  1.0489
16676TIP3    H271444   5.496   6.382  15.960  1.7996  0.8388 -1.4201
16677TIP3   OH271445   1.468   2.213   0.694  0.4040  0.0669 -0.7485
16677TIP3    H171446   1.391   2.268   0.678  0.4761  0.1783 -0.7151
16677TIP3    H271447   1.537   2.252   0.639  0.7128  0.5848 -0.0157
16678TIP3   OH271448   1.360   2.120  13.627  0.6876 -0.7016 -0.0519
16678TIP3    H171449   1.396   2.096  13.542 -0.3164  0.0095 -0.6963
16678TIP3    H271450   1.334   2.037  13.667  0.2104 -0.9681 -0.8847
16679TIP3   OH271451   4.758   2.641   1.675  0.6786 -0.0874  0.4892
16679TIP3    H171452   4.760   2.614   1.767  0.3555 -0.7446  0.3107
16679TIP3    H271453   4.850   2.656   1.652  0.9659 -1.7381  0.4109
16680TIP3   OH271454   1.718   3.167  14.547  0.4072 -0.0702  0.3624
16680TIP3    H171455   1.714   3.084  14.499 -0.4038  0.0412  0.2148
16680TIP3    H271456   1.627   3.195  14.552  0.8396  2.1919 -2.0248
16681TIP3   OH271457   0.090   2.940   3.067  0.7561  0.0760  0.0984
16681TIP3    H171458   0.004   2.904   3.089  1.0692 -2.0513 -1.7002
16681TIP3    H271459   0.150   2.898   3.128  0.6153  0.9941  0.8764
16682TIP3   OH271460   1.487   5.667  16.541  0.1547 -0.1477 -0.1149
16682TIP3    H171461   1.570   5.703  16.574 -0.1277 -0.3120  0.7935
16682TIP3    H271462   1.514   5.595  16.484  0.6793  0.7112 -0.9718
16683TIP3   OH271463   4.828   3.767  13.709 -1.1688 -0.2563  0.2037
16683TIP3    H171464   4.840   3.714  13.630  0.3224 -0.0037  0.2402
16683TIP3    H271465   4.863   3.713  13.780  2.3167  1.4744 -0.0092
16684TIP3   OH271466   5.515   1.875   5.603 -0.9955 -0.3576  0.5705
16684TIP3    H171467   5.491   1.882   5.510  2.6230 -0.5702 -0.5550
16684TIP3    H271468   5.529   1.966   5.631 -0.1017 -0.3854  0.2493
16685TIP3   OH271469   5.927   0.337   3.874 -0.2092 -0.4137  0.1896
16685TIP3    H171470   5.977   0.369   3.799 -0.5296 -2.3033 -0.8957
16685TIP3    H271471   5.994   0.307   3.936  0.0310 -0.5160 -0.1171
16686TIP3   OH271472   4.232   6.519  14.042 -0.1379 -0.0684  0.4375
16686TIP3    H171473   4.299   6.546  14.105  0.7856  0.8644 -0.8710
16686TIP3    H271474   4.153   6.507  14.093  0.1731  2.2257  1.5579
16687TIP3   OH271475   4.678   3.362   6.010  0.1325  0.6843 -0.5068
16687TIP3    H171476   4.621   3.322   6.076 -0.0630 -1.1039 -1.6953
16687TIP3    H271477   4.759   3.383   6.057 -0.4560  0.6166  0.5661
16688TIP3   OH271478   6.638   6.008   0.634  0.1891  0.1792  0.0039
16688TIP3    H171479   6.690   5.948   0.689  0.7805  0.3457 -0.3628
16688TIP3    H271480   6.606   6.074   0.695  1.0841  0.5267  0.1187
16689TIP3   OH271481   1.261   0.536   5.195  0.0959 -0.0516  0.0255
16689TIP3    H171482   1.294   0.446   5.199  0.8695  0.0642 -2.0822
16689TIP3    H271483   1.315   0.585   5.256 -1.1618 -1.1927  2.1651
16690TIP3   OH271484   5.590   4.506   1.754 -0.1870 -0.2555  0.5979
16690TIP3    H171485   5.659   4.567   1.779  0.6719 -1.8291  2.3065
16690TIP3    H271486   5.629   4.454   1.683  0.6722 -1.5052  1.9242
16691TIP3   OH271487   5.435   6.076   3.813  0.7621  0.2294 -0.5512
16691TIP3    H171488   5.378   6.023   3.757 -0.0065 -0.3128  0.7035
16691TIP3    H271489   5.475   6.013   3.873  0.6149  0.9285  0.3072
16692TIP3   OH271490   4.385   5.284   2.809  0.4915  0.0409 -0.3429
16692TIP3    H171491   4.313   5.347   2.815  1.2030  0.7477  1.6246
16692TIP3    H271492   4.351   5.205   2.851  0.1515 -0.3832 -1.3765
16693TIP3   OH271493   5.402   2.050  11.275  0.0198  0.1638 -0.2645
16693TIP3    H171494   5.370   2.117  11.214  0.5002 -0.1445 -0.8640
16693TIP3    H271495   5.494   2.039  11.252  0.3479  0.4242  0.8744
16694TIP3   OH271496   0.206   0.827   5.095  0.2272 -0.3860  0.6506
16694TIP3    H171497   0.201   0.892   5.165 -2.0548 -0.5764  0.7371
16694TIP3    H271498   0.232   0.747   5.139 -1.6555 -0.6174  1.4336
16695TIP3   OH271499   5.906   2.847   0.492  0.2638  0.0125  0.1995
16695TIP3    H171500   6.001   2.854   0.499  0.3593  1.2406 -1.6096
16695TIP3    H271501   5.877   2.819   0.579  2.1418  0.9608  1.1842
16696TIP3   OH271502   3.195   2.993   0.932  0.0268  0.1192  0.2428
16696TIP3    H171503   3.110   2.970   0.969 -0.2304 -0.2675 -0.5757
16696TIP3    H271504   3.253   2.998   1.009 -0.2651 -1.6772  0.6356
16697TIP3   OH271505   0.946   4.693  13.777 -0.1383 -0.0771  0.5292
16697TIP3    H171506   0.969   4.600  13.785 -0.0445 -0.1151 -0.0968
16697TIP3    H271507   0.882   4.695  13.705  1.0278  0.5178 -0.5276
16698TIP3   OH271508   4.089   2.435   4.005  0.4336 -0.2164 -0.2283
16698TIP3    H171509   4.178   2.443   4.040  0.6373  0.4547 -0.8814
16698TIP3    H271510   4.085   2.500   3.934 -1.2340  1.3221  1.1564
16699TIP3   OH271511   0.330   4.851   1.126 -0.7974 -0.2113  0.1101
16699TIP3    H171512   0.386   4.897   1.064  0.3762 -2.4919 -0.6093
16699TIP3    H271513   0.243   4.855   1.086 -0.9123  2.0389  0.4862
16700TIP3   OH271514   2.719   2.970   3.589  0.5688  0.2168 -0.3581
16700TIP3    H171515   2.659   3.039   3.617 -1.9375 -2.1389  0.4735
16700TIP3    H271516   2.725   2.980   3.494  2.6423  3.2612 -0.0581
16701TIP3   OH271517   2.589   2.906   1.228 -0.4961 -0.3844  0.1004
16701TIP3    H171518   2.683   2.904   1.241 -0.5166 -0.0994  0.3063
16701TIP3    H271519   2.556   2.962   1.299 -0.7946 -0.3039 -0.0994
16702TIP3   OH271520   2.115   2.674   1.589 -0.1681 -0.1675  0.0838
16702TIP3    H171521   2.133   2.757   1.545  0.9877 -0.2116  0.4401
16702TIP3    H271522   2.137   2.607   1.525  1.9390 -0.2438  0.7845
16703TIP3   OH271523   0.177   1.441  14.228  0.8297 -0.5130 -0.5214
16703TIP3    H171524   0.168   1.388  14.307 -1.6633  2.4934  1.4535
16703TIP3    H271525   0.250   1.499  14.247 -1.4100  2.0670  1.0080
16704TIP3   OH271526   6.046   5.358   3.435 -0.5780 -0.2534 -0.3172
16704TIP3    H171527   5.997   5.276   3.428  0.3168 -0.7860 -0.4618
16704TIP3    H271528   6.054   5.388   3.345  0.0811 -0.6095 -0.3854
16705TIP3   OH271529   6.039   6.298  13.303 -0.6380  0.3521  0.0885
16705TIP3    H171530   6.050   6.206  13.327  1.0910  0.7665  1.0186
16705TIP3    H271531   6.122   6.323  13.262  0.1492  2.2702  2.5973
16706TIP3   OH271532   6.611   2.498   2.232 -1.0199  0.1346  0.1945
16706TIP3    H171533   6.591   2.589   2.250 -0.8091  0.1146  0.5341
16706TIP3    H271534   6.662   2.468   2.308  0.7004  0.3100 -0.8257
16707TIP3   OH271535   0.034   0.784  11.329  0.0929 -0.3940  0.3071
16707TIP3    H171536   0.111   0.729  11.314  0.4214  0.4744 -1.4818
16707TIP3    H271537   0.061   0.871  11.299 -1.5266 -0.0406 -0.1942
16708TIP3   OH271538   1.890   5.704   0.126 -0.3941  0.1772  0.0268
16708TIP3    H171539   1.960   5.679   0.186  0.6627  1.1085 -0.7727
16708TIP3    H271540   1.930   5.769   0.068 -1.9106  0.6935 -0.4924
16709TIP3   OH271541   3.223   2.348  16.572 -0.5239 -0.3771 -0.3400
16709TIP3    H171542   3.128   2.339  16.583 -0.3826 -0.5978  0.8647
16709TIP3    H271543   3.235   2.437  16.540 -1.1270 -0.3089 -0.3894
16710TIP3   OH271544   1.477   4.016   5.477  0.2644  0.3452 -0.2219
16710TIP3    H171545   1.489   3.939   5.421 -0.1021 -0.4288  0.7496
16710TIP3    H271546   1.394   4.001   5.522  1.2100  0.2663  1.5836
16711TIP3   OH271547   1.135   6.617  12.430 -0.8218 -0.1642  0.6826
16711TIP3    H171548   1.183   6.647  12.507  0.9440  0.0904 -0.4591
16711TIP3    H271549   1.083   6.692  12.403  0.4467  0.5676  0.2134
16712TIP3   OH271550   0.792   0.554  17.180 -0.0667  0.0837 -0.0900
16712TIP3    H171551   0.765   0.572  17.090  1.3301 -0.6456 -0.6800
16712TIP3    H271552   0.773   0.635  17.227  0.6567  1.0507 -1.3953
16713TIP3   OH271553   3.245   4.906  12.325 -0.0414 -0.0199 -0.1886
16713TIP3    H171554   3.246   4.986  12.378 -0.2542  0.0400 -0.2707
16713TIP3    H271555   3.315   4.852  12.361  0.2927  0.3223 -0.3175
16714TIP3   OH271556   4.026   4.087  10.788 -0.5702 -0.1089 -0.3057
16714TIP3    H171557   3.954   4.070  10.728  0.7473 -2.7131 -1.2934
16714TIP3    H271558   4.080   4.152  10.742  0.4048 -2.0375 -2.0854
16715TIP3   OH271559   1.683   3.562   1.997 -0.2957  0.2983 -0.0913
16715TIP3    H171560   1.600   3.514   1.992  0.0408 -0.3426  0.3267
16715TIP3    H271561   1.692   3.604   1.912 -1.4991  1.1368  0.1728
16716TIP3   OH271562   0.280   3.604   2.031 -0.5097  0.4558  0.5232
16716TIP3    H171563   0.237   3.520   2.047  0.1916  0.1756  0.9958
16716TIP3    H271564   0.289   3.609   1.936 -0.4875 -0.0352  0.4978
16717TIP3   OH271565   0.344   4.057   1.754  0.4915 -0.5131 -0.6803
16717TIP3    H171566   0.377   4.061   1.664 -0.7862  1.6556 -1.1396
16717TIP3    H271567   0.262   4.009   1.747  0.7342 -0.9542 -0.5335
16718TIP3   OH271568   4.899   3.673   1.754  0.5260  0.5436 -0.0665
16718TIP3    H171569   4.826   3.723   1.718 -0.2422  0.7212  1.6184
16718TIP3    H271570   4.969   3.737   1.767 -0.1182  1.0294  1.1724
16719TIP3   OH271571   5.262   4.345  16.517 -0.2708  0.3081  0.2058
16719TIP3    H171572   5.297   4.258  16.539  4.2431  1.9086  0.2788
16719TIP3    H271573   5.292   4.362  16.428 -0.8754  1.9334  0.2771
16720TIP3   OH271574   0.314   6.420   5.694 -0.1181  0.3018  0.1484
16720TIP3    H171575   0.352   6.474   5.763  1.3932  0.1207 -0.5147
16720TIP3    H271576   0.225   6.401   5.725  0.8201 -0.5936  2.5069
16721TIP3   OH271577   3.639   4.250  13.130 -0.3316 -0.0484  0.0912
16721TIP3    H171578   3.658   4.172  13.183  0.9670 -0.8102 -1.4025
16721TIP3    H271579   3.692   4.319  13.169  1.5635 -0.8945 -0.8857
16722TIP3   OH271580   2.526   0.724   5.363 -0.2232  0.1324  0.2688
16722TIP3    H171581   2.602   0.674   5.336 -1.7118 -1.8940 -0.4665
16722TIP3    H271582   2.513   0.788   5.294 -0.6988 -1.2866 -1.0207
16723TIP3   OH271583   3.094   2.582   1.017 -0.1653 -0.4461 -1.0543
16723TIP3    H171584   3.137   2.667   1.031 -0.8323 -0.3346  0.5588
16723TIP3    H271585   3.043   2.594   0.937  1.3095 -0.0024 -1.9850
16724TIP3   OH271586   0.872   1.225  11.721  0.1936 -0.3503 -0.4131
16724TIP3    H171587   0.878   1.198  11.629 -0.3589 -0.5939 -0.3813
16724TIP3    H271588   0.828   1.153  11.765  0.3439 -0.1802  0.0221
16725TIP3   OH271589   0.788   2.070   5.627  0.1311 -0.5463  0.9561
16725TIP3    H171590   0.806   2.164   5.620 -0.2716 -0.5676 -0.6388
16725TIP3    H271591   0.786   2.039   5.537 -0.6388 -1.9260  1.4193
16726TIP3   OH271592   3.998   3.330   4.873 -0.4212  0.8218 -0.7414
16726TIP3    H171593   4.053   3.297   4.944  0.0757  2.1015 -0.4900
16726TIP3    H271594   3.933   3.262   4.858 -1.1538  0.9231  1.6314
16727TIP3   OH271595   2.444   4.770  12.451  0.5129  0.1331 -0.2105
16727TIP3    H171596   2.397   4.738  12.529 -0.7150  2.5030  0.1060
16727TIP3    H271597   2.395   4.735  12.377  0.0025  0.1904  0.1009
16728TIP3   OH271598   5.358   3.602   1.208  0.1123 -0.2319  0.5361
16728TIP3    H171599   5.376   3.509   1.192  1.0230 -0.2573  1.5539
16728TIP3    H271600   5.291   3.625   1.145 -2.1441 -2.2788  2.0108
16729TIP3   OH271601   0.761   0.149   4.735 -0.0654 -0.2853 -0.6521
16729TIP3    H171602   0.703   0.080   4.768  0.8522 -0.9266 -0.3685
16729TIP3    H271603   0.844   0.105   4.717  0.4437  0.6856 -0.7540
16730TIP3   OH271604   3.632   3.048   0.536 -0.3430 -0.1933  0.1673
16730TIP3    H171605   3.639   3.001   0.453  0.4006 -0.9914  0.6621
16730TIP3    H271606   3.560   3.006   0.582 -0.6698  0.1625 -0.0149
16731TIP3   OH271607   6.284   5.313  13.254  0.0712  0.3378  0.4738
16731TIP3    H171608   6.375   5.284  13.242  0.1372  0.3233  0.9873
16731TIP3    H271609   6.274   5.321  13.349 -0.0543  1.6425  0.3730
16732TIP3   OH271610   0.954   3.521   3.012 -0.5812  0.0514  0.4761
16732TIP3    H171611   0.977   3.462   2.941 -1.8135  0.5828 -0.3990
16732TIP3    H271612   0.991   3.480   3.090 -2.0576 -2.3157  0.0308
16733TIP3   OH271613   0.759   2.647  15.226 -0.4354 -0.0547 -0.1699
16733TIP3    H171614   0.789   2.613  15.310 -1.9047 -4.1024 -1.0424
16733TIP3    H271615   0.689   2.588  15.199 -0.7729  1.6677 -3.7639
16734TIP3   OH271616   4.462   1.247  13.493 -0.1606  0.0947 -0.3952
16734TIP3    H171617   4.453   1.325  13.547  1.0156  0.4253 -0.6406
16734TIP3    H271618   4.423   1.272  13.409 -0.5003  0.1417 -0.2260
16735TIP3   OH271619   2.710   5.667  15.171  0.3483  0.6104 -0.1198
16735TIP3    H171620   2.631   5.614  15.183  1.7544 -1.6954 -0.4483
16735TIP3    H271621   2.715   5.720  15.250 -1.2540  0.4731  0.1207
16736TIP3   OH271622   3.819   2.260   0.315 -0.5875  0.2663 -0.0452
16736TIP3    H171623   3.813   2.265   0.219 -2.0969  0.6087  0.0437
16736TIP3    H271624   3.801   2.169   0.336  0.8882 -0.0744 -0.1246
16737TIP3   OH271625   0.920   3.053   3.024 -0.7784  0.2637 -0.3317
16737TIP3    H171626   0.890   3.115   2.958 -2.9766  0.0755  0.3972
16737TIP3    H271627   0.840   3.011   3.055  0.1627  0.2686  2.3658
16738TIP3   OH271628   1.244   4.085  10.414 -0.3561 -0.0942 -0.5453
16738TIP3    H171629   1.213   3.994  10.411 -0.5425 -0.0341 -0.4748
16738TIP3    H271630   1.297   4.089  10.493 -2.5381  0.5373  0.9524
16739TIP3   OH271631   1.925   2.627   4.524 -0.3729  0.4954 -0.0063
16739TIP3    H171632   1.887   2.669   4.447 -2.3658 -0.8344  0.1726
16739TIP3    H271633   1.852   2.579   4.564  1.0129 -0.3154  1.7067
16740TIP3   OH271634   4.318   1.902  11.734 -0.1879  0.8891 -0.3126
16740TIP3    H171635   4.313   1.809  11.712 -1.0558  0.4257  1.6805
16740TIP3    H271636   4.412   1.920  11.741  0.0538  0.6079 -2.3314
16741TIP3   OH271637   5.145   4.589   1.744 -0.3138 -0.1455 -0.2919
16741TIP3    H171638   5.059   4.562   1.775 -0.1766  1.3663  1.6567
16741TIP3    H271639   5.202   4.579   1.820  0.9419  0.1287 -1.1667
16742TIP3   OH271640   2.639   0.281  11.033  0.3773 -0.0522  0.1886
16742TIP3    H171641   2.660   0.318  10.947  1.1689 -0.2670  0.2781
16742TIP3    H271642   2.597   0.353  11.081  0.9262  0.4063 -0.0049
16743TIP3   OH271643   4.018   6.331   1.476  0.0991  0.3391  0.4761
16743TIP3    H171644   4.094   6.363   1.525 -0.0953 -0.1490  1.1163
16743TIP3    H271645   3.993   6.251   1.522 -1.4527  1.0508  0.9132
16744TIP3   OH271646   1.280   4.775  14.532  0.0282 -0.8760 -0.2811
16744TIP3    H171647   1.315   4.755  14.619  1.2628 -1.9968 -0.9900
16744TIP3    H271648   1.279   4.871  14.528 -0.3026 -0.8052  1.0515
16745TIP3   OH271649   5.355   5.990  11.813 -0.0867 -0.3203  0.0360
16745TIP3    H171650   5.394   6.039  11.886  0.2841  0.7164 -0.8277
16745TIP3    H271651   5.261   6.001  11.825 -0.0230  0.0224  0.2383
16746TIP3   OH271652   3.238   6.504   5.615  0.8073  0.1589 -0.2902
16746TIP3    H171653   3.189   6.549   5.683 -1.3697 -1.6954 -0.5089
16746TIP3    H271654   3.215   6.550   5.534  0.2124 -0.0887 -0.2638
16747TIP3   OH271655   1.616   1.120  12.651  0.1334  0.0088 -0.3702
16747TIP3    H171656   1.684   1.184  12.629 -0.6061  0.7702 -0.5109
16747TIP3    H271657   1.546   1.138  12.588 -0.2330 -0.7057 -0.1731
16748TIP3   OH271658   4.619   3.344  15.054 -0.1672  0.3352 -0.0331
16748TIP3    H171659   4.683   3.411  15.029  0.3880 -0.6132 -1.2615
16748TIP3    H271660   4.644   3.319  15.143 -0.5055  1.8800  0.5137
16749TIP3   OH271661   0.418   5.439   2.075 -0.2211 -0.2915  0.3249
16749TIP3    H171662   0.450   5.358   2.114 -0.3404 -0.0964  0.8407
16749TIP3    H271663   0.397   5.416   1.985  0.0095 -0.7667  0.3926
16750TIP3   OH271664   4.702   5.635   5.583 -0.2623 -0.1610  0.3695
16750TIP3    H171665   4.760   5.696   5.538  0.9262 -0.7347  1.0834
16750TIP3    H271666   4.684   5.676   5.667 -2.6410  1.0013 -0.6106
16751TIP3   OH271667   5.795   2.721   3.467 -0.5321  0.4148  0.1329
16751TIP3    H171668   5.866   2.707   3.529 -0.8135 -0.3998  0.2785
16751TIP3    H271669   5.728   2.657   3.491 -0.4158 -0.3056 -1.3393
16752TIP3   OH271670   2.805   5.959  14.036 -0.0991 -0.0904  0.5624
16752TIP3    H171671   2.788   5.880  13.983 -1.1663  0.1306  0.5619
16752TIP3    H271672   2.861   5.928  14.107  0.3019 -0.6499  0.0185
16753TIP3   OH271673   1.165   0.073   4.944  0.3041 -0.3170 -0.1570
16753TIP3    H171674   1.250   0.084   4.902  0.4064  0.4048  0.2154
16753TIP3    H271675   1.102   0.076   4.872  0.3618  2.3496 -0.2018
16754TIP3   OH271676   6.724   2.602   2.949 -0.2532 -0.1807 -0.2859
16754TIP3    H171677   6.729   2.521   2.899 -1.1086  0.0729 -0.7926
16754TIP3    H271678   6.631   2.618   2.962 -0.0929 -1.0242  2.6862
16755TIP3   OH271679   2.928   4.029  14.538 -0.4542  0.1858 -0.2683
16755TIP3    H171680   2.848   3.978  14.549 -0.5985  0.5226  0.2965
16755TIP3    H271681   2.975   4.018  14.621 -0.6049  1.1668 -0.0379
16756TIP3   OH271682   5.758   5.951  16.862  0.3121  0.4860  0.1159
16756TIP3    H171683   5.673   5.986  16.835 -1.1165 -1.7941  1.3241
16756TIP3    H271684   5.784   5.894  16.789 -0.5247 -0.8644  0.8444
16757TIP3   OH271685   5.636   5.969   4.791 -0.1613 -0.5838 -0.2752
16757TIP3    H171686   5.700   6.040   4.785  2.1502 -2.6343 -2.4507
16757TIP3    H271687   5.592   5.969   4.706 -4.3496  1.6431  1.5973
16758TIP3   OH271688   2.719   4.122   3.044 -0.2850  0.3060 -0.2149
16758TIP3    H171689   2.678   4.179   2.979 -0.0718 -0.0383 -0.6470
16758TIP3    H271690   2.706   4.034   3.011 -1.5321  0.0071  0.9581
16759TIP3   OH271691   2.805   6.722  16.909  0.3826  0.0693 -0.0421
16759TIP3    H171692   2.897   6.741  16.890  0.7220  1.0296  2.2822
16759TIP3    H271693   2.797   6.627  16.894  1.8258 -0.0879  0.0247
16760TIP3   OH271694   4.222   3.851   0.224  0.3213 -0.3651  0.2646
16760TIP3    H171695   4.253   3.767   0.191 -1.5929 -0.9940 -0.0741
16760TIP3    H271696   4.175   3.830   0.304 -0.5767  0.2954 -0.0641
16761TIP3   OH271697   0.642   4.967  16.137  0.7792 -0.9262 -0.2000
16761TIP3    H171698   0.557   4.940  16.172  0.6511  0.2116  0.3962
16761TIP3    H271699   0.621   5.022  16.062  0.8491  1.6233  1.5242
16762TIP3   OH271700   6.381   6.620  12.106  0.0493 -0.3902  0.5294
16762TIP3    H171701   6.347   6.641  12.193 -0.8506  2.2112 -0.3689
16762TIP3    H271702   6.451   6.682  12.090  1.6407 -2.1787  0.1532
16763TIP3   OH271703   0.890   3.489   5.624  0.5410 -0.3691 -0.3483
16763TIP3    H171704   0.795   3.478   5.631  0.6492 -2.6392 -1.3790
16763TIP3    H271705   0.901   3.573   5.579 -0.9474  0.1083  0.1153
16764TIP3   OH271706   2.346   3.956  14.294 -1.0173 -0.7765 -0.1688
16764TIP3    H171707   2.262   3.912  14.309 -0.4842 -1.5376  0.6796
16764TIP3    H271708   2.398   3.936  14.372 -0.1972  0.0650 -0.4740
16765TIP3   OH271709   2.680   3.405  16.741  0.4067  0.4583 -0.2889
16765TIP3    H171710   2.687   3.484  16.795 -0.5104 -2.0852  3.9819
16765TIP3    H271711   2.587   3.401  16.716  0.0114 -0.1783  1.1841
16766TIP3   OH271712   5.734   2.661   2.424  0.6653  0.8938  0.5250
16766TIP3    H171713   5.789   2.591   2.458 -1.3122 -1.3588 -0.6784
16766TIP3    H271714   5.664   2.672   2.488 -0.2078  0.2398 -0.2881
16767TIP3   OH271715   1.361   3.105  11.901  0.5334 -0.2749 -0.7647
16767TIP3    H171716   1.301   3.032  11.885  1.1727 -0.7331 -1.1391
16767TIP3    H271717   1.443   3.077  11.859  0.6065  0.9222 -1.4599
16768TIP3   OH271718   1.170   0.293   4.761  0.1423 -0.6325 -0.2589
16768TIP3    H171719   1.100   0.291   4.697 -0.7544  0.3345  0.6533
16768TIP3    H271720   1.216   0.376   4.745  0.0883 -0.5174  0.1627
16769TIP3   OH271721   1.954   5.820  14.651  0.0751 -0.6219 -0.4589
16769TIP3    H171722   1.965   5.854  14.740 -0.0389 -0.1991 -0.6049
16769TIP3    H271723   2.028   5.760  14.640  1.9387  1.6551 -1.1582
16770TIP3   OH271724   3.776   5.591  16.162 -0.2364  0.8747  0.7924
16770TIP3    H171725   3.797   5.659  16.225  1.5479 -0.5054  1.7812
16770TIP3    H271726   3.859   5.545  16.147 -1.2085 -0.6072 -0.4108
16771TIP3   OH271727   0.212   6.276  14.894  0.6070  0.1886 -0.2496
16771TIP3    H171728   0.274   6.347  14.912 -0.6868  1.4419 -0.6223
16771TIP3    H271729   0.165   6.304  14.815 -1.4571 -0.0232  0.8404
16772TIP3   OH271730   3.164   0.808  14.643 -0.2055  0.8942  0.4747
16772TIP3    H171731   3.210   0.846  14.569 -1.3426  0.0768 -0.6835
16772TIP3    H271732   3.201   0.719  14.651  1.5368  1.6946  2.3697
16773TIP3   OH271733   3.491   5.772   0.099  0.0717 -0.1848 -0.3847
16773TIP3    H171734   3.556   5.708   0.069  0.6702  0.6372 -0.8861
16773TIP3    H271735   3.543   5.849   0.123 -0.7987  1.1103 -2.3892
16774TIP3   OH271736   1.301   6.244   4.726  0.5918 -0.0130 -0.6741
16774TIP3    H171737   1.299   6.236   4.631  1.3235 -3.0777 -0.5226
16774TIP3    H271738   1.391   6.222   4.750  0.2524  0.0865  0.7920
16775TIP3   OH271739   2.153   3.246   2.022  0.5052  0.1004 -0.0422
16775TIP3    H171740   2.235   3.201   2.041 -0.0197 -1.2928 -0.9611
16775TIP3    H271741   2.119   3.203   1.943  0.3169  2.5755 -1.4289
16776TIP3   OH271742   4.924   2.262  14.488 -0.2424 -0.1770  0.0162
16776TIP3    H171743   4.902   2.228  14.575 -3.0984 -0.7494 -0.8236
16776TIP3    H271744   4.951   2.353  14.503  0.3491 -0.5789  1.5621
16777TIP3   OH271745   4.978   2.102   1.614 -0.1790  0.1954 -0.5223
16777TIP3    H171746   5.056   2.096   1.559 -0.2828 -1.7508 -0.5048
16777TIP3    H271747   4.922   2.165   1.569  0.5766  0.1407 -1.5779
16778TIP3   OH271748   6.209   1.556  15.707 -0.1252  0.1227  0.0494
16778TIP3    H171749   6.200   1.554  15.803 -1.8680 -1.4714 -0.0888
16778TIP3    H271750   6.239   1.468  15.684  1.0346  0.7250 -0.8356
16779TIP3   OH271751   5.997   3.833  17.112 -0.7152 -0.4070  0.1492
16779TIP3    H171752   5.959   3.748  17.135  0.4787 -1.2493 -0.8595
16779TIP3    H271753   6.047   3.859  17.190 -0.4191 -1.0357  0.1770
16780TIP3   OH271754   4.147   3.031  14.529 -0.3167 -0.3785 -0.2628
16780TIP3    H171755   4.125   2.951  14.576  2.4407 -0.9548  0.2594
16780TIP3    H271756   4.174   3.000  14.442 -0.6248  0.1429 -0.5478
16781TIP3   OH271757   5.500   1.765  17.008  0.2350  0.5164 -0.3713
16781TIP3    H171758   5.478   1.810  16.926 -1.5682  1.7368  0.6944
16781TIP3    H271759   5.430   1.791  17.068  0.7010 -1.5191  1.1392
16782TIP3   OH271760   0.593   4.421   3.859 -0.4677  0.2070 -0.8254
16782TIP3    H171761   0.640   4.436   3.941  0.4920 -0.9543 -1.1289
16782TIP3    H271762   0.529   4.492   3.854 -0.4957  0.3388  0.8930
16783TIP3   OH271763   0.976   4.697   3.267  0.4512  0.5149 -0.4032
16783TIP3    H171764   0.911   4.648   3.217  1.0617  0.5129 -1.2095
16783TIP3    H271765   0.999   4.639   3.340 -0.2358  0.4020 -0.2720
16784TIP3   OH271766   4.860   0.101  14.201  0.0550 -0.1485 -0.1642
16784TIP3    H171767   4.935   0.073  14.253  1.4976  0.2726 -1.9395
16784TIP3    H271768   4.877   0.194  14.183 -0.7397 -0.1318 -0.8721
16785TIP3   OH271769   5.348   1.512  11.085 -0.4977 -0.3692 -0.1565
16785TIP3    H171770   5.331   1.601  11.055  0.4104 -0.5804 -1.3298
16785TIP3    H271771   5.441   1.510  11.105 -0.2688 -1.3626 -1.2485
16786TIP3   OH271772   3.233   5.172  16.304  0.4346 -0.1349 -0.1630
16786TIP3    H171773   3.200   5.215  16.226 -2.8410  0.4023  1.3641
16786TIP3    H271774   3.319   5.212  16.319  0.7608  0.3798 -2.8893
16787TIP3   OH271775   5.382   4.304  12.289 -0.0073  0.7725 -0.4944
16787TIP3    H171776   5.373   4.234  12.225 -0.6345  1.5937 -1.3243
16787TIP3    H271777   5.473   4.298  12.318 -0.0219 -0.3037 -0.6360
16788TIP3   OH271778   0.601   0.392  11.884 -0.2120  0.6424  0.1599
16788TIP3    H171779   0.672   0.455  11.885 -0.5817  1.0761 -0.3784
16788TIP3    H271780   0.521   0.444  11.874 -0.4191  0.0535 -1.9107
16789TIP3   OH271781   2.749   4.510   2.734  0.3398  0.0711  0.1343
16789TIP3    H171782   2.700   4.451   2.791 -0.6650  0.3939 -0.3750
16789TIP3    H271783   2.772   4.456   2.658  1.3612 -0.2578  0.6585
16790TIP3   OH271784   1.692   1.902  17.055  0.1649  0.0538 -0.5375
16790TIP3    H171785   1.656   1.826  17.009  0.5458  0.4218 -1.4633
16790TIP3    H271786   1.676   1.975  16.996 -0.3017  0.7296  0.3984
16791TIP3   OH271787   1.223   5.801   3.727  0.4380 -0.0972 -0.1132
16791TIP3    H171788   1.218   5.732   3.662 -0.9517  0.3506 -0.5104
16791TIP3    H271789   1.160   5.776   3.795 -0.1433  0.7893 -0.3010
16792TIP3   OH271790   0.789   4.793  11.807 -0.0277  0.2458 -0.3126
16792TIP3    H171791   0.744   4.728  11.753 -0.2934  0.0862  0.0955
16792TIP3    H271792   0.724   4.860  11.825 -0.0203  0.1600  0.0394
16793TIP3   OH271793   0.332   5.699   1.973  0.7256 -0.1592  1.0898
16793TIP3    H171794   0.407   5.692   1.914  0.4662 -1.6382  0.8926
16793TIP3    H271795   0.326   5.613   2.014  1.2292  0.9607  3.7402
16794TIP3   OH271796   6.003   0.678  13.583  0.0804 -0.3164 -0.5857
16794TIP3    H171797   6.069   0.620  13.621  1.1147  0.8168 -0.5927
16794TIP3    H271798   6.003   0.656  13.490 -0.3399 -1.0577 -0.4196
16795TIP3   OH271799   5.063   0.862   3.666 -0.2862  0.1083  0.0340
16795TIP3    H171800   5.072   0.785   3.723  0.8318  1.5061  1.9042
16795TIP3    H271801   5.142   0.861   3.612  0.1296  0.3580  0.6279
16796TIP3   OH271802   0.091   0.209   3.018 -0.3888  0.2788  0.9218
16796TIP3    H171803   0.081   0.260   3.099  1.8803 -1.1364  2.1925
16796TIP3    H271804   0.150   0.261   2.964 -0.6112  0.4669  0.8571
16797TIP3   OH271805   0.073   4.894   1.781 -0.7685 -0.4627 -0.1821
16797TIP3    H171806   0.004   4.837   1.813 -2.4812  2.5099  1.9071
16797TIP3    H271807   0.144   4.883   1.844 -1.5304  0.4391  0.8763
16798TIP3   OH271808   5.060   0.328   1.548  0.1964 -0.1733  0.3609
16798TIP3    H171809   5.052   0.363   1.459 -0.8759 -1.1532  0.0411
16798TIP3    H271810   5.139   0.369   1.583  0.2777  0.7304 -0.8093
16799TIP3   OH271811   0.227   6.334  12.107  0.1690  0.1380 -0.3083
16799TIP3    H171812   0.288   6.288  12.049 -0.0660  0.7573 -1.0683
16799TIP3    H271813   0.283   6.370  12.176  0.3660 -1.2016  0.2653
16800TIP3   OH271814   1.602   3.059   4.908 -0.1082  0.5466 -0.6993
16800TIP3    H171815   1.690   3.052   4.872  0.5293 -0.3645  0.9264
16800TIP3    H271816   1.557   2.980   4.878  0.3798 -0.1444  0.3273
16801TIP3   OH271817   1.428   0.229   2.732  0.1173 -0.0714 -0.3006
16801TIP3    H171818   1.411   0.222   2.638 -2.9826  2.4945 -0.0772
16801TIP3    H271819   1.390   0.149   2.769 -2.1404  0.6318 -0.9494
16802TIP3   OH271820   5.641   0.245  13.959 -0.0382 -0.4113 -0.3854
16802TIP3    H171821   5.723   0.226  13.914  0.7506  2.6680 -0.4627
16802TIP3    H271822   5.573   0.221  13.895  0.9363  0.1887 -1.7016
16803TIP3   OH271823   1.977   1.230   2.010 -0.6912  0.4672  0.9584
16803TIP3    H171824   1.890   1.192   2.021 -0.0829 -0.7126  1.9418
16803TIP3    H271825   2.027   1.197   2.084  1.2504 -0.8039 -0.8000
16804TIP3   OH271826   4.131   2.598   3.392 -0.0752  0.5563  0.0713
16804TIP3    H171827   4.104   2.518   3.436  0.4546  0.2529 -0.1458
16804TIP3    H271828   4.077   2.667   3.432  0.9822  0.4330  1.8070
16805TIP3   OH271829   4.025   5.776   4.373 -0.4980 -0.8793 -0.4373
16805TIP3    H171830   3.963   5.774   4.446 -0.3008  0.6330 -0.1850
16805TIP3    H271831   3.971   5.791   4.296 -0.4893  0.6520 -0.1935
16806TIP3   OH271832   5.316   5.788  12.377 -0.3117 -0.4191 -0.5352
16806TIP3    H171833   5.280   5.774  12.289 -0.6600  1.7602 -0.7891
16806TIP3    H271834   5.240   5.793  12.434 -0.1533 -0.4792 -0.3173
16807TIP3   OH271835   5.827   4.615   0.360 -0.6136  0.2932 -0.4731
16807TIP3    H171836   5.796   4.678   0.425  2.0903  1.7043 -0.4363
16807TIP3    H271837   5.906   4.654   0.323  0.5854 -2.5820 -1.2456
16808TIP3   OH271838   1.707   6.474   1.476 -0.8241 -0.5102  0.3981
16808TIP3    H171839   1.780   6.535   1.464 -1.9057  0.5667 -0.9721
16808TIP3    H271840   1.683   6.484   1.569  0.0832 -0.0960  0.5994
16809TIP3   OH271841   1.977   1.745  11.457  0.1491 -0.0018 -0.2220
16809TIP3    H171842   1.997   1.697  11.537  1.4851 -0.4933 -0.8232
16809TIP3    H271843   2.006   1.687  11.386 -0.9467  0.4502 -1.0725
16810TIP3   OH271844   5.746   1.620   3.887  0.3159  0.1947 -0.1674
16810TIP3    H171845   5.695   1.540   3.902  1.3435 -0.4962 -0.1870
16810TIP3    H271846   5.702   1.664   3.814 -0.7337  0.0647  0.3769
16811TIP3   OH271847   0.206   2.297   4.816  0.2214 -0.7518 -0.3663
16811TIP3    H171848   0.197   2.356   4.742 -0.1614  1.1179  1.0885
16811TIP3    H271849   0.142   2.328   4.880  0.9330 -1.9124  0.9867
16812TIP3   OH271850   6.544   3.518   1.060  0.3389 -0.5419  0.1865
16812TIP3    H171851   6.598   3.466   1.120  0.1092 -0.4989  0.4308
16812TIP3    H271852   6.456   3.485   1.071  0.0589  0.4143  0.9165
16813TIP3   OH271853   3.686   4.000  11.959 -0.0886 -0.4516 -0.3436
16813TIP3    H171854   3.695   3.997  12.054  1.2666  0.0587 -0.4281
16813TIP3    H271855   3.760   4.053  11.930 -0.8148 -0.1111 -1.6455
16814TIP3   OH271856   2.600   2.864   0.672  0.3153 -0.0112  0.1010
16814TIP3    H171857   2.566   2.922   0.605 -2.0355 -0.8274  0.4736
16814TIP3    H271858   2.622   2.922   0.745  0.0912  0.6119 -0.3158
16815TIP3   OH271859   3.455   0.329  13.216  0.3236  0.1651  0.6883
16815TIP3    H171860   3.447   0.278  13.297 -2.9845  1.3414  1.2309
16815TIP3    H271861   3.433   0.268  13.146  0.1895 -0.0869  0.9528
16816TIP3   OH271862   0.099   2.909  16.587 -1.0997 -0.1300 -0.1956
16816TIP3    H171863   0.167   2.841  16.585 -1.2067 -0.2215 -1.5142
16816TIP3    H271864   0.042   2.888  16.513 -2.4449  0.0971  0.7268
16817TIP3   OH271865   1.608   2.585   6.499 -0.3499  0.8869 -0.5955
16817TIP3    H171866   1.547   2.640   6.451 -0.6271 -0.2051 -1.5254
16817TIP3    H271867   1.557   2.550   6.572 -0.3526  1.3324 -0.3816
16818TIP3   OH271868   0.665   6.243  15.650 -0.5778  0.0918 -0.7501
16818TIP3    H171869   0.716   6.311  15.607 -0.8219  0.0981 -1.0351
16818TIP3    H271870   0.635   6.187  15.578  1.6950 -1.7908 -0.3559
16819TIP3   OH271871   6.261   2.212  11.039 -0.3983  0.0078 -0.1696
16819TIP3    H171872   6.205   2.153  11.089  1.1367 -0.1232  1.5261
16819TIP3    H271873   6.218   2.297  11.045 -0.2670 -0.0044  1.4501
16820TIP3   OH271874   5.763   5.331   3.106  0.6616 -0.7179  0.1929
16820TIP3    H171875   5.716   5.256   3.143  0.3124 -0.5763  0.0374
16820TIP3    H271876   5.754   5.321   3.012  0.6087 -0.4727  0.1729
16821TIP3   OH271877   2.507   6.406  15.809 -0.5064 -0.4938 -0.6173
16821TIP3    H171878   2.460   6.330  15.843 -0.7349 -0.6283 -1.2166
16821TIP3    H271879   2.599   6.379  15.807 -0.6738 -1.0449 -1.5586
16822TIP3   OH271880   0.479   6.243  14.470 -0.2919 -0.0168  0.7376
16822TIP3    H171881   0.552   6.200  14.514 -1.0232 -1.1780  0.8711
16822TIP3    H271882   0.402   6.216  14.520 -1.0461 -0.6257 -0.6876
16823TIP3   OH271883   6.623   3.782   1.741  0.5524  0.4614 -0.0105
16823TIP3    H171884   6.628   3.755   1.833 -1.6676  0.9314  0.2956
16823TIP3    H271885   6.530   3.794   1.725  0.7303 -1.1584 -2.8125
16824TIP3   OH271886   1.137   5.515   1.897 -0.4062  0.2593  0.2699
16824TIP3    H171887   1.161   5.432   1.855 -1.0120  0.7815 -1.1730
16824TIP3    H271888   1.046   5.530   1.870 -0.8827  0.5556  1.9203
16825TIP3   OH271889   3.052   0.509  11.284  0.4657  0.2248 -0.0085
16825TIP3    H171890   3.088   0.553  11.361 -0.0166  1.0177 -0.2223
16825TIP3    H271891   3.069   0.568  11.211 -1.3284  0.7033 -0.1026
16826TIP3   OH271892   0.683   5.705   5.606 -0.6300 -0.3726  0.1076
16826TIP3    H171893   0.663   5.706   5.700 -0.2334  0.5956  0.1945
16826TIP3    H271894   0.778   5.697   5.601 -0.2823  2.6074 -0.0914
16827TIP3   OH271895   4.269   3.183  12.432  0.4410  0.0691  0.9991
16827TIP3    H171896   4.354   3.227  12.427  0.3477  0.1959  0.5220
16827TIP3    H271897   4.291   3.091  12.451  0.7038  0.0137  0.4419
16828TIP3   OH271898   2.248   4.767  16.734  0.1310  0.1680  0.9856
16828TIP3    H171899   2.312   4.805  16.795  0.2662  2.3320 -0.3580
16828TIP3    H271900   2.165   4.808  16.758  0.4790  2.4208 -1.2124
16829TIP3   OH271901   1.693   3.975   4.174 -0.2107  0.3334  0.5158
16829TIP3    H171902   1.786   4.001   4.174 -0.1299  0.1596 -1.1875
16829TIP3    H271903   1.694   3.881   4.193  0.0085  0.2476  0.1019
16830TIP3   OH271904   1.259   5.977   5.850  0.2617  0.2234  0.3285
16830TIP3    H171905   1.266   5.995   5.756  0.3161 -4.1769 -0.7599
16830TIP3    H271906   1.348   5.985   5.883  0.2315  1.8662  0.0867
16831TIP3   OH271907   1.631   0.041  13.901 -0.4673 -0.2495  0.1275
16831TIP3    H171908   1.673  -0.037  13.934  0.9354  0.8965  1.1707
16831TIP3    H271909   1.658   0.046  13.809  0.3050 -0.4249  0.3400
16832TIP3   OH271910   4.861   1.721   4.991 -0.0849 -0.0035  0.4613
16832TIP3    H171911   4.809   1.798   4.967 -0.5691 -0.5127 -0.1478
16832TIP3    H271912   4.923   1.754   5.056  0.1141  1.0329 -0.2329
16833TIP3   OH271913   2.987   4.032   3.980 -0.5426 -0.2910 -0.3623
16833TIP3    H171914   2.958   4.109   4.028 -1.5055 -1.3586  0.8299
16833TIP3    H271915   2.990   3.962   4.046 -1.0747 -1.6073 -1.6731
16834TIP3   OH271916   3.438   1.943  13.745 -0.1292  0.8959 -0.5216
16834TIP3    H171917   3.393   1.859  13.757  1.7979 -0.2861 -1.1229
16834TIP3    H271918   3.470   1.966  13.832  1.5473 -0.3464 -0.7755
16835TIP3   OH271919   4.207   6.522  16.388 -0.0579  0.4206  0.1521
16835TIP3    H171920   4.241   6.503  16.475  1.4573 -1.2788 -0.7409
16835TIP3    H271921   4.278   6.497  16.328 -2.0939 -1.2792 -1.7225
16836TIP3   OH271922   0.844   0.950  12.356 -0.6834 -0.3288  0.4693
16836TIP3    H171923   0.877   0.885  12.294  2.4169  1.5276 -0.0658
16836TIP3    H271924   0.767   0.909  12.395  0.3777 -3.7965 -0.6658
16837TIP3   OH271925   0.269   5.261   4.126  0.3835 -0.0023  0.1333
16837TIP3    H171926   0.276   5.353   4.099 -0.9367  0.1236  0.1714
16837TIP3    H271927   0.328   5.214   4.066  1.4265  0.9068  0.4046
16838TIP3   OH271928   0.050   1.282   3.074 -0.0065  0.0304  0.2251
16838TIP3    H171929   0.113   1.335   3.026  1.1814 -0.7174  0.9149
16838TIP3    H271930  -0.023   1.341   3.092  0.5551  0.9491 -0.4815
16839TIP3   OH271931   2.707   4.177  16.869 -0.4022 -0.0737 -0.3814
16839TIP3    H171932   2.694   4.264  16.908  0.1407 -0.3222  0.3944
16839TIP3    H271933   2.694   4.117  16.942  0.1446 -0.5873 -0.7001
16840TIP3   OH271934   3.139   5.523   1.921 -0.3548  0.0007 -0.3436
16840TIP3    H171935   3.047   5.499   1.924 -0.1490 -0.8904 -0.9796
16840TIP3    H271936   3.171   5.487   1.839  0.3892  0.9578 -0.4910
16841TIP3   OH271937   1.279   2.932  13.677 -0.1025 -0.2954  0.1023
16841TIP3    H171938   1.270   2.840  13.704 -0.3493 -0.4940 -0.6274
16841TIP3    H271939   1.374   2.944  13.668  0.1880  0.3952  3.0572
16842TIP3   OH271940   5.342   5.951   1.341 -0.2000 -0.2371 -0.0630
16842TIP3    H171941   5.420   5.954   1.397 -0.1424  2.2366 -0.1771
16842TIP3    H271942   5.319   6.043   1.326 -2.5123 -0.8754 -0.9378
16843TIP3   OH271943   3.364   1.091   4.266  0.0827  0.5854  0.3562
16843TIP3    H171944   3.401   1.178   4.271 -3.0373  2.0127  1.4446
16843TIP3    H271945   3.424   1.036   4.316  0.8709  2.6184  1.7701
16844TIP3   OH271946   5.566   1.251  17.232 -0.3865  0.3693  0.0960
16844TIP3    H171947   5.597   1.212  17.150 -1.0055  1.2330 -0.5565
16844TIP3    H271948   5.547   1.342  17.210 -0.4816  0.6363  1.2243
16845TIP3   OH271949   4.685   3.830  12.113  0.0439 -0.4055 -0.6219
16845TIP3    H171950   4.707   3.785  12.194  0.6355 -1.3211 -1.2740
16845TIP3    H271951   4.736   3.911  12.116 -1.0782  0.2991  0.5857
16846TIP3   OH271952   5.492   6.213  12.016 -0.3257  0.0330  0.1616
16846TIP3    H171953   5.414   6.267  11.998 -0.4047 -0.1057  0.0803
16846TIP3    H271954   5.565   6.274  12.014 -0.5118  0.2895  0.9769
16847TIP3   OH271955   3.257   5.220   1.760  0.2337  0.2318 -0.8482
16847TIP3    H171956   3.255   5.156   1.689 -1.1923  0.4775 -1.0741
16847TIP3    H271957   3.348   5.246   1.768  0.7907 -1.5930 -0.9604
16848TIP3   OH271958   3.344   2.903   2.429 -0.5781  0.6890 -0.3552
16848TIP3    H171959   3.410   2.955   2.475  0.6243  0.8057 -2.1089
16848TIP3    H271960   3.295   2.967   2.378 -0.9358  0.4085 -0.3650
16849TIP3   OH271961   1.001   2.081  12.303  0.1910 -0.3587  0.2854
16849TIP3    H171962   1.077   2.136  12.285 -1.4798  1.7326 -0.9372
16849TIP3    H271963   0.969   2.055  12.217 -1.4388  0.2384  0.6809
16850TIP3   OH271964   3.802   0.725   2.835 -0.0052  0.8577 -0.2630
16850TIP3    H171965   3.831   0.713   2.744  0.6565 -0.5734  0.1049
16850TIP3    H271966   3.883   0.732   2.885 -0.3307 -0.0689  0.4180
16851TIP3   OH271967   6.072   2.975  11.634 -0.5380  0.2733  0.1949
16851TIP3    H171968   6.143   2.919  11.663 -0.5359 -0.0619 -0.4484
16851TIP3    H271969   6.107   3.022  11.558 -1.5356 -1.1779 -1.2338
16852TIP3   OH271970   4.690   2.844   4.344  0.2471  0.1936 -0.3354
16852TIP3    H171971   4.669   2.770   4.401 -0.8869  1.6929  1.2883
16852TIP3    H271972   4.646   2.919   4.385 -1.7222  1.1686 -3.8535
16853TIP3   OH271973   5.922   2.637   4.848 -0.3286 -0.2826 -0.1621
16853TIP3    H171974   5.858   2.599   4.908 -1.8847  0.3328 -1.3471
16853TIP3    H271975   6.005   2.594   4.869  0.0937  2.2857  4.7958
16854TIP3   OH271976   0.963   1.034  17.170 -0.2456  0.2099  0.1453
16854TIP3    H171977   1.017   0.999  17.099 -0.7631  1.9775 -1.1767
16854TIP3    H271978   0.991   1.125  17.179 -0.4892  0.1350  1.9363
16855TIP3   OH271979   4.195   5.176  11.328  0.2950 -0.3406 -0.0213
16855TIP3    H171980   4.267   5.134  11.282  1.3549  1.9558 -0.5809
16855TIP3    H271981   4.117   5.155  11.276  0.7422 -1.7009 -0.1741
16856TIP3   OH271982   2.803   3.242  12.333  0.2876  0.2959 -0.0922
16856TIP3    H171983   2.839   3.191  12.406 -0.2945 -2.1552 -1.3867
16856TIP3    H271984   2.709   3.246  12.351  0.0343 -0.9267 -0.9680
16857TIP3   OH271985   5.270   1.248  15.600 -0.3790 -0.7561 -0.4333
16857TIP3    H171986   5.238   1.334  15.571 -0.1585 -1.0355 -1.5534
16857TIP3    H271987   5.222   1.231  15.680 -0.8561  0.1562 -0.5054
16858TIP3   OH271988   2.550   3.278  12.444 -0.4475 -0.5144 -0.0916
16858TIP3    H171989   2.521   3.352  12.391  1.0250 -0.1707 -0.4488
16858TIP3    H271990   2.582   3.318  12.525 -3.0836 -1.0556  1.3435
16859TIP3   OH271991   1.310   6.491  16.771 -0.2313 -0.4053  0.0542
16859TIP3    H171992   1.336   6.540  16.693 -0.0510 -0.2991  0.1811
16859TIP3    H271993   1.299   6.557  16.839 -0.5338 -0.4815  0.0830
16860TIP3   OH271994   0.437   5.648   6.274 -0.0161  0.4484  0.3105
16860TIP3    H171995   0.493   5.582   6.315  0.3087  1.3796  1.4140
16860TIP3    H271996   0.489   5.728   6.274 -1.2947  1.3211  1.2840
16861TIP3   OH271997   3.484   4.727   3.546 -0.1487  0.4128  0.1647
16861TIP3    H171998   3.576   4.750   3.535 -0.3398  1.1953  0.1149
16861TIP3    H271999   3.484   4.652   3.605  0.5484  0.0582 -0.2756
16862TIP3   OH272000   1.635   6.706   0.135  0.1879 -0.4120  0.1831
16862TIP3    H172001   1.689   6.633   0.166  0.8868  0.1127  0.2370
16862TIP3    H272002   1.694   6.782   0.136  0.8869 -0.6272 -4.0655
16863TIP3   OH272003   2.733   6.302   2.659 -0.1391  0.0186 -0.1271
16863TIP3    H172004   2.667   6.248   2.703  0.7563 -0.7909  0.2373
16863TIP3    H272005   2.815   6.255   2.671  0.1523 -0.2245 -2.6763
16864TIP3   OH272006   1.434   1.079   2.511 -0.0351 -0.0681  0.4365
16864TIP3    H172007   1.456   1.160   2.465  0.7307 -0.8287 -0.5998
16864TIP3    H272008   1.384   1.107   2.587  0.2681  1.3796  0.1324
16865TIP3   OH272009   5.732   1.935  15.959  0.2993 -0.4638 -0.3975
16865TIP3    H172010   5.673   1.860  15.951 -0.9384 -0.0356  2.8922
16865TIP3    H272011   5.812   1.898  15.996 -0.8662 -0.1559  2.7720
16866TIP3   OH272012   1.991   5.170  13.190  0.0854  0.2258  0.5767
16866TIP3    H172013   1.994   5.176  13.285  1.9493 -2.5169  0.8055
16866TIP3    H272014   1.934   5.095  13.173  0.2698  0.3028 -0.4340
16867TIP3   OH272015   4.499   0.006   5.395  0.0659  0.0648 -0.0804
16867TIP3    H172016   4.442   0.069   5.351 -0.0776 -0.6880 -1.0016
16867TIP3    H272017   4.542   0.057   5.464 -0.6264  0.9820 -0.3069
16868TIP3   OH272018   0.784   3.266   6.203 -0.3970  0.2991  0.4756
16868TIP3    H172019   0.781   3.299   6.292 -1.1389  3.3121 -0.5451
16868TIP3    H272020   0.856   3.315   6.162 -2.1821  1.5266 -1.4049
16869TIP3   OH272021   2.215   5.809  16.312 -0.0022  0.5475 -0.7966
16869TIP3    H172022   2.231   5.728  16.362  0.4104  0.8969 -0.3567
16869TIP3    H272023   2.302   5.836  16.283 -0.2630  0.1985 -1.9632
16870TIP3   OH272024   2.125   4.949   3.853 -0.0691 -0.1384  0.3221
16870TIP3    H172025   2.034   4.977   3.867  0.1711  1.2402 -0.6650
16870TIP3    H272026   2.134   4.869   3.905 -2.9926 -2.6191 -2.5714
16871TIP3   OH272027   1.587   4.509  10.914 -0.4853 -0.4110 -0.3103
16871TIP3    H172028   1.593   4.447  10.841  0.0342 -0.9400  0.1736
16871TIP3    H272029   1.505   4.487  10.958 -0.7929 -0.1000 -0.7259
16872TIP3   OH272030   4.719   0.409  11.705  0.1043  0.0416  0.2448
16872TIP3    H172031   4.803   0.414  11.751  0.5496 -0.4186 -0.5010
16872TIP3    H272032   4.708   0.316  11.686 -0.4158  0.1452  0.0349
16873TIP3   OH272033   3.103   6.602  17.111  0.3740  0.6324 -0.2140
16873TIP3    H172034   3.014   6.567  17.106  0.7508 -0.1525 -2.3722
16873TIP3    H272035   3.133   6.579  17.200 -0.8725 -0.8520 -0.1466
16874TIP3   OH272036   0.657   1.511  11.494 -0.0101  0.5679  0.1129
16874TIP3    H172037   0.685   1.470  11.413 -0.4339 -1.7366  1.0558
16874TIP3    H272038   0.696   1.598  11.492  0.5087  0.3390 -2.2437
16875TIP3   OH272039   2.430   2.751   0.456  0.4652 -0.0441  0.2830
16875TIP3    H172040   2.471   2.838   0.463 -0.0818  0.2266  0.1846
16875TIP3    H272041   2.366   2.761   0.386  1.1314 -0.8303 -0.4533
16876TIP3   OH272042   2.260   5.030  13.349 -0.2794 -0.1683  0.4900
16876TIP3    H172043   2.303   4.981  13.279 -1.0621 -0.0322 -0.0927
16876TIP3    H272044   2.174   4.988  13.359  0.0193 -0.5287  1.7369
16877TIP3   OH272045   0.815   0.755   0.954 -0.3335  0.1301 -0.3529
16877TIP3    H172046   0.838   0.782   0.865 -0.5831  1.6232 -0.0024
16877TIP3    H272047   0.765   0.829   0.989  1.7098  0.6114  1.8183
16878TIP3   OH272048   6.655   0.809   6.660 -0.0542 -0.7339  0.3199
16878TIP3    H172049   6.741   0.769   6.648  0.3912  0.4431 -0.6893
16878TIP3    H272050   6.667   0.874   6.729 -0.0370 -0.3260 -0.0619
16879TIP3   OH272051   2.969   3.831  11.658  0.5170 -0.3214  0.0364
16879TIP3    H172052   2.926   3.789  11.732 -0.3506 -0.7171 -0.6640
16879TIP3    H272053   2.929   3.918  11.652  1.3937  0.1413  0.7050
16880TIP3   OH272054   4.897   4.418  15.628 -0.4297  0.1705 -0.3405
16880TIP3    H172055   4.895   4.513  15.615 -1.3503  0.7352  3.0145
16880TIP3    H272056   4.805   4.392  15.624 -0.3621 -0.2441  0.6230
16881TIP3   OH272057   3.937   4.075  15.872  0.1211  0.1691  0.1965
16881TIP3    H172058   4.022   4.046  15.907  1.0102  0.6414 -1.4204
16881TIP3    H272059   3.923   4.161  15.911  1.6381  1.1825 -1.3284
16882TIP3   OH272060   4.621   3.659   4.159  0.1052  0.4350  0.0643
16882TIP3    H172061   4.535   3.700   4.167  0.2516  0.5522  1.1170
16882TIP3    H272062   4.669   3.686   4.238  1.7929  2.0047 -1.3907
16883TIP3   OH272063   4.524   5.713  16.350 -0.3794  0.3770  0.0129
16883TIP3    H172064   4.439   5.741  16.385  0.4562  3.3791 -0.0678
16883TIP3    H272065   4.548   5.782  16.288  1.7000 -0.9048 -0.7181
16884TIP3   OH272066   3.163   3.873  10.943 -0.0413 -0.5062  0.1096
16884TIP3    H172067   3.123   3.837  10.864  0.6168 -0.7386 -0.1271
16884TIP3    H272068   3.257   3.856  10.932 -0.0306 -1.4291  1.4002
16885TIP3   OH272069   2.587   5.260  16.383  0.4795 -0.2789  0.2955
16885TIP3    H172070   2.637   5.178  16.375 -1.1409 -1.1666 -1.4233
16885TIP3    H272071   2.499   5.237  16.354 -0.5364  1.6377  1.6672
16886TIP3   OH272072   4.118   4.073  13.530 -0.4571  0.1884  0.3178
16886TIP3    H172073   4.208   4.040  13.540 -0.0841  0.6708 -1.1176
16886TIP3    H272074   4.118   4.157  13.577  0.6909  1.5131 -1.8488
16887TIP3   OH272075   4.564   4.466  12.106 -0.5745  0.1449  0.5381
16887TIP3    H172076   4.487   4.437  12.058 -0.3995 -0.5349  0.6480
16887TIP3    H272077   4.591   4.389  12.156  1.0190 -0.0843 -0.5867
16888TIP3   OH272078   3.539   6.647  17.141 -0.0310 -0.2112 -0.0124
16888TIP3    H172079   3.529   6.741  17.153  0.2678 -0.3570  1.6320
16888TIP3    H272080   3.509   6.609  17.224  0.6083 -1.5019 -0.3482
16889TIP3   OH272081   0.052   5.845   5.171 -0.0181  0.1810 -0.3723
16889TIP3    H172082   0.108   5.918   5.147 -0.5430  0.2625 -1.4071
16889TIP3    H272083   0.032   5.860   5.264  0.4579  0.9527 -0.3821
16890TIP3   OH272084   1.998   3.238  15.325 -0.1444  1.0510  0.1482
16890TIP3    H172085   1.952   3.321  15.311 -1.7534  0.5161  1.9228
16890TIP3    H272086   2.083   3.263  15.361 -0.5064  1.9205  0.4107
16891TIP3   OH272087   3.629   0.472   2.405 -0.5973  0.2251  0.3137
16891TIP3    H172088   3.603   0.387   2.441  0.6131 -0.0875  0.5149
16891TIP3    H272089   3.566   0.534   2.441  0.5245 -0.0513  3.0387
16892TIP3   OH272090   2.962   4.239  16.546 -0.5868  1.2279  0.0295
16892TIP3    H172091   3.029   4.283  16.496 -0.1927  1.6318  0.8894
16892TIP3    H272092   2.882   4.250  16.494 -0.0420  0.9256 -0.8949
16893TIP3   OH272093   5.141   2.775  13.464 -0.0982  0.1343  0.1748
16893TIP3    H172094   5.218   2.720  13.479 -0.9462 -0.9946  0.5354
16893TIP3    H272095   5.102   2.787  13.551 -1.5246 -1.1619 -0.2318
16894TIP3   OH272096   1.837   0.325   2.218 -0.5708  0.5146 -0.4946
16894TIP3    H172097   1.859   0.313   2.310 -1.9726  1.2765 -0.0193
16894TIP3    H272098   1.916   0.302   2.171 -0.0189 -0.4920  0.8682
16895TIP3   OH272099   0.426   0.128   1.359 -0.1024 -0.0040  0.1953
16895TIP3    H172100   0.331   0.119   1.361 -0.2626  1.1204  2.6332
16895TIP3    H272101   0.444   0.185   1.285 -1.2223 -0.9754 -0.8492
16896TIP3   OH272102   4.119   1.574   1.919 -0.8547 -0.4044  0.1466
16896TIP3    H172103   4.052   1.520   1.962 -0.4418 -0.3156  0.9268
16896TIP3    H272104   4.201   1.545   1.959 -0.4554 -0.2872 -0.5683
16897TIP3   OH272105   2.623   3.063   5.703  0.6178 -0.2112 -0.0918
16897TIP3    H172106   2.597   3.143   5.658 -2.8694 -0.7971  0.6404
16897TIP3    H272107   2.620   2.995   5.635 -0.1690 -0.3426  0.0727
16898TIP3   OH272108   5.821   4.815  16.154  0.5710 -0.2935 -0.0782
16898TIP3    H172109   5.754   4.852  16.096  1.7309  0.7539 -0.7995
16898TIP3    H272110   5.778   4.810  16.240 -0.3350  0.6649 -0.4545
16899TIP3   OH272111   1.254   3.055   4.314 -0.7439 -0.2364 -0.0134
16899TIP3    H172112   1.218   2.972   4.344 -0.9020 -0.0966  0.1871
16899TIP3    H272113   1.300   3.090   4.390  2.4175 -1.8020 -1.0473
16900TIP3   OH272114   3.329   0.057   0.548  1.1745 -0.0154  0.0593
16900TIP3    H172115   3.308  -0.028   0.508  1.4681  1.0184 -2.5012
16900TIP3    H272116   3.396   0.095   0.491  1.3324  1.7771  1.3435
16901TIP3   OH272117   6.285   5.993   3.218  0.8854 -0.0528  0.2473
16901TIP3    H172118   6.216   6.055   3.193  0.9367  0.3081  0.9672
16901TIP3    H272119   6.365   6.044   3.214  0.6189  1.0044  4.1097
16902TIP3   OH272120   6.534   5.316   2.215 -0.6103 -0.1141 -0.6596
16902TIP3    H172121   6.503   5.295   2.303 -1.2417 -0.1188 -0.8811
16902TIP3    H272122   6.456   5.344   2.168 -0.1599  0.6091 -1.0080
16903TIP3   OH272123   0.104   4.593  12.705 -0.2823 -0.2533 -0.1893
16903TIP3    H172124   0.191   4.583  12.744 -0.4243  0.0243  0.2046
16903TIP3    H272125   0.048   4.536  12.757 -0.5525  0.4263  0.2878
16904TIP3   OH272126   1.575   3.218  11.477  0.4007  0.7612 -0.6840
16904TIP3    H172127   1.537   3.268  11.549 -0.3591 -2.0683  1.0727
16904TIP3    H272128   1.504   3.161  11.448  2.0414 -1.7741 -0.1090
16905TIP3   OH272129   0.046   0.317   3.319 -0.1300 -0.0152 -0.4584
16905TIP3    H172130   0.136   0.296   3.293 -0.1325  0.7035 -1.0861
16905TIP3    H272131   0.051   0.331   3.413  0.3304 -0.4049 -0.4155
16906TIP3   OH272132   0.404   2.262  17.308  0.2565  0.3050  0.6562
16906TIP3    H172133   0.461   2.338  17.310  0.4887  0.1995 -0.8390
16906TIP3    H272134   0.379   2.248  17.399  1.5324  1.1621  1.1615
16907TIP3   OH272135   2.710   3.713  14.246 -0.3143 -0.5362 -0.5035
16907TIP3    H172136   2.732   3.774  14.316  2.2841 -2.3005  0.3557
16907TIP3    H272137   2.738   3.757  14.166 -1.0374  0.4979 -0.2012
16908TIP3   OH272138   0.879   1.122   3.741 -0.7095 -0.0870 -0.1738
16908TIP3    H172139   0.797   1.086   3.777 -0.2224 -0.5773  0.4695
16908TIP3    H272140   0.866   1.217   3.744 -1.3206 -0.1643 -0.2300
16909TIP3   OH272141   2.322   4.127   0.586  0.2787 -0.6332 -0.2506
16909TIP3    H172142   2.266   4.127   0.664 -0.6426 -0.5029 -0.9004
16909TIP3    H272143   2.368   4.044   0.590 -0.6318 -1.1491 -0.1781
16910TIP3   OH272144   5.291   3.212   0.960  0.1411 -0.1302  0.5760
16910TIP3    H172145   5.300   3.131   1.010 -1.1918  0.1789  1.3657
16910TIP3    H272146   5.324   3.280   1.019  1.3166 -0.0869 -0.1072
16911TIP3   OH272147   3.050   1.609  14.321 -0.2494  0.0166  0.3689
16911TIP3    H172148   3.047   1.701  14.348  0.7115  0.1032  0.2180
16911TIP3    H272149   3.042   1.612  14.226 -1.6464 -0.1612  0.4608
16912TIP3   OH272150   3.209   4.884   2.798 -0.8810 -0.5508  0.3383
16912TIP3    H172151   3.228   4.871   2.705 -0.2277 -2.7482  0.7134
16912TIP3    H272152   3.275   4.832   2.843 -1.3214  0.3006  2.0445
16913TIP3   OH272153   5.495   2.226  13.424  0.4364 -0.0395 -0.1799
16913TIP3    H172154   5.512   2.316  13.450 -1.0896 -0.2952  1.9929
16913TIP3    H272155   5.572   2.200  13.375  1.6721  1.9019  0.6126
16914TIP3   OH272156   6.595   4.827  15.734 -0.0990  0.1978 -1.0308
16914TIP3    H172157   6.505   4.857  15.728 -0.4046 -0.7636 -1.3982
16914TIP3    H272158   6.588   4.737  15.763  0.8516  0.8181  1.3694
16915TIP3   OH272159   2.304   0.083   0.919 -0.4169  0.0007  0.4521
16915TIP3    H172160   2.346  -0.002   0.907 -1.9644 -0.5026 -2.0854
16915TIP3    H272161   2.368   0.146   0.884 -0.4031 -0.4080 -0.2745
16916TIP3   OH272162   3.627   1.248  15.984 -0.5937  0.0450 -0.0674
16916TIP3    H172163   3.646   1.165  15.940 -1.1612  0.5936 -1.3991
16916TIP3    H272164   3.576   1.298  15.920 -1.3813  0.9156  1.1889
16917TIP3   OH272165   6.611   2.092  15.159  0.2458  0.0892  0.1382
16917TIP3    H172166   6.600   2.166  15.218  1.4125  0.8993 -0.6054
16917TIP3    H272167   6.569   2.121  15.077  0.3764 -0.2142 -0.0360
16918TIP3   OH272168   0.466   0.337  12.534  0.1674  0.2785  0.3633
16918TIP3    H172169   0.415   0.284  12.473 -3.1815  1.5367  1.8085
16918TIP3    H272170   0.446   0.301  12.620 -0.3820  2.4111  1.1975
16919TIP3   OH272171   2.996   3.247  16.042  0.2121 -0.0643 -0.2755
16919TIP3    H172172   3.089   3.227  16.042 -0.0313 -1.2474 -0.6437
16919TIP3    H272173   2.966   3.219  16.129  0.4060  1.4372  0.3120
16920TIP3   OH272174   5.254   6.563  11.485  0.1518  0.5862 -0.4157
16920TIP3    H172175   5.179   6.616  11.459 -0.5016 -0.9523 -1.9024
16920TIP3    H272176   5.300   6.546  11.403  1.6708  0.8115  0.3677
16921TIP3   OH272177   3.286   1.750  14.117  0.1550  0.2381 -0.3010
16921TIP3    H172178   3.207   1.699  14.098  0.0981  0.1001  0.2838
16921TIP3    H272179   3.275   1.832  14.068 -0.5591  0.4063  0.1319
16922TIP3   OH272180   6.599   5.782   0.895 -0.1061 -0.2796  0.0265
16922TIP3    H172181   6.643   5.715   0.843  1.1845  0.7202 -0.2245
16922TIP3    H272182   6.510   5.749   0.907 -0.3622 -0.6951 -2.5544
16923TIP3   OH272183   3.532   3.966  10.329  0.3022  0.9406  0.3671
16923TIP3    H172184   3.588   3.900  10.287 -1.9010 -0.4965 -0.4861
16923TIP3    H272185   3.545   3.951  10.423 -0.5352 -1.1523  0.2036
16924TIP3   OH272186   4.548   4.203   0.555 -0.3371 -0.9336  0.1615
16924TIP3    H172187   4.556   4.122   0.606  0.4645 -0.3366  1.0280
16924TIP3    H272188   4.479   4.185   0.492  0.7463 -2.7712 -0.5862
16925TIP3   OH272189   5.796   4.079  15.353 -0.3831  0.1927  0.2187
16925TIP3    H172190   5.736   4.056  15.425  1.2455  2.3590  2.4175
16925TIP3    H272191   5.795   4.002  15.296 -1.5514 -1.7704  2.6898
16926TIP3   OH272192   0.691   2.835   0.721  0.2321 -0.1312 -0.2799
16926TIP3    H172193   0.741   2.834   0.802 -3.0173 -0.0200  1.8742
16926TIP3    H272194   0.635   2.758   0.726 -1.3198  0.8511 -1.5604
16927TIP3   OH272195   4.390   1.935  13.397 -0.0189 -0.7666  0.0131
16927TIP3    H172196   4.374   1.842  13.413  0.4723 -1.0642 -1.1701
16927TIP3    H272197   4.331   1.980  13.459  0.0765 -1.8468  0.9185
16928TIP3   OH272198   0.592   2.783  14.730  0.1730  0.4615  0.0830
16928TIP3    H172199   0.680   2.790  14.768  1.0957 -0.7664 -1.7042
16928TIP3    H272200   0.551   2.867  14.751  2.0552  1.3889  0.3141
16929TIP3   OH272201   1.051   2.866  16.301  0.4378 -0.4436  0.0457
16929TIP3    H172202   1.101   2.919  16.239  0.8625  2.1795  2.4150
16929TIP3    H272203   1.094   2.780  16.299  2.9652  0.7288 -0.4218
16930TIP3   OH272204   1.764   1.823  11.315  0.2971  0.0752 -0.3842
16930TIP3    H172205   1.834   1.816  11.379 -1.2626 -1.8732  1.2687
16930TIP3    H272206   1.711   1.897  11.345 -1.5315 -1.9768  1.9681
16931TIP3   OH272207   1.174   6.375   3.649  0.3713 -0.2609 -0.1400
16931TIP3    H172208   1.264   6.395   3.675  0.4811  0.5130 -1.0666
16931TIP3    H272209   1.121   6.405   3.723  0.8223 -0.0403  0.1003
16932TIP3   OH272210   2.010   0.611  12.399 -0.3723 -0.0650 -0.2260
16932TIP3    H172211   1.988   0.687  12.453  1.0479  0.5566 -0.4513
16932TIP3    H272212   2.105   0.620  12.385 -0.3774 -1.3048 -1.1478
16933TIP3   OH272213   6.708   0.799   5.000 -0.5440  0.2334  0.0729
16933TIP3    H172214   6.677   0.741   4.931 -0.9023  1.6691 -1.0144
16933TIP3    H272215   6.804   0.799   4.990 -0.6617  1.7578 -1.6058
16934TIP3   OH272216   1.456   4.868  16.896  0.6197 -0.3797 -0.4074
16934TIP3    H172217   1.429   4.783  16.930 -0.0326  0.4216  1.1779
16934TIP3    H272218   1.455   4.926  16.972  0.3222  1.2308 -1.5819
16935TIP3   OH272219   2.156   5.250  15.095  0.0242  0.5097  0.3244
16935TIP3    H172220   2.159   5.200  15.177  0.4719  1.7764  1.1079
16935TIP3    H272221   2.124   5.337  15.121  1.1736  1.2532 -0.6695
16936TIP3   OH272222   5.276   3.481   2.864  0.6049  0.0104 -0.1366
16936TIP3    H172223   5.328   3.523   2.932 -0.8071  0.4671  0.7147
16936TIP3    H272224   5.301   3.389   2.867 -0.3763 -0.2359  1.9588
16937TIP3   OH272225   4.059   4.287  17.066  0.6026 -0.1573 -0.6197
16937TIP3    H172226   4.084   4.202  17.102  0.5329  0.1435  0.1656
16937TIP3    H272227   3.963   4.281  17.058  0.6658 -0.3958 -1.2097
16938TIP3   OH272228   5.152   4.413  15.500 -0.5987 -0.0994 -0.4241
16938TIP3    H172229   5.087   4.458  15.446 -0.1058  1.3405  0.1516
16938TIP3    H272230   5.140   4.449  15.588 -0.0093 -0.9010 -0.0043
16939TIP3   OH272231   3.665   6.282  15.341  0.1256 -0.2273  0.8295
16939TIP3    H172232   3.622   6.347  15.284  1.5103 -0.9951 -1.2354
16939TIP3    H272233   3.681   6.329  15.423  0.2587  1.7924 -0.2697
16940TIP3   OH272234   5.981   1.177  14.916  0.2201 -0.1681  0.0600
16940TIP3    H172235   6.047   1.207  14.854  0.4958 -2.0812 -0.6247
16940TIP3    H272236   6.002   1.224  14.998  1.1420  0.7853 -0.6904
16941TIP3   OH272237   5.282   5.882   2.366  0.3623  0.3471  0.4168
16941TIP3    H172238   5.223   5.889   2.441  1.7254 -0.4236  1.6214
16941TIP3    H272239   5.353   5.827   2.397  1.5193  0.9057 -1.1150
16942TIP3   OH272240   4.779   3.269   1.174  0.7391  0.0710  0.2662
16942TIP3    H172241   4.715   3.239   1.110  2.0697  0.2630 -1.1959
16942TIP3    H272242   4.861   3.229   1.147  1.7981  1.9663  0.5199
16943TIP3   OH272243   1.463   4.073   3.569  1.1998 -0.3156 -0.1250
16943TIP3    H172244   1.553   4.044   3.580  0.9474 -1.5430 -1.1092
16943TIP3    H272245   1.446   4.066   3.475 -0.3506 -1.4707  0.1942
16944TIP3   OH272246   4.243   6.339   3.498  0.3289  0.0738  0.3742
16944TIP3    H172247   4.161   6.386   3.485  0.6556  0.7531  0.7443
16944TIP3    H272248   4.280   6.332   3.410 -0.5338 -1.0193  0.0712
16945TIP3   OH272249   5.051   3.338   2.354  1.5580 -0.0562  0.4060
16945TIP3    H172250   5.072   3.404   2.288 -1.6334  0.2208 -0.5219
16945TIP3    H272251   5.110   3.265   2.335  2.0232  0.7583 -1.5253
16946TIP3   OH272252   5.111   5.979  12.780  0.4215 -0.3267  0.8127
16946TIP3    H172253   5.070   6.041  12.840  3.5147  0.1324  2.6964
16946TIP3    H272254   5.099   5.893  12.822  1.1793 -0.2047  1.3092
16947TIP3   OH272255   3.660   2.474   4.901  0.0437 -0.2897  0.2358
16947TIP3    H172256   3.721   2.402   4.886 -0.6949 -0.9097  0.1615
16947TIP3    H272257   3.639   2.506   4.813 -0.2908 -0.5505  0.2182
16948TIP3   OH272258   4.794   4.995   4.650  0.1382  0.2702  0.2481
16948TIP3    H172259   4.883   5.028   4.650 -0.5205  2.2326 -0.8469
16948TIP3    H272260   4.769   4.991   4.742  0.7684  1.5325  0.5005
16949TIP3   OH272261   5.911   5.890   2.019  0.5811 -0.0705  0.0756
16949TIP3    H172262   5.969   5.918   1.948  0.6575 -0.8914 -0.1970
16949TIP3    H272263   5.959   5.909   2.099  1.1649 -0.5778 -0.1458
16950TIP3   OH272264   2.967   2.403  17.032  0.1250 -0.4133  0.1266
16950TIP3    H172265   2.888   2.358  17.000 -0.2384  1.7499 -2.3927
16950TIP3    H272266   2.934   2.464  17.099  0.0146 -0.9634  0.5846
16951TIP3   OH272267   1.072   2.501   3.427  0.1852  0.6967 -0.2160
16951TIP3    H172268   1.001   2.494   3.364 -0.6664  0.9302  0.7083
16951TIP3    H272269   1.149   2.524   3.373 -0.5753  1.1599 -1.1301
16952TIP3   OH272270   3.092   3.671   1.835  0.7392 -0.3575  0.5757
16952TIP3    H172271   3.171   3.710   1.871 -0.0628  0.4056  1.5795
16952TIP3    H272272   3.080   3.714   1.750  1.1633 -0.1661  0.6106
16953TIP3   OH272273   4.062   5.852   1.495 -0.4235  0.3919  0.3679
16953TIP3    H172274   4.023   5.857   1.408 -0.8321 -0.7115  0.4633
16953TIP3    H272275   4.137   5.793   1.483  0.0266  0.9211  0.5883
16954TIP3   OH272276   3.431   5.396   3.647 -0.1583 -0.0738 -0.4989
16954TIP3    H172277   3.425   5.339   3.571  1.0305 -1.3207  0.2831
16954TIP3    H272278   3.487   5.469   3.619  0.1137 -0.4214 -0.8618
16955TIP3   OH272279   2.460   1.586  16.520  0.4889  0.6247  0.4534
16955TIP3    H172280   2.381   1.630  16.551  0.8574  2.1286 -0.6051
16955TIP3    H272281   2.462   1.604  16.426  1.7727  0.1176  0.3651
16956TIP3   OH272282   6.396   1.487   1.730 -0.4843 -0.0004  0.3301
16956TIP3    H172283   6.351   1.562   1.691  0.1450 -0.2793 -1.0083
16956TIP3    H272284   6.465   1.465   1.667  0.4272 -0.6447  1.5120
16957TIP3   OH272285   6.642   0.173   5.339  0.2807 -0.0168 -0.1109
16957TIP3    H172286   6.673   0.229   5.410  0.9230 -1.1504  0.5456
16957TIP3    H272287   6.664   0.084   5.368 -2.3688 -0.7950 -0.2600
16958TIP3   OH272288   4.760   2.890  12.579  0.0280 -0.5097 -0.2086
16958TIP3    H172289   4.855   2.880  12.568  0.0321 -1.4613  0.6347
16958TIP3    H272290   4.732   2.810  12.622 -1.4603 -1.0908 -2.0981
16959TIP3   OH272291   2.318   3.201  11.177 -0.2836 -0.5418 -0.2803
16959TIP3    H172292   2.295   3.161  11.094 -0.5200  1.7332 -1.3990
16959TIP3    H272293   2.380   3.271  11.154 -1.2475  0.9138  1.2526
16960TIP3   OH272294   4.379   4.789  14.988 -0.5114 -0.1589 -0.6880
16960TIP3    H172295   4.474   4.794  14.995 -0.4148 -0.6487 -1.4656
16960TIP3    H272296   4.352   4.732  15.060 -0.2710  0.3881 -0.1611
16961TIP3   OH272297   1.101   0.391   5.764  0.0572 -0.5822  0.5488
16961TIP3    H172298   1.027   0.416   5.708  0.1431 -0.5669  0.4434
16961TIP3    H272299   1.097   0.453   5.836  0.8101  0.3253 -0.1677
16962TIP3   OH272300   1.442   1.898   4.787  0.1634  0.0456  0.0790
16962TIP3    H172301   1.522   1.881   4.836  1.5733  0.4633 -1.9632
16962TIP3    H272302   1.412   1.811   4.761 -0.8951 -0.2253  2.0222
16963TIP3   OH272303   5.012   5.616   0.893 -0.1085 -0.4634 -0.2736
16963TIP3    H172304   5.033   5.566   0.814  0.5195 -0.7664  0.0833
16963TIP3    H272305   5.041   5.705   0.874 -0.1336 -0.4929 -0.4538
16964TIP3   OH272306   6.332   2.386   2.653 -0.0074  0.0681  0.7636
16964TIP3    H172307   6.328   2.419   2.563  1.6821  0.3775  0.7649
16964TIP3    H272308   6.374   2.300   2.645 -3.7724 -1.9862  0.8366
16965TIP3   OH272309   5.040   5.595  12.293  1.0002 -0.0534 -0.0960
16965TIP3    H172310   5.016   5.580  12.385 -1.4537 -2.3038 -0.9745
16965TIP3    H272311   4.957   5.616  12.250  1.9628  0.0857 -1.9589
16966TIP3   OH272312   1.180   3.618   0.189 -0.1492  0.4459 -0.5515
16966TIP3    H172313   1.218   3.683   0.248  2.3892  1.4751 -3.0894
16966TIP3    H272314   1.215   3.534   0.219  0.3234  0.8174 -0.0585
16967TIP3   OH272315   2.781   1.435  14.781 -0.6183  0.0825  0.7405
16967TIP3    H172316   2.804   1.527  14.788  0.4359 -0.1884  0.9915
16967TIP3    H272317   2.750   1.411  14.868 -3.0807  0.7303  0.1275
16968TIP3   OH272318   2.649   0.729   3.222  0.0078 -0.3740  0.0020
16968TIP3    H172319   2.651   0.671   3.298  0.8139  0.4901  0.6671
16968TIP3    H272320   2.719   0.697   3.166 -0.2503 -0.6975 -0.1381
16969TIP3   OH272321   6.197   2.737  15.546 -0.3281 -0.1393  0.4258
16969TIP3    H172322   6.183   2.698  15.633  2.1479  1.8042  1.8084
16969TIP3    H272323   6.141   2.815  15.546  2.4423  2.0141  1.9461
16970TIP3   OH272324   2.273   6.387  16.146 -0.0125 -0.0955  0.1068
16970TIP3    H172325   2.366   6.407  16.132 -0.5974  0.3192 -5.1103
16970TIP3    H272326   2.231   6.472  16.156  0.0598 -0.3027  3.1034
16971TIP3   OH272327   2.411   3.689  15.998  0.9639  0.2821 -0.4604
16971TIP3    H172328   2.431   3.602  15.963  0.6007  0.8638 -2.2697
16971TIP3    H272329   2.481   3.744  15.965  0.4636  0.9204 -0.4806
16972TIP3   OH272330   1.483   0.281  16.223 -0.2575 -0.4438  0.0443
16972TIP3    H172331   1.424   0.323  16.285 -1.3991 -1.9054 -0.0182
16972TIP3    H272332   1.570   0.311  16.249 -0.7328 -0.8152  2.1849
16973TIP3   OH272333   1.285   5.549   0.849  0.1936 -0.2039 -0.3000
16973TIP3    H172334   1.348   5.478   0.835  0.4830 -0.6403  2.6363
16973TIP3    H272335   1.205   5.505   0.879 -0.0880  0.6313  0.2087
16974TIP3   OH272336   1.839   1.179   6.169 -0.1358 -0.2289  0.3568
16974TIP3    H172337   1.849   1.273   6.184 -0.9659  0.0392 -0.6480
16974TIP3    H272338   1.848   1.140   6.256 -0.7929  0.8710  0.9406
16975TIP3   OH272339   2.500   0.217  11.603  0.0018 -0.4212  0.1132
16975TIP3    H172340   2.451   0.180  11.531 -2.8639  0.5045  1.4506
16975TIP3    H272341   2.530   0.141  11.654  0.1857 -1.0125 -0.8627
16976TIP3   OH272342   2.489   1.236   0.841  0.3152 -0.2736  0.1817
16976TIP3    H172343   2.495   1.195   0.754  2.0480  0.2283  0.0145
16976TIP3    H272344   2.532   1.173   0.900 -1.5181 -0.9556  0.8448
16977TIP3   OH272345   2.399   4.478   0.142  0.5167 -0.3467 -0.3474
16977TIP3    H172346   2.325   4.525   0.181 -0.0184 -1.7664  0.4502
16977TIP3    H272347   2.463   4.471   0.214  0.9367 -0.1491 -0.6957
16978TIP3   OH272348   5.227   0.155  14.938  0.2810  0.7837 -0.3809
16978TIP3    H172349   5.289   0.122  14.873 -2.2832 -0.2171 -2.5037
16978TIP3    H272350   5.170   0.080  14.956 -0.5329  1.7340  1.2189
16979TIP3   OH272351   0.122   1.476   3.714  0.6590  0.1628 -0.3341
16979TIP3    H172352   0.127   1.435   3.628  0.6981  0.7659 -0.6255
16979TIP3    H272353   0.104   1.404   3.774 -0.8831 -0.0846 -1.0304
16980TIP3   OH272354   3.626   6.085  13.984 -0.4404 -0.3343  0.0294
16980TIP3    H172355   3.663   6.164  13.945  1.6339 -0.4518  1.5679
16980TIP3    H272356   3.665   6.013  13.935 -0.5730 -0.4310  0.0642
16981TIP3   OH272357   5.969   1.184  16.972 -0.3266 -0.1778 -0.3351
16981TIP3    H172358   6.043   1.223  17.019  0.0148 -0.0504 -0.9703
16981TIP3    H272359   5.896   1.191  17.033  0.0340  0.2959  0.0499
16982TIP3   OH272360   3.027   5.528  14.935  0.5712  0.2877  0.0083
16982TIP3    H172361   3.120   5.544  14.952  0.5738  0.3480 -0.0629
16982TIP3    H272362   2.988   5.615  14.932  0.3787  0.2380  0.7704
16983TIP3   OH272363   3.582   4.061   2.675  0.1062 -0.2391 -0.2209
16983TIP3    H172364   3.603   4.121   2.604  1.8620 -1.0045 -0.4022
16983TIP3    H272365   3.571   3.976   2.633 -2.0147 -0.1700  0.0769
16984TIP3   OH272366   6.773   4.900   0.644 -0.3128 -0.3974 -0.0855
16984TIP3    H172367   6.714   4.965   0.681 -0.1589 -0.5914  0.5113
16984TIP3    H272368   6.817   4.945   0.572  0.3330  0.3981  0.7893
16985TIP3   OH272369   2.485   5.580   2.840 -0.1211 -0.0369 -0.1163
16985TIP3    H172370   2.507   5.543   2.754 -0.9282 -0.5641 -0.1029
16985TIP3    H272371   2.558   5.553   2.896 -0.4728 -1.2614 -0.2143
16986TIP3   OH272372   3.988   5.999  14.883 -0.8619 -0.0046  0.9529
16986TIP3    H172373   4.060   6.053  14.851 -0.5275 -2.2247 -2.6057
16986TIP3    H272374   4.027   5.945  14.951  0.5925 -0.3726 -0.1171
16987TIP3   OH272375   2.759   2.992  13.178 -0.2521  0.1546  0.2451
16987TIP3    H172376   2.763   3.035  13.263 -2.1455  2.3051 -0.6553
16987TIP3    H272377   2.754   3.063  13.115  0.3810 -1.3804 -1.6659
16988TIP3   OH272378   6.331   2.245   1.676 -0.0485 -0.0135  0.1991
16988TIP3    H172379   6.410   2.300   1.667  0.6849 -1.0737 -0.0422
16988TIP3    H272380   6.276   2.270   1.601  1.9459 -2.2171 -2.2276
16989TIP3   OH272381   0.016   0.010   4.457 -0.2387 -0.2867  1.0891
16989TIP3    H172382  -0.078   0.002   4.440 -0.2533 -0.8187  1.3995
16989TIP3    H272383   0.048  -0.081   4.457  0.5218 -0.0512 -0.3995
16990TIP3   OH272384   0.057   1.302   3.939 -0.8008 -0.1987  0.5617
16990TIP3    H172385  -0.002   1.260   3.876 -0.2931 -0.0926  0.0193
16990TIP3    H272386   0.136   1.248   3.939 -0.6815 -0.0305  0.8923
16991TIP3   OH272387   0.722   2.059   2.062  0.2810  0.3413 -0.0595
16991TIP3    H172388   0.699   1.971   2.093 -0.2038  0.7452  0.7275
16991TIP3    H272389   0.797   2.044   2.004  0.2561 -0.5837  0.1309
16992TIP3   OH272390   1.831   0.755  12.568 -0.0993 -0.0253 -0.1659
16992TIP3    H172391   1.769   0.782  12.500 -1.5868 -1.3922  0.5779
16992TIP3    H272392   1.833   0.828  12.630 -2.3100 -0.5670  0.6544
16993TIP3   OH272393   3.958   3.294  13.057 -0.2595 -0.1527 -0.0423
16993TIP3    H172394   3.951   3.241  13.136  1.5955 -0.5100 -0.0603
16993TIP3    H272395   3.959   3.384  13.089  0.6739 -0.3010  0.3804
16994TIP3   OH272396   6.713   3.013   1.991  0.4674 -0.2603 -0.0759
16994TIP3    H172397   6.644   3.028   2.056 -0.8896 -1.4706 -1.1773
16994TIP3    H272398   6.738   2.921   2.004 -1.0541 -1.0842 -2.2999
16995TIP3   OH272399   3.205   2.392  13.939 -0.1094 -0.4251 -0.1508
16995TIP3    H172400   3.254   2.454  13.885  1.2460  0.7937  2.3208
16995TIP3    H272401   3.266   2.320  13.954  0.2524  0.1529  1.2852
16996TIP3   OH272402   2.455   5.974  15.349  0.4473  0.2907  0.5201
16996TIP3    H172403   2.536   6.020  15.325  0.0528 -0.3945 -2.5243
16996TIP3    H272404   2.482   5.884  15.366  0.3776  0.0864 -0.3934
16997TIP3   OH272405   0.678   3.277  14.290  0.0500 -0.2155 -0.2233
16997TIP3    H172406   0.670   3.294  14.384 -0.1969  0.7048 -0.3933
16997TIP3    H272407   0.589   3.280  14.257  0.0506 -1.3779 -0.3685
16998TIP3   OH272408   3.134   6.352  13.451  0.1168 -0.3626 -0.1746
16998TIP3    H172409   3.042   6.377  13.461 -0.1258 -1.3220  0.1295
16998TIP3    H272410   3.131   6.258  13.435  1.0965 -0.5685  0.7632
16999TIP3   OH272411   2.358   4.973   4.642  0.2124 -0.0643  0.6049
16999TIP3    H172412   2.436   4.919   4.654 -0.0481 -0.3456  1.0384
16999TIP3    H272413   2.353   5.025   4.722  0.5388  0.7165  0.1408
17000TIP3   OH272414   2.767   1.775  15.655 -0.0125 -0.3927  0.3077
17000TIP3    H172415   2.722   1.851  15.691 -1.1335 -0.4710 -0.8518
17000TIP3    H272416   2.824   1.745  15.726 -2.5571 -0.9370  2.2519
17001TIP3   OH272417   5.976   3.693  15.949 -0.7243  0.0140 -0.2991
17001TIP3    H172418   5.907   3.720  16.010 -0.1102 -0.7102  0.7499
17001TIP3    H272419   6.041   3.763  15.955  0.0489 -0.7875  1.0790
17002TIP3   OH272420   2.506   5.860   3.657  0.0114 -0.5137 -0.2311
17002TIP3    H172421   2.567   5.795   3.692  0.7299 -0.5549 -1.5126
17002TIP3    H272422   2.473   5.822   3.576 -0.0545  0.4367 -0.6656
17003TIP3   OH272423   3.798   6.622   4.593  0.7014 -0.0185 -0.5803
17003TIP3    H172424   3.738   6.637   4.519 -0.0361 -0.6640 -0.1361
17003TIP3    H272425   3.747   6.646   4.670  0.7938 -1.1505 -0.1472
17004TIP3   OH272426   4.408   4.263   1.430  0.2028  0.3018  0.4270
17004TIP3    H172427   4.456   4.244   1.349 -1.2573  0.7662 -0.5898
17004TIP3    H272428   4.377   4.353   1.419 -1.2486 -0.1205  0.8340
17005TIP3   OH272429   6.485   3.913  10.733  0.4240 -0.6949 -0.3364
17005TIP3    H172430   6.545   3.850  10.773  1.9092  0.5688 -0.5145
17005TIP3    H272431   6.507   3.912  10.639 -0.1711 -0.5744 -0.4845
17006TIP3   OH272432   5.412   3.194  13.158  0.7055 -0.2887 -0.2204
17006TIP3    H172433   5.324   3.228  13.170  0.5780 -0.6111 -0.2556
17006TIP3    H272434   5.434   3.153  13.241  0.5236 -0.8965 -0.4696
17007TIP3   OH272435   5.382   4.788   1.051  0.1111 -0.1259 -0.5068
17007TIP3    H172436   5.437   4.850   1.098 -0.0464 -0.8660  0.7101
17007TIP3    H272437   5.366   4.828   0.966  0.7703  1.0607 -0.0836
17008TIP3   OH272438   1.029   0.154  13.272 -0.3749 -0.0151  0.1330
17008TIP3    H172439   0.994   0.165  13.361  0.6963  0.8258  0.4628
17008TIP3    H272440   1.120   0.181  13.278 -0.1444 -0.4437 -1.1234
17009TIP3   OH272441   1.905   4.945  12.875 -0.0563  0.2542 -0.6123
17009TIP3    H172442   1.870   4.925  12.962 -0.3854 -2.0819 -1.2191
17009TIP3    H272443   1.916   4.860  12.834  1.1897  1.2506 -2.4649
17010TIP3   OH272444   3.390   5.449  16.097  0.1674 -0.2137 -0.4865
17010TIP3    H172445   3.367   5.540  16.077  3.1994  1.1376  1.5244
17010TIP3    H272446   3.481   5.440  16.071  1.0445 -1.5309  2.5618
17011TIP3   OH272447   4.671   0.286  16.712  0.3430 -0.7150  0.4680
17011TIP3    H172448   4.627   0.370  16.719  0.8442 -0.4405  0.4029
17011TIP3    H272449   4.623   0.238  16.645 -0.5494 -0.8673  1.2056
17012TIP3   OH272450   0.508   5.297  16.692  0.3157 -0.0828 -0.0602
17012TIP3    H172451   0.527   5.335  16.606  1.5178 -2.3702 -0.8890
17012TIP3    H272452   0.413   5.280  16.689  0.2465  0.3533 -0.7126
17013TIP3   OH272453   6.675   5.627  14.114  0.2546 -0.2718 -0.2491
17013TIP3    H172454   6.630   5.558  14.162 -0.5917 -0.1311 -0.8196
17013TIP3    H272455   6.727   5.672  14.180  0.0864 -0.8643  0.2984
17014TIP3   OH272456   4.156   3.187   1.448  0.1273 -0.1105  0.5413
17014TIP3    H172457   4.126   3.135   1.523 -0.0598  0.5434  0.9234
17014TIP3    H272458   4.108   3.269   1.456 -1.0311 -0.5799 -1.1233
17015TIP3   OH272459   4.255   4.238  12.508 -0.6694 -0.1029  0.5150
17015TIP3    H172460   4.302   4.162  12.541  0.5351  0.2740 -0.2719
17015TIP3    H272461   4.210   4.275  12.585  1.1744  0.1411  1.5202
17016TIP3   OH272462   2.026   4.709  15.913  0.8308  0.1269  0.5200
17016TIP3    H172463   2.113   4.687  15.879  0.2983 -1.9795  0.3610
17016TIP3    H272464   1.967   4.699  15.838  0.0912 -1.2996  1.2406
17017TIP3   OH272465   3.539   4.990  15.643 -0.5591  0.2512  0.1747
17017TIP3    H172466   3.623   4.953  15.618 -1.0996 -0.7132 -0.2647
17017TIP3    H272467   3.488   4.989  15.562 -1.2936 -0.0118  0.6342
17018TIP3   OH272468   2.266   1.434   3.402 -0.5862  0.2635  0.0488
17018TIP3    H172469   2.230   1.514   3.441 -1.4260 -0.5223  0.9244
17018TIP3    H272470   2.352   1.425   3.443  0.4263  1.8093 -1.5887
17019TIP3   OH272471   6.229   4.362  13.105 -0.1840 -0.8806 -0.6356
17019TIP3    H172472   6.189   4.289  13.059 -3.4482  0.7450 -0.6924
17019TIP3    H272473   6.219   4.436  13.045  0.4948  0.1831  0.5140
17020TIP3   OH272474   1.024   2.192   6.522 -0.2166  0.0676  0.3243
17020TIP3    H172475   0.937   2.152   6.518 -1.1048  1.7772  1.5680
17020TIP3    H272476   1.010   2.281   6.491  1.5708 -0.2564 -1.6370
17021TIP3   OH272477   5.688   3.161   2.171 -0.3600  0.2098 -0.5374
17021TIP3    H172478   5.768   3.211   2.187 -1.2695  1.4483  0.3529
17021TIP3    H272479   5.678   3.107   2.250 -0.0062 -0.5196 -0.9847
17022TIP3   OH272480   3.571   1.592  11.410 -0.0468 -0.0625 -0.4909
17022TIP3    H172481   3.615   1.601  11.494 -0.4474  0.4163 -0.3268
17022TIP3    H272482   3.633   1.629  11.347  0.3537 -0.6391 -0.4457
17023TIP3   OH272483   6.723   5.327  11.540  0.2414  0.6774  0.8780
17023TIP3    H172484   6.696   5.350  11.451 -0.2425  0.4192  0.9566
17023TIP3    H272485   6.817   5.344  11.541 -0.0844  2.7867  0.9686
17024TIP3   OH272486   3.222   5.548   3.717  0.3440 -0.2474  0.2071
17024TIP3    H172487   3.287   5.493   3.674  0.2422 -1.1474  1.1529
17024TIP3    H272488   3.268   5.587   3.792  0.4383  1.0526 -0.4952
17025TIP3   OH272489   4.044   5.807  17.056 -0.9249  0.2821  0.2773
17025TIP3    H172490   4.084   5.777  17.137 -0.9030 -0.0608  0.1422
17025TIP3    H272491   3.956   5.835  17.082 -0.8523  0.3493  0.4514
17026TIP3   OH272492   3.719   3.737   6.217  0.4953 -0.3712  0.0532
17026TIP3    H172493   3.645   3.741   6.278 -0.8422 -2.4634 -1.3165
17026TIP3    H272494   3.795   3.760   6.270 -0.9682  0.7230  1.7940
17027TIP3   OH272495   2.530   5.363  13.660 -0.0336 -0.7312 -0.3372
17027TIP3    H172496   2.438   5.390  13.655  0.2376  0.0082 -3.5742
17027TIP3    H272497   2.530   5.273  13.629  0.3589 -0.6209 -0.6632
17028TIP3   OH272498   0.755   3.845  14.437 -0.5390  0.1639 -0.2557
17028TIP3    H172499   0.678   3.899  14.420  0.3685  1.3652 -0.7186
17028TIP3    H272500   0.792   3.881  14.517  0.0808  0.2405 -0.5716
17029TIP3   OH272501   6.411   3.793  13.004  0.4041  0.6141 -0.4475
17029TIP3    H172502   6.359   3.767  13.080  1.7203  1.4115  0.7841
17029TIP3    H272503   6.495   3.748  13.016  0.2228 -0.2438 -2.1249
17030TIP3   OH272504   5.828   6.235  15.099 -0.1930 -0.2393  0.5354
17030TIP3    H172505   5.866   6.148  15.114  0.1105  0.0055  1.2194
17030TIP3    H272506   5.858   6.259  15.011 -1.4802 -1.4317 -0.2744
17031TIP3   OH272507   2.990   0.805   1.943  0.4670  0.4513 -0.7415
17031TIP3    H172508   3.042   0.885   1.944  0.9512  0.1473  0.8762
17031TIP3    H272509   2.937   0.809   2.023 -0.1466 -0.4422 -1.0773
17032TIP3   OH272510   0.465   3.819   0.200 -0.5917  0.3336  0.0225
17032TIP3    H172511   0.515   3.872   0.138  0.5579 -0.7340 -0.0166
17032TIP3    H272512   0.530   3.793   0.266 -1.0752 -1.1069 -0.0288
17033TIP3   OH272513   4.143   3.471  16.008 -0.1324  0.4958  0.0726
17033TIP3    H172514   4.071   3.408  16.002 -0.0686  0.3025  1.2018
17033TIP3    H272515   4.145   3.497  16.100  0.5560  1.3163 -0.1630
17034TIP3   OH272516   1.190   4.720   0.342 -0.2783  0.0790  0.4062
17034TIP3    H172517   1.253   4.656   0.373 -0.1821  0.7361  1.6109
17034TIP3    H272518   1.114   4.668   0.315  1.7093 -1.0468 -3.9208
17035TIP3   OH272519   0.970   2.420   0.287  0.5295 -0.0582  0.1134
17035TIP3    H172520   0.883   2.424   0.327  0.4942 -0.0908  0.0414
17035TIP3    H272521   1.016   2.497   0.321  0.4381  0.0147  0.0719
17036TIP3   OH272522   2.252   2.310   0.650 -0.0728  0.5477 -0.1419
17036TIP3    H172523   2.271   2.372   0.580  0.1897 -1.0905 -1.5922
17036TIP3    H272524   2.336   2.295   0.693  0.0493  0.4978 -0.3961
17037TIP3   OH272525   2.120   2.970   1.516  0.5194  0.3645  0.2696
17037TIP3    H172526   2.156   3.016   1.591 -0.3400  0.9211  0.3556
17037TIP3    H272527   2.154   3.017   1.440  2.1681 -0.7736  0.2418
17038TIP3   OH272528   3.122   0.295   1.503  0.0472 -0.3043 -0.0560
17038TIP3    H172529   3.139   0.388   1.517  0.5619 -0.1734 -1.4287
17038TIP3    H272530   3.205   0.259   1.472  0.2853 -1.5618  1.8836
17039TIP3   OH272531   5.510   0.801   2.004 -0.6860 -0.3525 -0.6541
17039TIP3    H172532   5.584   0.768   1.955 -1.2448  0.5332 -2.1663
17039TIP3    H272533   5.547   0.833   2.086  0.2797 -1.7629 -0.5039
17040TIP3   OH272534   5.771   4.642  15.808 -0.1077  0.1981 -0.1045
17040TIP3    H172535   5.731   4.663  15.893  1.4073  0.3614  0.6029
17040TIP3    H272536   5.840   4.708  15.797 -1.5107  1.4054 -2.4215
17041TIP3   OH272537   2.923   4.878  10.605 -0.2085 -0.0339  0.0704
17041TIP3    H172538   2.981   4.892  10.531 -0.9006  1.1437 -0.2610
17041TIP3    H272539   2.835   4.891  10.570 -0.5795 -0.0679  0.9602
17042TIP3   OH272540   5.741   5.278  16.018 -0.4302 -0.2959 -0.1370
17042TIP3    H172541   5.660   5.304  16.062  1.2092  1.8199  1.8757
17042TIP3    H272542   5.753   5.186  16.042 -2.0890 -0.5898 -0.3149
17043TIP3   OH272543   4.833   4.448   1.951  0.0009  0.3707  0.4473
17043TIP3    H172544   4.744   4.452   1.987  0.2350  1.1020  0.9784
17043TIP3    H272545   4.870   4.534   1.970  0.9845 -0.0883  0.6586
17044TIP3   OH272546   1.819   2.936   1.312  0.7248  0.0832 -0.6594
17044TIP3    H172547   1.768   2.987   1.375  0.3057 -1.8134  0.6222
17044TIP3    H272548   1.873   3.001   1.267 -0.6779  1.7929 -0.0117
17045TIP3   OH272549   3.693   6.453   2.347 -0.3049  0.7359 -0.1672
17045TIP3    H172550   3.765   6.511   2.323  2.2203 -1.3084  1.8251
17045TIP3    H272551   3.693   6.454   2.443 -2.1066 -0.3254 -0.1171
17046TIP3   OH272552   2.537   0.032  10.776 -0.1210  0.0019  0.0791
17046TIP3    H172553   2.510  -0.059  10.792  0.4212  0.1013  1.7234
17046TIP3    H272554   2.454   0.080  10.768 -0.4611 -0.2491  1.7228
17047TIP3   OH272555   0.617   5.024   3.250  0.8643 -0.2606 -0.1788
17047TIP3    H172556   0.688   5.003   3.311 -0.8120 -1.0635  1.5789
17047TIP3    H272557   0.593   5.115   3.271  3.1776  1.1267 -2.7646
17048TIP3   OH272558   3.053   3.236   4.369 -0.7497 -0.5287  0.3737
17048TIP3    H172559   3.069   3.141   4.366  0.7938 -0.4690  3.1534
17048TIP3    H272560   3.102   3.270   4.294 -0.2364 -1.8240  0.0786
17049TIP3   OH272561   0.942   0.153   6.046  0.0420  0.3502  0.3804
17049TIP3    H172562   0.847   0.153   6.039  0.0816  0.7466 -0.1750
17049TIP3    H272563   0.962   0.080   6.105 -0.4848 -0.9932 -1.0383
17050TIP3   OH272564   1.012   4.037   3.276 -0.4432 -0.0120  0.1261
17050TIP3    H172565   1.059   3.983   3.340 -2.7272 -3.0740 -0.5768
17050TIP3    H272566   1.062   4.026   3.195  0.1602  0.5467  0.4100
17051TIP3   OH272567   4.581   1.795   4.837  0.5463  0.5095  0.1823
17051TIP3    H172568   4.559   1.887   4.819  1.3143  0.5693 -0.5351
17051TIP3    H272569   4.643   1.772   4.768  3.7446  0.7394  2.7299
17052TIP3   OH272570   0.288   0.566  12.384 -0.6065 -0.0227 -0.9679
17052TIP3    H172571   0.225   0.606  12.324  0.8599  1.9232 -1.2782
17052TIP3    H272572   0.367   0.554  12.332  0.5888  1.3782  0.4495
17053TIP3   OH272573   0.088   5.756  15.636  0.0549 -0.3971 -0.2941
17053TIP3    H172574   0.012   5.731  15.689  0.4338 -1.4619 -0.2187
17053TIP3    H272575   0.154   5.781  15.700  0.6990 -2.2149 -0.1882
17054TIP3   OH272576   3.550   2.379  12.245  0.3985  0.5326 -0.6759
17054TIP3    H172577   3.546   2.365  12.151  2.5644  1.3938 -0.9492
17054TIP3    H272578   3.524   2.295  12.283  2.6652 -0.8984 -2.1047
17055TIP3   OH272579   0.090   3.023  13.621  0.4424 -0.5087 -0.2555
17055TIP3    H172580  -0.000   3.026  13.589 -0.3261 -0.6545  1.7451
17055TIP3    H272581   0.107   2.930  13.634 -0.1934 -0.3727  2.0377
17056TIP3   OH272582   4.736   0.534  13.371 -0.2541  0.3594 -0.4664
17056TIP3    H172583   4.712   0.473  13.440 -1.9844  2.7215  1.2073
17056TIP3    H272584   4.802   0.592  13.411 -1.7130  2.1330 -0.4811
17057TIP3   OH272585   3.908   1.471   4.579  0.3238 -0.9345 -0.5321
17057TIP3    H172586   3.969   1.503   4.646 -0.2669 -0.0330 -0.4046
17057TIP3    H272587   3.925   1.377   4.573  0.0036 -1.1448  1.2849
17058TIP3   OH272588   3.927   6.556  11.408 -0.5291  0.3048 -0.7463
17058TIP3    H172589   3.839   6.523  11.426 -1.0788  1.1865 -1.7088
17058TIP3    H272590   3.942   6.537  11.316 -0.5887  2.0498 -1.1480
17059TIP3   OH272591   6.294   1.719   2.582  0.0815  0.2149 -0.9111
17059TIP3    H172592   6.361   1.755   2.640 -0.2464  0.8834 -0.9409
17059TIP3    H272593   6.278   1.631   2.617  0.7456  0.1593 -0.7182
17060TIP3   OH272594   2.055   6.776  15.913  0.2677  0.3900  0.2909
17060TIP3    H172595   2.072   6.753  16.005 -0.5406 -0.9199  0.1407
17060TIP3    H272596   2.042   6.692  15.869  0.2058  1.0208 -0.9406
17061TIP3   OH272597   4.962   6.395   1.668 -0.8471 -0.2141 -0.2657
17061TIP3    H172598   5.013   6.469   1.702  0.0328 -0.5388 -0.8505
17061TIP3    H272599   5.006   6.318   1.703 -0.4628 -0.5237 -1.4050
17062TIP3   OH272600   6.527   4.559  15.829 -0.3760 -0.2951  0.0681
17062TIP3    H172601   6.441   4.537  15.866  0.1833 -1.6893  0.6303
17062TIP3    H272602   6.587   4.553  15.903  0.4176 -0.8504 -0.5986
17063TIP3   OH272603   1.370   1.608  13.215 -0.8144  0.4384 -0.6555
17063TIP3    H172604   1.374   1.530  13.270 -0.0224  1.1755  0.3729
17063TIP3    H272605   1.356   1.680  13.277 -0.9878  1.1784 -1.5313
17064TIP3   OH272606   6.090   4.227  14.123  0.1269  0.2971 -0.5441
17064TIP3    H172607   6.041   4.163  14.072  1.1967 -0.7732 -0.2625
17064TIP3    H272608   6.059   4.312  14.092  1.9921 -0.2113 -4.3516
17065TIP3   OH272609   2.189   1.593  11.643  0.0211 -0.3074 -0.2519
17065TIP3    H172610   2.269   1.639  11.671  0.2751 -1.4571  1.0189
17065TIP3    H272611   2.145   1.570  11.724 -1.6744  0.3611 -0.9462
17066TIP3   OH272612   2.882   0.197   0.298 -0.0392  0.4405 -0.0849
17066TIP3    H172613   2.787   0.204   0.314 -0.1175  1.2980 -0.8319
17066TIP3    H272614   2.914   0.287   0.304  0.8099  0.1003  0.6068
17067TIP3   OH272615   0.679   3.844  12.830  0.4073  0.2219  0.0515
17067TIP3    H172616   0.671   3.762  12.878  1.2583 -0.2076 -0.5085
17067TIP3    H272617   0.598   3.892  12.849 -0.3604 -0.9889 -0.0895
17068TIP3   OH272618   3.096   2.549   1.803 -0.9417  0.0347 -0.5399
17068TIP3    H172619   3.122   2.492   1.731  0.2348  0.5756 -0.5640
17068TIP3    H272620   3.121   2.501   1.882  0.9948  0.8883 -0.5712
17069TIP3   OH272621   5.054   3.370  14.761  0.0141  0.0324  0.4590
17069TIP3    H172622   5.043   3.453  14.715  2.5981  2.3015  3.4280
17069TIP3    H272623   5.124   3.325  14.713 -1.1567 -0.3580 -0.9579
17070TIP3   OH272624   5.161   1.632   2.987 -0.9267  0.0567  0.1012
17070TIP3    H172625   5.077   1.677   2.978 -1.1140  0.0662  1.6300
17070TIP3    H272626   5.212   1.687   3.046 -0.6228 -0.9863  0.8431
17071TIP3   OH272627   4.014   4.973   2.087  0.9363  0.5394 -0.1672
17071TIP3    H172628   3.922   4.952   2.105  0.7282 -0.1102 -1.7409
17071TIP3    H272629   4.064   4.906   2.133  0.6948  1.4653  1.4970
17072TIP3   OH272630   6.749   5.743  13.156  0.3002  0.1482  0.3085
17072TIP3    H172631   6.684   5.812  13.159 -0.5487 -0.5832 -0.6772
17072TIP3    H272632   6.771   5.733  13.064  3.1898  1.5915  0.7217
17073TIP3   OH272633   1.413   6.193  13.477 -0.0958 -0.1711 -0.1401
17073TIP3    H172634   1.489   6.143  13.447  1.8186  2.7185 -0.5015
17073TIP3    H272635   1.435   6.221  13.565 -1.1616  0.0171  0.0871
17074TIP3   OH272636   0.687   0.920   1.951 -0.1184  0.8215 -0.6412
17074TIP3    H172637   0.660   0.999   1.904  1.6110  1.2991 -0.8869
17074TIP3    H272638   0.751   0.950   2.015 -0.2990 -0.2291  0.0638
17075TIP3   OH272639   0.511   3.948   3.610 -0.3378  0.0977  0.3480
17075TIP3    H172640   0.543   4.031   3.646 -2.3036  0.6784  0.8671
17075TIP3    H272641   0.529   3.884   3.678  1.5363 -0.0300 -0.2068
17076TIP3   OH272642   5.646   0.884   2.839  0.2615 -0.0965 -0.3414
17076TIP3    H172643   5.714   0.821   2.814  0.5007  0.1533 -0.3238
17076TIP3    H272644   5.617   0.855   2.925  0.4120 -0.1487 -0.3078
17077TIP3   OH272645   1.364   2.624  12.239 -0.5335 -0.3771 -0.0382
17077TIP3    H172646   1.405   2.684  12.176 -1.0396 -0.0703 -0.0841
17077TIP3    H272647   1.437   2.577  12.279 -0.2340 -1.1791 -1.4600
17078TIP3   OH272648   6.324   1.747   4.965  0.3769 -0.6382 -0.1599
17078TIP3    H172649   6.345   1.674   5.024 -0.4970 -0.8046 -0.0397
17078TIP3    H272650   6.274   1.807   5.020  1.3209  0.2005 -0.1841
17079TIP3   OH272651   1.091   2.482   6.101 -0.4670 -0.0770  0.2568
17079TIP3    H172652   1.055   2.398   6.129 -1.2690 -0.2715 -1.2282
17079TIP3    H272653   1.069   2.543   6.171  0.0513 -1.0688  1.3217
17080TIP3   OH272654   4.374   0.192   3.401  0.5663  0.3561  0.0279
17080TIP3    H172655   4.442   0.210   3.335  1.5369  0.9013  1.1331
17080TIP3    H272656   4.390   0.256   3.470  2.1812 -2.6465  2.7137
17081TIP3   OH272657   4.389   5.539  17.043 -0.0523 -0.1517  0.2304
17081TIP3    H172658   4.368   5.623  17.083 -0.5684  1.0014 -2.3048
17081TIP3    H272659   4.318   5.481  17.070 -0.8560  0.8168  0.2381
17082TIP3   OH272660   5.168   3.811   4.005  0.3788  0.2286  0.3837
17082TIP3    H172661   5.135   3.789   3.918 -0.3642  0.4931  0.5875
17082TIP3    H272662   5.196   3.728   4.042 -0.7904 -0.1328  0.4882
17083TIP3   OH272663   6.464   5.417  16.081  0.2079  0.1849  0.3161
17083TIP3    H172664   6.409   5.480  16.127  0.9161 -0.2955  1.8865
17083TIP3    H272665   6.406   5.344  16.062  0.4457 -0.7923  2.9286
17084TIP3   OH272666   4.603   3.464   1.980  0.3109  0.6182  0.4055
17084TIP3    H172667   4.621   3.370   1.989  1.6465  0.7525 -0.4378
17084TIP3    H272668   4.512   3.469   1.951 -0.1015 -0.3525  1.4613
17085TIP3   OH272669   0.135   5.893  13.699  0.0403 -0.5376  0.4359
17085TIP3    H172670   0.147   5.924  13.789 -2.2461  0.2732  0.5164
17085TIP3    H272671   0.187   5.954  13.646  0.1027 -0.0255  1.0695
17086TIP3   OH272672   2.446   2.222   5.378 -0.6765  0.0880 -0.0014
17086TIP3    H172673   2.387   2.216   5.453 -2.6453  3.2898 -1.1216
17086TIP3    H272674   2.468   2.131   5.358 -1.7289 -0.9813  3.1261
17087TIP3   OH272675   1.113   0.484  11.417 -0.0322 -0.3109 -0.4716
17087TIP3    H172676   1.179   0.425  11.382  1.0577 -0.4843  1.7174
17087TIP3    H272677   1.031   0.435  11.411  0.1359 -0.4284 -2.3983
17088TIP3   OH272678   3.680   1.363  14.050 -0.2258  0.3439 -0.3626
17088TIP3    H172679   3.689   1.323  13.964  2.2878 -1.9028  0.7740
17088TIP3    H272680   3.622   1.303  14.098 -2.3933  2.0704 -0.6335
17089TIP3   OH272681   3.175   6.231  15.913  0.1131 -0.4120  1.0990
17089TIP3    H172682   3.241   6.178  15.958  0.5788 -1.0359 -0.2785
17089TIP3    H272683   3.092   6.185  15.930  0.1220 -0.0478  2.1924
17090TIP3   OH272684   3.533   0.993  13.638 -0.5568 -0.0443 -0.8734
17090TIP3    H172685   3.509   1.083  13.618  0.3305  0.2065 -0.8604
17090TIP3    H272686   3.513   0.983  13.731  0.3229  0.4823 -0.6150
17091TIP3   OH272687   1.864   0.786  16.176  0.8972 -0.4011  0.2414
17091TIP3    H172688   1.851   0.807  16.083  3.3371 -1.8443 -0.5071
17091TIP3    H272689   1.877   0.871  16.218 -2.1908  0.4534 -0.2879
17092TIP3   OH272690   2.578   1.529  15.296  0.7524 -0.3410 -0.3769
17092TIP3    H172691   2.553   1.484  15.377  0.1903  1.1581  0.3165
17092TIP3    H272692   2.541   1.475  15.227 -0.1835 -0.7959  0.4441
17093TIP3   OH272693   2.662   0.275  14.028 -0.1788  0.4357 -0.5733
17093TIP3    H172694   2.686   0.202  14.085  0.7519  0.8882 -0.3758
17093TIP3    H272695   2.567   0.280  14.034 -0.0333  1.6367  2.4121
17094TIP3   OH272696   4.985   4.124  12.539  0.1546  0.0892  0.1968
17094TIP3    H172697   4.975   4.205  12.489  0.0865 -0.0913 -0.0850
17094TIP3    H272698   5.075   4.127  12.570  0.7729 -0.6228 -1.4148
17095TIP3   OH272699   3.529   1.221   2.063  0.4038 -0.6558 -0.3693
17095TIP3    H172700   3.458   1.217   1.998 -1.2158 -1.6612  1.3782
17095TIP3    H272701   3.593   1.157   2.032 -0.8404 -1.8941 -0.4677
17096TIP3   OH272702   3.231   0.123   1.197 -0.3523  0.7310  0.4329
17096TIP3    H172703   3.208   0.031   1.206  1.5117  0.0698 -0.8523
17096TIP3    H272704   3.155   0.171   1.229 -3.1935 -1.2035 -2.7735
17097TIP3   OH272705   4.125   3.344  15.252 -0.2794  0.0840  0.2229
17097TIP3    H172706   4.054   3.304  15.303  1.0395  0.8787  2.8112
17097TIP3    H272707   4.079   3.400  15.188 -2.0023 -0.2359  1.1098
17098TIP3   OH272708   0.993   3.938   1.665 -0.6309  0.0005 -0.0472
17098TIP3    H172709   1.005   4.030   1.641 -0.9635 -0.2556 -1.2653
17098TIP3    H272710   1.004   3.936   1.760 -0.1330  1.2152 -0.0658
17099TIP3   OH272711   5.991   2.768  14.698 -1.0815 -0.5345  0.3020
17099TIP3    H172712   5.974   2.856  14.732  0.4779 -0.7602  1.8275
17099TIP3    H272713   6.003   2.714  14.776 -1.6883 -2.0514 -0.6115
17100TIP3   OH272714   4.381   3.101   3.790  0.2445  0.3244 -0.0405
17100TIP3    H172715   4.303   3.105   3.845 -0.9774  0.8334 -1.7203
17100TIP3    H272716   4.415   3.191   3.791 -0.1771  0.4936 -0.6508
17101TIP3   OH272717   0.463   6.157   0.563 -0.4139  0.1872 -0.3104
17101TIP3    H172718   0.516   6.217   0.616 -0.5120  0.0772 -0.0892
17101TIP3    H272719   0.452   6.079   0.618 -0.8997  0.2535 -0.3162
17102TIP3   OH272720   0.207   4.691  10.594  0.2741 -0.4495  0.0937
17102TIP3    H172721   0.141   4.704  10.661  0.9739 -0.8071  0.8702
17102TIP3    H272722   0.158   4.663  10.517 -0.4642 -0.7819  0.6725
17103TIP3   OH272723   5.463   5.171   3.136  0.4422 -0.0443 -0.1400
17103TIP3    H172724   5.441   5.159   3.228 -2.1131 -0.4682 -0.7491
17103TIP3    H272725   5.533   5.108   3.120  1.5376  0.6378  1.6781
17104TIP3   OH272726   3.130   1.423  16.182  0.1693  0.3735  0.1725
17104TIP3    H172727   3.037   1.434  16.163  0.5230  0.8741 -1.4048
17104TIP3    H272728   3.139   1.451  16.273 -1.2677  0.0164  0.4467
17105TIP3   OH272729   5.437   0.743  11.329  0.2786  0.0107  0.5868
17105TIP3    H172730   5.402   0.755  11.240 -1.0167  0.1735  1.0990
17105TIP3    H272731   5.428   0.829  11.370 -0.8891 -0.5295  1.4765
17106TIP3   OH272732   5.357   3.938  14.496 -0.3120  0.0587  0.1133
17106TIP3    H172733   5.421   3.990  14.447  0.3108 -0.3623  0.4579
17106TIP3    H272734   5.278   3.941  14.442 -0.4507  1.7317  0.3546
17107TIP3   OH272735   1.927   5.214   2.088  0.3014 -0.6328 -0.2852
17107TIP3    H172736   1.886   5.294   2.121  0.0852 -0.7218 -0.3396
17107TIP3    H272737   1.902   5.146   2.150  1.1102 -0.5145  0.1861
17108TIP3   OH272738   0.911   4.238   2.252  0.4338  0.7621 -0.2475
17108TIP3    H172739   0.976   4.191   2.199  0.1477  2.6837 -2.4382
17108TIP3    H272740   0.963   4.277   2.322  1.0535 -0.6251  0.1108
17109TIP3   OH272741   0.674   0.945   3.753 -0.0404  0.0989  0.4700
17109TIP3    H172742   0.744   0.882   3.741  0.3786  0.8225 -1.0880
17109TIP3    H272743   0.598   0.905   3.711 -0.1520 -0.0061  0.7730
17110TIP3   OH272744   4.561   5.559  13.560 -0.0450  0.0508 -0.0634
17110TIP3    H172745   4.528   5.648  13.546 -0.8424 -0.1608  0.4291
17110TIP3    H272746   4.495   5.502  13.520  0.3483 -0.3290 -0.1744
17111TIP3   OH272747   6.489   4.478   3.416 -0.1838  0.0128  0.3229
17111TIP3    H172748   6.414   4.533   3.439  1.1029  1.4745  1.2465
17111TIP3    H272749   6.452   4.391   3.403 -2.4728  1.1849 -2.0814
17112TIP3   OH272750   1.017   5.163   1.812  0.2945 -0.5509 -0.4657
17112TIP3    H172751   0.986   5.254   1.814  0.9521 -0.3184 -0.0022
17112TIP3    H272752   0.991   5.130   1.727 -0.1368  0.0113 -0.5583
17113TIP3   OH272753   1.814   5.353   5.363 -0.0813 -0.1378  0.0915
17113TIP3    H172754   1.851   5.265   5.368 -0.2695 -0.1772  0.9137
17113TIP3    H272755   1.767   5.355   5.279 -0.6778 -1.0725  0.3879
17114TIP3   OH272756   3.215   1.585   3.801  0.0505  0.2947  0.4877
17114TIP3    H172757   3.289   1.644   3.787  0.5734 -0.3165  0.6382
17114TIP3    H272758   3.252   1.509   3.845 -0.4000 -0.6364 -0.6680
17115TIP3   OH272759   6.165   3.170  11.455  0.1919  0.1771  0.2633
17115TIP3    H172760   6.139   3.249  11.503 -0.1238 -0.5553  1.3223
17115TIP3    H272761   6.260   3.167  11.466  0.2605  0.6653 -0.1801
17116TIP3   OH272762   3.741   0.878   5.023 -0.0748  0.1664 -0.0346
17116TIP3    H172763   3.749   0.783   5.034 -1.8426  0.0931  0.9678
17116TIP3    H272764   3.792   0.914   5.095 -0.0533 -0.0290  0.0493
17117TIP3   OH272765   4.418   4.317  13.883 -0.3435  0.1778 -0.2797
17117TIP3    H172766   4.412   4.260  13.806 -0.4691 -0.0072 -0.1338
17117TIP3    H272767   4.502   4.294  13.924  0.0055  0.6953 -0.6897
17118TIP3   OH272768   5.383   0.554  13.188 -0.0624  0.0246  0.5662
17118TIP3    H172769   5.321   0.584  13.122 -0.6655  1.3168  1.6742
17118TIP3    H272770   5.401   0.463  13.164  1.8025  1.1289 -2.8976
17119TIP3   OH272771   1.344   3.979   3.921  0.8153  0.3958 -0.0274
17119TIP3    H172772   1.342   4.055   3.864  1.2212  0.0049 -0.5722
17119TIP3    H272773   1.291   4.004   3.997  0.0959  0.8330 -0.6709
17120TIP3   OH272774   0.714   4.406   5.646 -0.1166 -0.3632 -0.1252
17120TIP3    H172775   0.756   4.407   5.560  0.4377  0.5327  0.1551
17120TIP3    H272776   0.623   4.433   5.628  0.3179  1.0840 -0.2792
17121TIP3   OH272777   0.272   1.774  12.356 -0.0266  0.9016 -0.1819
17121TIP3    H172778   0.222   1.760  12.275 -0.9932 -0.1501  0.5651
17121TIP3    H272779   0.359   1.799  12.325 -0.0596 -0.5034 -1.5989
17122TIP3   OH272780   3.449   3.732  15.873  0.1271  0.4094  0.1021
17122TIP3    H172781   3.530   3.736  15.822 -1.4186  2.5511 -2.4762
17122TIP3    H272782   3.478   3.734  15.964  3.0006 -1.7458 -0.6149
17123TIP3   OH272783   3.240   0.222  14.195 -0.6750  0.2394 -0.1124
17123TIP3    H172784   3.199   0.229  14.109  1.0729  2.9799 -0.8517
17123TIP3    H272785   3.296   0.145  14.188 -1.5758 -0.3688 -0.9309
17124TIP3   OH272786   3.226   1.844  15.728  0.1157 -0.2081  0.1683
17124TIP3    H172787   3.180   1.900  15.666 -0.0087 -2.0771 -1.5554
17124TIP3    H272788   3.319   1.863  15.712  0.1295 -1.4061 -1.4109
17125TIP3   OH272789   0.348   2.854   3.589  0.2388 -0.1558  0.1403
17125TIP3    H172790   0.270   2.829   3.539  0.7845 -1.2319 -0.2001
17125TIP3    H272791   0.320   2.850   3.681 -0.4170  0.5981 -0.0177
17126TIP3   OH272792   0.716   1.703  14.543 -0.5507 -0.4514  0.4034
17126TIP3    H172793   0.765   1.621  14.553  1.6861  0.6547 -0.8332
17126TIP3    H272794   0.766   1.767  14.594 -0.5917  0.7450 -1.0001
17127TIP3   OH272795   3.883   6.535   3.172 -0.7295  0.3092  0.1556
17127TIP3    H172796   3.968   6.523   3.213 -2.2962 -0.4392  3.5268
17127TIP3    H272797   3.871   6.629   3.165  0.6259  0.4167 -1.0732
17128TIP3   OH272798   5.145   3.833  16.420 -0.2020 -0.3353  0.3376
17128TIP3    H172799   5.113   3.804  16.505 -2.0032  2.3677  0.7227
17128TIP3    H272800   5.117   3.765  16.359 -1.3946 -0.9893  1.5621
17129TIP3   OH272801   1.540   1.625  14.562 -0.2748  0.3910  0.3302
17129TIP3    H172802   1.621   1.638  14.611  0.3472 -1.1428 -0.2335
17129TIP3    H272803   1.531   1.530  14.554 -2.4810  0.4956  0.9268
17130TIP3   OH272804   4.029   5.721   3.186 -0.7255  0.0963  0.4628
17130TIP3    H172805   3.949   5.745   3.232 -0.4714  0.5528  0.6689
17130TIP3    H272806   4.088   5.795   3.198 -0.0330 -0.4941  0.8538
17131TIP3   OH272807   1.269   6.571   5.909  0.2990 -0.0211  0.9183
17131TIP3    H172808   1.254   6.634   5.839 -1.7649 -2.3346 -0.9319
17131TIP3    H272809   1.331   6.614   5.968  1.4604  2.4217 -1.8373
17132TIP3   OH272810   1.991   1.701   0.078 -0.4041 -0.9269  1.2323
17132TIP3    H172811   1.910   1.721   0.125 -1.0130  1.0870 -0.5543
17132TIP3    H272812   2.037   1.785   0.072  0.5063 -1.4902 -0.1736
17133TIP3   OH272813   1.021   6.466  16.760  0.0739 -0.4168 -0.5100
17133TIP3    H172814   1.008   6.389  16.705  1.8357 -0.2796 -1.1674
17133TIP3    H272815   1.116   6.477  16.765 -0.0577  0.2969  1.5778
17134TIP3   OH272816   3.786   4.580  13.062  0.7035 -0.3992 -0.1142
17134TIP3    H172817   3.746   4.666  13.073 -0.2569 -0.9432  0.7263
17134TIP3    H272818   3.794   4.544  13.150  0.7094 -1.3449 -0.4785
17135TIP3   OH272819   3.782   0.544   3.589  0.4241 -0.2724  0.6672
17135TIP3    H172820   3.846   0.591   3.536 -0.7347 -0.9252 -1.4660
17135TIP3    H272821   3.700   0.551   3.539 -0.8430 -0.6901  2.5638
17136TIP3   OH272822   3.706   3.332   0.075 -0.8888  0.1427  0.2869
17136TIP3    H172823   3.745   3.405   0.027 -2.8663  1.5150  0.6474
17136TIP3    H272824   3.754   3.329   0.157  1.5827 -1.3236 -1.0982
17137TIP3   OH272825   5.149   2.184   4.168  0.0101  0.6993  0.1433
17137TIP3    H172826   5.055   2.181   4.184  0.2715 -1.3434  1.6722
17137TIP3    H272827   5.164   2.269   4.127 -2.7165  0.3697 -1.7749
17138TIP3   OH272828   3.866   5.855   5.496 -0.2221 -0.4577 -0.0310
17138TIP3    H172829   3.835   5.851   5.586  0.8453  0.2558  0.3916
17138TIP3    H272830   3.839   5.942   5.465  0.3006 -0.2867 -0.0342
17139TIP3   OH272831   5.243   1.211   4.422 -0.4828  0.3371  0.4562
17139TIP3    H172832   5.191   1.284   4.387 -0.8432 -0.2145 -0.1924
17139TIP3    H272833   5.180   1.160   4.474 -0.1952  0.5627  1.0428
17140TIP3   OH272834   1.779   6.386  13.681  0.3152 -0.0975  0.1733
17140TIP3    H172835   1.819   6.473  13.689 -0.1426  0.2513 -1.1151
17140TIP3    H272836   1.845   6.333  13.637  0.5093 -0.3550  0.7636
17141TIP3   OH272837   3.121   2.634   0.704 -0.1213 -0.5981  0.6196
17141TIP3    H172838   3.074   2.556   0.675  0.2809 -0.8336  0.5953
17141TIP3    H272839   3.060   2.706   0.687 -0.7395 -0.9673  1.2142
17142TIP3   OH272840   3.777   4.408   0.574  0.4787  0.1391 -0.6688
17142TIP3    H172841   3.731   4.327   0.552  0.3045  0.6325 -2.2540
17142TIP3    H272842   3.730   4.476   0.526 -1.0764  1.6730  2.7516
17143TIP3   OH272843   1.971   3.050  16.409 -0.0537 -0.3605 -0.1319
17143TIP3    H172844   1.902   3.065  16.343 -0.5283 -0.9623  0.2190
17143TIP3    H272845   1.929   2.994  16.474  0.9668 -1.2669 -0.2346
17144TIP3   OH272846   4.319   1.600   2.580 -0.9149  0.3389 -0.5373
17144TIP3    H172847   4.381   1.659   2.624  0.0157 -0.0282 -1.3173
17144TIP3    H272848   4.235   1.619   2.621 -0.6631  2.2777 -0.8132
17145TIP3   OH272849   5.378   1.421  10.693  0.4964  0.2217  0.1746
17145TIP3    H172850   5.289   1.455  10.697  0.7512  0.7976  1.5648
17145TIP3    H272851   5.428   1.478  10.751  1.4324 -1.0702  0.6912
17146TIP3   OH272852   4.948   5.615   6.478  0.2473  0.8983  0.1864
17146TIP3    H172853   4.939   5.675   6.405  0.2704  2.1853  1.2009
17146TIP3    H272854   5.030   5.639   6.520 -0.2241  0.8231  1.1882
17147TIP3   OH272855   1.547   3.351  17.040 -0.7111  0.1473 -0.6239
17147TIP3    H172856   1.465   3.309  17.017 -0.8630  0.2544 -0.2858
17147TIP3    H272857   1.532   3.387  17.128  0.3713 -1.6304  0.3594
17148TIP3   OH272858   0.043   1.777  16.221  0.0199 -0.6190  0.2503
17148TIP3    H172859   0.014   1.766  16.130 -0.3658  0.1015  0.2782
17148TIP3    H272860  -0.032   1.750  16.274 -0.7349  1.4527  0.3230
17149TIP3   OH272861   6.685   6.635   0.822 -0.0841  0.0993  0.2063
17149TIP3    H172862   6.654   6.722   0.847 -0.8298 -0.6723  2.1104
17149TIP3    H272863   6.749   6.612   0.889 -0.0991 -0.9437 -0.1146
17150TIP3   OH272864   6.383   6.388   3.903 -0.3464  0.1199  0.2970
17150TIP3    H172865   6.387   6.473   3.949 -1.1672  0.0715  0.4850
17150TIP3    H272866   6.357   6.411   3.814  2.7647  0.3608 -0.6522
17151TIP3   OH272867   5.188   4.539  14.378  0.2052  0.1670  0.0095
17151TIP3    H172868   5.159   4.622  14.418  1.8320 -0.0420  1.7664
17151TIP3    H272869   5.231   4.492  14.450  1.1690 -1.2934 -1.4678
17152TIP3   OH272870   4.737   6.145   4.609 -0.6880 -0.6493 -0.2686
17152TIP3    H172871   4.782   6.061   4.604  0.3517 -0.3191  2.3125
17152TIP3    H272872   4.799   6.208   4.573 -0.1843 -0.5941  0.6599
17153TIP3   OH272873   6.310   3.802  12.030  0.8656 -0.1660 -0.1298
17153TIP3    H172874   6.294   3.867  11.961  0.2835  0.7219  0.8175
17153TIP3    H272875   6.404   3.809  12.047  1.1189 -0.7952 -1.2187
17154TIP3   OH272876   5.680   1.561  11.909  0.4122 -0.1249  0.6915
17154TIP3    H172877   5.752   1.535  11.966 -0.0976 -0.7700  1.0566
17154TIP3    H272878   5.604   1.566  11.967 -0.0534 -0.4951  0.1260
17155TIP3   OH272879   6.636   6.127   1.802 -0.5282 -0.4183  0.9665
17155TIP3    H172880   6.601   6.214   1.816  1.1565  0.3663  0.5972
17155TIP3    H272881   6.654   6.122   1.708  0.9750 -0.4965  1.2320
17156TIP3   OH272882   5.991   6.404   4.699 -0.3843  0.0697 -0.3098
17156TIP3    H172883   5.975   6.470   4.631 -0.3637  0.2294 -0.1624
17156TIP3    H272884   6.058   6.347   4.662 -0.8371 -0.2222 -0.6734
17157TIP3   OH272885   4.379   2.639  12.520 -0.5135 -0.1903 -0.0206
17157TIP3    H172886   4.284   2.628  12.532 -0.3449 -2.5643 -0.3586
17157TIP3    H272887   4.402   2.576  12.451  1.5221 -0.6755  1.0238
17158TIP3   OH272888   3.494   0.365  14.571  0.3754 -0.1920 -0.3265
17158TIP3    H172889   3.563   0.395  14.512 -0.1235 -0.5575 -1.1137
17158TIP3    H272890   3.524   0.389  14.658 -0.3690  3.4269 -0.9142
17159TIP3   OH272891   4.660   3.746  15.147 -0.0118 -0.6837 -0.1631
17159TIP3    H172892   4.580   3.793  15.170 -0.6339 -1.8811  0.2109
17159TIP3    H272893   4.730   3.792  15.192 -0.7084 -0.6019  0.8581
17160TIP3   OH272894   0.400   5.473   3.002  0.0943 -0.1821  0.1836
17160TIP3    H172895   0.444   5.511   3.078 -1.1920 -0.0763  0.9075
17160TIP3    H272896   0.336   5.539   2.976  0.1740 -0.4374 -0.6728
17161TIP3   OH272897   2.590   5.503   3.562  0.1939 -0.1145  0.4872
17161TIP3    H172898   2.495   5.512   3.552  0.2210 -0.9052 -0.6890
17161TIP3    H272899   2.612   5.562   3.634 -1.4354 -1.1920  1.9479
17162TIP3   OH272900   3.560   6.394  11.701  0.0191 -0.1213 -0.8119
17162TIP3    H172901   3.552   6.414  11.795  2.6641 -2.0818 -0.0423
17162TIP3    H272902   3.493   6.328  11.684 -0.6239  0.4085 -0.3868
17163TIP3   OH272903   3.369   4.735   5.843 -0.1724 -0.0208 -0.1059
17163TIP3    H172904   3.370   4.825   5.810 -4.2422  0.0147 -0.6668
17163TIP3    H272905   3.417   4.739   5.925 -0.8923  2.9087  0.2889
17164TIP3   OH272906   3.616   0.567   3.377  0.5418  0.6950 -0.2173
17164TIP3    H172907   3.653   0.649   3.345  0.7769  0.5408 -0.3450
17164TIP3    H272908   3.604   0.514   3.299  1.0109  0.3613 -0.0642
17165TIP3   OH272909   2.496   4.832  11.540  0.3662  0.3863  0.3667
17165TIP3    H172910   2.575   4.883  11.561 -0.7616  2.1835  0.5308
17165TIP3    H272911   2.482   4.776  11.616  1.3757  0.1928  0.4150
17166TIP3   OH272912   3.916   5.208  14.331  0.4566  0.4460  0.8841
17166TIP3    H172913   3.975   5.263  14.383  2.7364 -0.3438 -0.6741
17166TIP3    H272914   3.961   5.199  14.247 -1.5238 -0.9622 -0.0935
17167TIP3   OH272915   2.982   5.446   0.405 -0.7134  0.0875 -0.2089
17167TIP3    H172916   2.909   5.421   0.349 -0.8889  1.2018 -0.4996
17167TIP3    H272917   3.059   5.438   0.348 -0.5950 -1.0352  0.0825
17168TIP3   OH272918   0.863   1.305   1.943  0.0251  0.5416 -0.7917
17168TIP3    H172919   0.839   1.287   1.851  0.0722  1.5260 -1.0048
17168TIP3    H272920   0.947   1.260   1.954  1.2635  2.4198 -1.9869
17169TIP3   OH272921   4.538   1.953  16.618 -0.7624  0.1672 -0.2305
17169TIP3    H172922   4.443   1.948  16.607 -0.5396 -1.5108 -1.7480
17169TIP3    H272923   4.551   1.939  16.712 -2.0148  1.1625  0.1381
17170TIP3   OH272924   4.964   4.768   5.425 -0.2744 -0.2857 -0.2028
17170TIP3    H172925   4.898   4.833   5.402 -1.3198 -0.9033  0.9799
17170TIP3    H272926   4.929   4.722   5.501  1.2287 -1.0688  0.0729
17171TIP3   OH272927   0.475   2.636  12.634 -0.6344 -0.0799  0.1915
17171TIP3    H172928   0.498   2.544  12.628 -0.4679 -0.1545  1.6277
17171TIP3    H272929   0.452   2.649  12.726 -0.7891  1.2737 -0.0185
17172TIP3   OH272930   2.438   3.758   3.321 -0.2135 -0.3345 -0.0770
17172TIP3    H172931   2.387   3.794   3.394 -0.0175  0.6762 -0.4144
17172TIP3    H272932   2.529   3.781   3.343  0.1660 -2.3250  0.6469
17173TIP3   OH272933   3.542   4.768  15.900  0.0258  0.3761 -0.0419
17173TIP3    H172934   3.460   4.740  15.859 -0.1064 -0.7424  0.9478
17173TIP3    H272935   3.528   4.861  15.918 -1.1951  0.1159  0.4678
17174TIP3   OH272936   4.830   5.991   5.094 -0.6652 -0.3629  0.0316
17174TIP3    H172937   4.926   5.988   5.099 -0.5977  0.4372 -0.5650
17174TIP3    H272938   4.811   6.066   5.039 -1.6305 -1.0079 -0.5492
17175TIP3   OH272939   5.148   1.174  13.667  0.0234  0.1292 -0.5053
17175TIP3    H172940   5.113   1.088  13.692  2.0098 -0.7579 -0.5958
17175TIP3    H272941   5.220   1.189  13.728 -1.4201  2.6487  0.7310
17176TIP3   OH272942   1.854   5.783   4.394 -0.5500 -0.1743  0.3684
17176TIP3    H172943   1.912   5.731   4.450 -1.9061  0.3417  2.3254
17176TIP3    H272944   1.863   5.872   4.427 -0.3770  0.3859 -1.1314
17177TIP3   OH272945   4.869   3.013  13.840  0.2551 -0.0593 -0.7174
17177TIP3    H172946   4.795   2.953  13.850  0.6743 -0.4276  0.3333
17177TIP3    H272947   4.836   3.098  13.868  0.8065 -0.6574  2.0850
17178TIP3   OH272948   5.861   6.412  13.878  0.1862  0.2199  0.0541
17178TIP3    H172949   5.955   6.426  13.870  0.1360  0.6020  0.1312
17178TIP3    H272950   5.822   6.492  13.843 -0.0656  1.5617  3.0603
17179TIP3   OH272951   4.980   6.247   0.441  0.8260 -0.3677 -0.0954
17179TIP3    H172952   5.003   6.295   0.521  2.0185 -0.2661 -0.4691
17179TIP3    H272953   4.886   6.258   0.433  1.0697  2.3078 -0.3834
17180TIP3   OH272954   3.326   4.073   3.630 -0.5610  0.0558 -0.0823
17180TIP3    H172955   3.257   4.139   3.631 -1.4313 -0.7903 -1.6438
17180TIP3    H272956   3.292   4.001   3.683 -1.3496 -0.7808 -1.6739
17181TIP3   OH272957   0.918   0.544  13.123  0.4555 -0.2246  0.4011
17181TIP3    H172958   0.827   0.574  13.126  0.7074  0.5298  1.3656
17181TIP3    H272959   0.968   0.624  13.103  0.7028 -1.2214 -3.9926
17182TIP3   OH272960   2.000   0.037   2.304  0.1459 -0.4629  0.2807
17182TIP3    H172961   2.091   0.066   2.305 -0.3993  1.3209  0.9169
17182TIP3    H272962   1.952   0.104   2.353 -1.4958 -1.4498  0.1107
17183TIP3   OH272963   6.210   4.702  12.484 -0.3039 -0.3190 -0.1009
17183TIP3    H172964   6.192   4.744  12.400 -0.0314 -0.5410 -0.2752
17183TIP3    H272965   6.232   4.612  12.461  0.2853 -0.2481  0.1579
17184TIP3   OH272966   2.709   3.308  16.126  0.5554  0.1190  0.2083
17184TIP3    H172967   2.615   3.288  16.129  0.6438 -0.6573 -1.2662
17184TIP3    H272968   2.743   3.253  16.056  1.7969  1.6737 -0.4853
17185TIP3   OH272969   2.620   5.376   5.732  0.4285  0.5263  0.5969
17185TIP3    H172970   2.559   5.450   5.734  0.6940  0.8041 -0.7482
17185TIP3    H272971   2.603   5.332   5.649  2.2171  0.7734  0.0464
17186TIP3   OH272972   4.591   0.932  12.064 -0.3630 -0.8451  0.2683
17186TIP3    H172973   4.627   0.845  12.078 -0.0349 -0.3636  2.8007
17186TIP3    H272974   4.663   0.991  12.085 -1.4368  0.0656  1.5465
17187TIP3   OH272975   6.521   5.322  11.838  0.2130 -0.0891 -0.2811
17187TIP3    H172976   6.559   5.254  11.782 -0.7122 -0.5646 -0.3428
17187TIP3    H272977   6.482   5.385  11.778 -0.8618 -0.6470 -0.1936
17188TIP3   OH272978   5.185   4.172  14.852  0.1908 -0.2226 -0.1774
17188TIP3    H172979   5.228   4.147  14.771 -0.0366 -0.0924 -0.3382
17188TIP3    H272980   5.105   4.119  14.854 -0.7410  1.1187 -0.9448
17189TIP3   OH272981   0.949   1.497   0.181  0.1203  0.7165 -0.0358
17189TIP3    H172982   0.858   1.483   0.156  0.1819  0.1351  0.0480
17189TIP3    H272983   0.944   1.528   0.271 -0.0125  1.0125 -0.1456
17190TIP3   OH272984   5.894   2.162  15.856  0.1379  0.1128  0.5388
17190TIP3    H172985   5.840   2.083  15.866 -0.0300 -0.0543 -1.2930
17190TIP3    H272986   5.854   2.226  15.915 -0.2577 -0.8847  1.4033
17191TIP3   OH272987   4.376   1.262   0.458 -0.1531 -0.2410  0.5756
17191TIP3    H172988   4.458   1.232   0.419  0.6549  0.1036  1.9394
17191TIP3    H272989   4.356   1.344   0.411 -0.1104 -0.6784 -0.2328
17192TIP3   OH272990   2.429   3.804  11.604  0.3580 -0.0230 -0.1915
17192TIP3    H172991   2.509   3.754  11.592 -0.2864 -1.6809  1.9060
17192TIP3    H272992   2.359   3.743  11.582 -0.3947  0.7710 -0.0696
17193TIP3   OH272993   0.254   6.279   6.709 -0.2455 -0.4688  0.1277
17193TIP3    H172994   0.188   6.338   6.671  0.0448 -0.3537 -0.1952
17193TIP3    H272995   0.211   6.194   6.712 -0.5414 -0.3165  0.2610
17194TIP3   OH272996   1.822   0.020   5.357  0.0550  0.5157  0.1104
17194TIP3    H172997   1.782   0.062   5.281 -0.1760 -0.8640 -0.5762
17194TIP3    H272998   1.758  -0.045   5.385  0.9842 -0.3837  0.2104
17195TIP3   OH272999   4.461   0.951  11.270  0.1845  0.5167 -0.4290
17195TIP3    H173000   4.553   0.940  11.294  0.6788  0.5740 -2.2078
17195TIP3    H273001   4.463   0.990  11.183 -1.5405  1.4311 -0.1087
17196TIP3   OH273002   6.580   5.446   2.803 -0.6098 -0.4439 -0.3569
17196TIP3    H173003   6.582   5.420   2.895  0.0598  1.2182  0.1349
17196TIP3    H273004   6.509   5.510   2.798  0.1796  0.4281 -0.6969
17197TIP3   OH273005   3.481   2.817   6.031 -0.0694 -0.2618  0.0528
17197TIP3    H173006   3.453   2.729   6.057 -1.9493  1.0108  2.7804
17197TIP3    H273007   3.471   2.870   6.110  1.6723  2.3030 -1.3057
17198TIP3   OH273008   0.470   5.838   4.404  0.6578 -0.3824  0.5155
17198TIP3    H173009   0.534   5.768   4.404 -0.5447 -1.5719  2.4133
17198TIP3    H273010   0.490   5.890   4.482 -0.8371 -0.9872  1.3519
17199TIP3   OH273011   3.299   4.640   3.771  0.3717 -0.6754 -0.2486
17199TIP3    H173012   3.322   4.650   3.863  0.9743  0.3465 -0.4872
17199TIP3    H273013   3.253   4.721   3.749  2.6974  0.4039 -1.5207
17200TIP3   OH273014   6.529   5.610  11.075 -0.5538 -0.1091  0.5653
17200TIP3    H173015   6.612   5.620  11.028  0.1558 -0.4141  1.7332
17200TIP3    H273016   6.466   5.584  11.007  0.5052 -0.8293 -0.1640
17201TIP3   OH273017   0.392   5.846  14.642 -0.5171  0.3485 -0.5464
17201TIP3    H173018   0.387   5.786  14.717 -1.5777  0.9294 -0.1340
17201TIP3    H273019   0.394   5.789  14.565 -1.2780 -0.2266 -0.1534
17202TIP3   OH273020   4.099   2.903  14.232  0.3071 -0.6428 -0.1998
17202TIP3    H173021   4.049   2.981  14.258  0.3786 -0.2638 -1.1422
17202TIP3    H273022   4.034   2.842  14.200  0.4122 -0.1748 -1.3645
17203TIP3   OH273023   1.267   6.463   0.251 -0.0368  0.0681 -0.7190
17203TIP3    H173024   1.259   6.368   0.263  0.5587  0.1669  0.6914
17203TIP3    H273025   1.177   6.493   0.239 -0.2856 -0.6144 -0.6008
17204TIP3   OH273026   4.448   2.321   2.223 -0.2664 -0.1251 -0.0544
17204TIP3    H173027   4.422   2.381   2.293 -0.6741 -0.4737  0.0980
17204TIP3    H273028   4.369   2.312   2.169 -0.5318 -1.3012  0.4885
17205TIP3   OH273029   1.283   2.467  10.997  0.5588 -0.0565  0.6445
17205TIP3    H173030   1.366   2.455  10.952 -0.4303 -1.3882 -0.9158
17205TIP3    H273031   1.282   2.399  11.064 -0.0042 -1.2356 -0.5183
17206TIP3   OH273032   6.079   6.713  12.856 -0.2285  0.3512  0.0438
17206TIP3    H173033   6.033   6.629  12.862  0.3741  0.0851  1.3901
17206TIP3    H273034   6.027   6.765  12.794 -0.3818 -1.1477 -1.1434
17207TIP3   OH273035   4.374   2.071  14.192 -0.2530  0.1079 -0.2891
17207TIP3    H173036   4.373   1.975  14.187 -2.1024  0.1327 -1.0993
17207TIP3    H273037   4.464   2.095  14.168  1.3387 -1.5069  3.3941
17208TIP3   OH273038   4.001   0.752   1.297  0.1707 -0.3906  0.1475
17208TIP3    H173039   4.011   0.820   1.363  0.7121  0.6327 -0.9682
17208TIP3    H273040   4.018   0.795   1.213 -0.4160 -1.6719 -0.6768
17209TIP3   OH273041   0.580   1.480   2.917 -0.3894  0.2912 -0.0787
17209TIP3    H173042   0.593   1.573   2.934 -1.6600  0.1579  2.0656
17209TIP3    H273043   0.556   1.444   3.002 -0.1284 -1.9703 -0.9069
17210TIP3   OH273044   0.332   2.332  14.789 -0.0151 -0.0158  0.1416
17210TIP3    H173045   0.279   2.399  14.746 -0.3543  0.2120  0.8997
17210TIP3    H273046   0.287   2.249  14.769 -0.8982  0.2084  1.0955
17211TIP3   OH273047   5.991   5.669  11.747 -0.0995  0.0098 -0.2107
17211TIP3    H173048   6.080   5.642  11.770  0.0524 -0.4447 -1.2302
17211TIP3    H273049   6.001   5.756  11.707 -0.1040 -0.0391 -0.3213
17212TIP3   OH273050   0.271   0.895  13.163  0.0166 -0.2909  0.2331
17212TIP3    H173051   0.238   0.944  13.238 -2.1877 -2.0449  0.5232
17212TIP3    H273052   0.350   0.851  13.196  1.5538  2.2279  0.1992
17213TIP3   OH273053   4.337   1.037   2.813 -0.2936  0.4270  0.8741
17213TIP3    H173054   4.241   1.043   2.820 -0.5593  0.2623 -1.7347
17213TIP3    H273055   4.353   1.015   2.721  2.1795 -2.0276  1.7661
17214TIP3   OH273056   3.039   4.528  12.805  0.3151 -0.0577 -0.2737
17214TIP3    H173057   2.971   4.559  12.746  0.0820 -0.2080 -0.0857
17214TIP3    H273058   2.994   4.466  12.863  0.4983  0.2376  0.1861
17215TIP3   OH273059   3.773   1.343   2.920  0.1787 -0.4421 -0.3196
17215TIP3    H173060   3.788   1.290   2.842  0.4693 -0.5307 -0.2059
17215TIP3    H273061   3.678   1.350   2.926  0.1594 -0.2279 -0.8159
17216TIP3   OH273062   0.225   5.273   1.442 -0.5607 -0.2357 -0.1940
17216TIP3    H173063   0.190   5.319   1.366 -0.1520 -2.2783 -1.7154
17216TIP3    H273064   0.152   5.219   1.472 -0.1675 -0.8495 -0.3311
17217TIP3   OH273065   0.999   4.849  13.135 -0.2782 -0.1675 -0.4406
17217TIP3    H173066   0.924   4.902  13.162 -0.0332 -0.3955  0.7303
17217TIP3    H273067   0.965   4.794  13.065 -1.1675 -0.1531 -0.0345
17218TIP3   OH273068   0.564   2.371   1.171 -0.7869 -0.0454  0.0052
17218TIP3    H173069   0.475   2.335   1.172 -0.7080 -0.2356  0.4754
17218TIP3    H273070   0.621   2.295   1.180 -0.6315  0.2225  1.5218
17219TIP3   OH273071   1.005   1.494   1.139 -0.0659  0.0349  0.3843
17219TIP3    H173072   1.100   1.498   1.156  0.0435 -1.9749  0.4688
17219TIP3    H273073   0.970   1.570   1.185  1.4590  0.6147  0.6756
17220TIP3   OH273074   2.795   1.420  16.319 -0.5575  0.0415  0.4357
17220TIP3    H173075   2.817   1.434  16.226 -2.6427  1.7738  0.1072
17220TIP3    H273076   2.765   1.329  16.323 -1.6159  0.2804 -0.9136
17221TIP3   OH273077   3.644   1.647  15.717  0.0373  0.5503  0.0248
17221TIP3    H173078   3.592   1.727  15.705  0.3586  0.9160  0.9957
17221TIP3    H273079   3.732   1.672  15.687  0.6544  1.2338  2.1726
17222TIP3   OH273080   2.090   4.508  12.963  0.0608  0.1758  0.1502
17222TIP3    H173081   2.176   4.497  12.923  0.1258  0.4432  0.2106
17222TIP3    H273082   2.036   4.439  12.925  0.2117  0.2188 -0.1426
17223TIP3   OH273083   5.016   2.888  10.987 -0.3269 -0.4433 -0.4262
17223TIP3    H173084   4.924   2.880  10.962 -0.2174 -1.1981 -0.5967
17223TIP3    H273085   5.020   2.971  11.036 -0.9032  0.0942 -1.2601
17224TIP3   OH273086   6.524   2.094   4.341  0.0786 -0.4388  0.1520
17224TIP3    H173087   6.539   2.015   4.289 -0.5115 -1.0280  0.8562
17224TIP3    H273088   6.451   2.138   4.298 -0.1879 -0.7500  0.2871
17225TIP3   OH273089   1.934   3.991  16.663 -0.4092 -0.0313 -0.2900
17225TIP3    H173090   1.860   3.938  16.693  0.9127 -1.4849  0.5760
17225TIP3    H273091   1.973   4.026  16.743  0.3424  0.0099 -0.6587
17226TIP3   OH273092   1.252   5.617   0.043  0.2222 -0.3135 -0.2906
17226TIP3    H173093   1.186   5.645   0.107  1.9272 -0.2696  1.5501
17226TIP3    H273094   1.250   5.521   0.046 -0.9283 -0.3544 -1.5515
17227TIP3   OH273095   1.071   0.574  15.385  0.1919 -0.2528 -0.3608
17227TIP3    H173096   1.063   0.669  15.390 -0.0337 -0.3327  1.4039
17227TIP3    H273097   0.991   0.545  15.341 -0.1844  0.2984 -0.0408
17228TIP3   OH273098   6.060   4.330  12.463  0.7155 -0.3370 -0.3362
17228TIP3    H173099   6.140   4.373  12.433  2.8301 -2.2447  2.1329
17228TIP3    H273100   6.079   4.237  12.459 -0.6856 -0.8093  2.0213
17229TIP3   OH273101   4.578   3.941  13.907 -0.0212  0.3554  0.3396
17229TIP3    H173102   4.493   3.966  13.871  0.0234  0.2833  0.1823
17229TIP3    H273103   4.640   3.999  13.864  0.0207  0.3389  0.3780
17230TIP3   OH273104   4.473   3.033   2.131 -0.0066 -0.3932  0.0962
17230TIP3    H173105   4.563   3.022   2.160 -0.0589 -1.3611 -0.0480
17230TIP3    H273106   4.423   2.970   2.183 -0.3092 -1.1684 -1.0855
17231TIP3   OH273107   1.761   2.503  15.902 -0.1299 -0.1691 -0.1985
17231TIP3    H173108   1.678   2.514  15.948 -0.8823 -1.4601 -1.1900
17231TIP3    H273109   1.775   2.409  15.898  1.1298  0.0057 -0.5074
17232TIP3   OH273110   2.590   4.342  10.712  0.4563 -0.0581 -0.2463
17232TIP3    H173111   2.545   4.414  10.757  0.3854 -0.1984 -0.0914
17232TIP3    H273112   2.596   4.371  10.621  1.2317  0.5419 -0.0178
17233TIP3   OH273113   1.535   1.269   2.331  0.2232  0.1916  0.5139
17233TIP3    H173114   1.560   1.223   2.251  0.3029 -0.3884  0.8687
17233TIP3    H273115   1.513   1.357   2.302 -0.6096 -0.2639 -0.2807
17234TIP3   OH273116   5.322   4.058   0.191  0.2991 -0.3342  0.2353
17234TIP3    H173117   5.405   4.073   0.147  0.7294  2.1044  1.7416
17234TIP3    H273118   5.329   3.968   0.224  1.4723 -0.8714 -1.3368
17235TIP3   OH273119   1.065   2.573   3.690  0.2586 -0.3038  0.2950
17235TIP3    H173120   0.980   2.617   3.686 -0.3019 -1.4359 -1.3546
17235TIP3    H273121   1.077   2.537   3.602  2.3767 -0.3306  0.5528
17236TIP3   OH273122   5.299   0.883  17.159 -0.3086 -0.1463  0.5488
17236TIP3    H173123   5.245   0.937  17.102  0.3227  0.2878  0.3532
17236TIP3    H273124   5.239   0.850  17.225 -1.1453 -1.0048 -0.5953
17237TIP3   OH273125   3.648   0.739   1.622  0.3857  0.5738  0.1504
17237TIP3    H173126   3.720   0.679   1.638 -0.4453 -0.0543  1.7587
17237TIP3    H273127   3.606   0.704   1.543  1.5346  0.6707 -0.5217
17238TIP3   OH273128   4.781   2.060  13.958 -0.2063 -0.3229  0.0743
17238TIP3    H173129   4.853   2.004  13.929 -0.1627  0.1778 -0.8245
17238TIP3    H273130   4.818   2.111  14.029 -0.2752 -1.4826  0.9744
17239TIP3   OH273131   4.553   2.512   2.681  0.0585 -0.7732 -0.0442
17239TIP3    H173132   4.628   2.568   2.701  0.3772 -0.6609 -1.4346
17239TIP3    H273133   4.496   2.519   2.757  0.6012  0.6065  0.2541
17240TIP3   OH273134   5.726   3.043  10.976 -0.2973 -0.0977  0.0879
17240TIP3    H173135   5.783   2.977  10.938 -0.2661 -0.0372  0.0301
17240TIP3    H273136   5.677   3.078  10.902  0.4539  0.7085 -0.0446
17241TIP3   OH273137   0.020   1.997   6.770 -0.5495  0.0661  0.1596
17241TIP3    H173138   0.066   2.078   6.792 -2.1416  1.7246 -2.0877
17241TIP3    H273139   0.077   1.954   6.706 -1.3265  1.3884 -1.5130
17242TIP3   OH273140   0.920   0.032   0.847 -0.3673 -0.3275  0.1669
17242TIP3    H173141   0.894  -0.056   0.875 -3.2136 -0.1977 -1.5407
17242TIP3    H273142   0.882   0.090   0.913  2.0115 -0.3012  1.6169
17243TIP3   OH273143   3.696   3.316  12.335 -0.3670  0.7645  0.4253
17243TIP3    H173144   3.708   3.249  12.267  0.6936 -0.4352  1.7111
17243TIP3    H273145   3.615   3.361  12.311 -1.0179 -0.8678 -0.6072
17244TIP3   OH273146   4.242   3.119  11.816  0.6346 -0.3288  0.3383
17244TIP3    H173147   4.150   3.100  11.835  0.2483  2.4204  1.6535
17244TIP3    H273148   4.290   3.048  11.858 -0.8372 -1.8400 -0.4150
17245TIP3   OH273149   4.118   2.241  13.808 -0.5036 -0.4708 -0.1019
17245TIP3    H173150   4.189   2.229  13.745 -1.8076 -0.9778 -1.5372
17245TIP3    H273151   4.108   2.156  13.850  0.8203  0.0396  1.3745
17246TIP3   OH273152   5.407   3.850  11.200  0.1321 -0.5991  0.5345
17246TIP3    H173153   5.422   3.800  11.281 -0.8750  0.5182  1.4426
17246TIP3    H273154   5.378   3.936  11.230 -0.7172 -0.3039 -1.0365
17247TIP3   OH273155   0.010   5.162   6.157  0.6112 -0.0993 -0.1651
17247TIP3    H173156   0.004   5.225   6.229  3.3037 -1.6005  1.5899
17247TIP3    H273157   0.055   5.210   6.088 -1.2150  1.1098 -0.5749
17248TIP3   OH273158   4.484   1.199  11.724 -0.4059 -0.5339 -0.2024
17248TIP3    H173159   4.556   1.218  11.664 -1.4514 -1.5431 -1.8630
17248TIP3    H273160   4.497   1.108  11.748 -0.8909 -0.6020 -0.1909
17249TIP3   OH273161   4.274   6.709   3.369 -0.0722 -0.0695  0.1899
17249TIP3    H173162   4.295   6.802   3.377 -0.7140  0.0323  0.7420
17249TIP3    H273163   4.317   6.668   3.443 -1.3859  0.0753  1.0612
17250TIP3   OH273164   3.282   1.289   1.620 -0.5658 -0.3754 -1.1589
17250TIP3    H173165   3.321   1.205   1.597 -0.6086 -1.0329  0.9714
17250TIP3    H273166   3.356   1.346   1.641 -0.3859  0.8448 -4.4336
17251TIP3   OH273167   6.143   4.147   6.815  0.0898 -0.5072 -0.3208
17251TIP3    H173168   6.129   4.240   6.795  1.9801  0.2334  1.4351
17251TIP3    H273169   6.215   4.121   6.757 -0.4641 -0.9216 -0.8387
17252TIP3   OH273170   3.250   0.387  15.191 -0.2804  0.2647 -0.5802
17252TIP3    H173171   3.267   0.310  15.245  0.3872  0.4409 -0.5250
17252TIP3    H273172   3.231   0.457  15.255  2.4220  0.9579 -0.4075
17253TIP3   OH273173   2.251   5.058   3.168  0.2469  0.0429  0.8391
17253TIP3    H173174   2.171   5.029   3.211 -0.2385  0.1748  0.0347
17253TIP3    H273175   2.226   5.137   3.120  0.8400  0.0531  0.5327
17254TIP3   OH273176   6.519   3.325  17.055  0.0119 -0.4868 -0.3541
17254TIP3    H173177   6.573   3.246  17.052  1.2044  0.2810  0.1353
17254TIP3    H273178   6.429   3.293  17.050  0.4662 -1.8964  0.0653
17255TIP3   OH273179   2.625   0.387  14.476  0.3178  0.5226  0.1999
17255TIP3    H173180   2.601   0.302  14.439 -1.1447  0.9856  0.0111
17255TIP3    H273181   2.715   0.401  14.449  0.1768 -0.4219 -0.8042
17256TIP3   OH273182   2.394   0.607   4.712 -0.2796 -0.6414 -0.0064
17256TIP3    H173183   2.389   0.511   4.712 -1.6317 -0.5875 -0.7312
17256TIP3    H273184   2.303   0.636   4.709  0.0151  0.7092  1.9109
17257TIP3   OH273185   6.158   5.755   4.712  0.0632 -0.0785 -0.2834
17257TIP3    H173186   6.248   5.758   4.746  0.2420 -1.1615 -0.6253
17257TIP3    H273187   6.105   5.793   4.782  0.6073 -0.9466  0.6405
17258TIP3   OH273188   0.879   4.670  14.484  0.6726 -0.2162  0.6715
17258TIP3    H173189   0.902   4.578  14.467 -0.8843 -0.4188 -0.4837
17258TIP3    H273190   0.937   4.720  14.427 -0.7142 -0.6657 -1.2300
17259TIP3   OH273191   0.793   2.584  14.573  0.3522 -0.0686  0.0229
17259TIP3    H173192   0.755   2.499  14.550  1.3679 -0.7353  0.7233
17259TIP3    H273193   0.728   2.625  14.629  0.2068 -0.7572  0.3722
17260TIP3   OH273194   2.187   1.946  16.320 -0.6869  0.2877 -0.6669
17260TIP3    H173195   2.197   1.876  16.385 -1.5942  2.1210  1.5767
17260TIP3    H273196   2.260   2.006  16.338 -1.9906  1.7591 -0.0180
17261TIP3   OH273197   0.978   1.994   1.957 -0.2750  0.6149  0.3483
17261TIP3    H173198   1.063   1.978   1.998 -0.2357 -1.2754 -0.3675
17261TIP3    H273199   0.994   1.982   1.863 -0.8408  2.6828 -0.0597
17262TIP3   OH273200   6.410   0.224  14.983 -0.1459  0.1338  0.7149
17262TIP3    H173201   6.452   0.159  14.927 -1.3441 -2.2816  2.4394
17262TIP3    H273202   6.357   0.277  14.923  1.5928  0.1624 -0.8660
17263TIP3   OH273203   2.703   6.656   1.256 -0.1195  0.0924 -0.0114
17263TIP3    H173204   2.793   6.684   1.239 -0.3165 -0.7291 -2.7467
17263TIP3    H273205   2.660   6.734   1.292  1.2183  1.0159 -0.3550
17264TIP3   OH273206   5.294   4.662   3.331 -0.0328 -0.3665  0.2284
17264TIP3    H173207   5.350   4.701   3.398 -0.8711 -0.1389  0.8001
17264TIP3    H273208   5.220   4.626   3.378 -0.4079 -0.6151 -0.5328
17265TIP3   OH273209   0.754   3.552  10.997  0.3745 -0.3797 -0.4629
17265TIP3    H173210   0.802   3.601  10.929  0.0829 -0.7565 -0.9450
17265TIP3    H273211   0.688   3.502  10.949 -0.1790 -0.2528  0.1510
17266TIP3   OH273212   6.174   3.834   4.399 -0.1828  0.7048  0.7643
17266TIP3    H173213   6.252   3.890   4.404 -0.4511  1.0720  0.8110
17266TIP3    H273214   6.137   3.836   4.487  1.2051 -1.5669  1.4913
17267TIP3   OH273215   4.606   1.586  14.643  0.0423  0.2443  0.1045
17267TIP3    H173216   4.682   1.610  14.696  1.2552  0.8850 -1.8524
17267TIP3    H273217   4.611   1.490  14.638  0.2039  0.2138  0.7128
17268TIP3   OH273218   5.228   2.023   5.742 -0.1860  0.2232  0.1535
17268TIP3    H173219   5.320   2.032   5.715  0.1432 -3.1922 -0.3578
17268TIP3    H273220   5.232   2.015   5.838  0.4196 -2.1013  0.0028
17269TIP3   OH273221   4.488   6.160   0.080 -0.4750 -0.0607 -0.1974
17269TIP3    H173222   4.529   6.228   0.026 -1.9912  0.0948 -1.2263
17269TIP3    H273223   4.522   6.078   0.045 -0.1403  0.0982 -0.2514
17270TIP3   OH273224   1.759   5.900  15.756 -0.6991 -0.9431  0.6471
17270TIP3    H173225   1.828   5.881  15.692 -0.7386 -3.0660  1.1580
17270TIP3    H273226   1.728   5.987  15.732  2.8753  0.6596  1.0853
17271TIP3   OH273227   6.580   6.184  16.572  0.5552  0.1565  0.5069
17271TIP3    H173228   6.665   6.144  16.557  0.5572  0.6996 -1.1748
17271TIP3    H273229   6.533   6.121  16.627  1.5693 -0.7532  0.3581
17272TIP3   OH273230   3.277   4.726   1.871  0.3477 -0.3410 -0.0916
17272TIP3    H173231   3.284   4.726   1.966  1.7109 -3.5684 -0.0684
17272TIP3    H273232   3.193   4.684   1.853  0.7508 -1.0928 -0.2689
17273TIP3   OH273233   4.665   0.337  17.160 -0.2247  0.2900 -0.4155
17273TIP3    H173234   4.733   0.366  17.219  0.4656  1.7847 -1.8740
17273TIP3    H273235   4.590   0.317  17.217  0.6816  0.8172  1.0080
17274TIP3   OH273236   5.410   1.039  15.466  0.2144 -0.5044  0.6593
17274TIP3    H173237   5.369   1.091  15.535 -0.9548 -0.4133 -0.0598
17274TIP3    H273238   5.346   1.042  15.394  0.6371 -2.0022  0.1998
17275TIP3   OH273239   0.067   5.154  13.505  0.3271 -0.0387  0.4764
17275TIP3    H173240   0.121   5.205  13.566 -0.2581  1.7298 -0.3864
17275TIP3    H273241   0.108   5.167  13.420 -0.4708 -0.1000  0.0740
17276TIP3   OH273242   5.088   2.480   3.794  0.4069 -0.7538  0.2427
17276TIP3    H173243   5.085   2.543   3.722 -1.5448  0.5340  1.3534
17276TIP3    H273244   4.999   2.480   3.829  0.9967 -2.2778  1.8673
17277TIP3   OH273245   4.696   3.344   2.692 -0.3173  0.2401  0.5650
17277TIP3    H173246   4.604   3.320   2.685 -0.6280  1.2572  1.0121
17277TIP3    H273247   4.702   3.430   2.650  0.6399 -0.2896 -0.4199
17278TIP3   OH273248   2.273   4.595  14.440 -0.4231 -0.4391  0.0516
17278TIP3    H173249   2.270   4.612  14.534 -0.0087 -0.0615 -0.0012
17278TIP3    H273250   2.183   4.569  14.418 -1.0011  1.2753  0.2107
17279TIP3   OH273251   4.710   2.158   3.660 -0.3681  0.7387  0.1696
17279TIP3    H173252   4.619   2.150   3.630 -0.6707  1.2144  0.9275
17279TIP3    H273253   4.761   2.167   3.580 -0.6711 -2.0696 -0.4350
17280TIP3   OH273254   1.246   2.630  15.755  0.0052 -0.7930 -0.0350
17280TIP3    H173255   1.205   2.655  15.672  1.5857  2.0428 -0.1026
17280TIP3    H273256   1.177   2.641  15.820 -0.4582 -0.0874 -0.6309
17281TIP3   OH273257   6.207   1.144   5.015  0.0651 -0.2315 -0.0790
17281TIP3    H173258   6.173   1.105   4.934 -0.0168 -0.4720  0.0684
17281TIP3    H273259   6.132   1.144   5.075  0.1163 -0.0230 -0.0128
17282TIP3   OH273260   3.647   5.600  11.906 -0.5116 -0.0585  0.4544
17282TIP3    H173261   3.652   5.694  11.923 -0.7575 -0.1551  1.0974
17282TIP3    H273262   3.596   5.593  11.826 -1.4219  0.3196  0.9842
17283TIP3   OH273263   5.072   5.658  14.987 -0.3252  0.3584  0.0582
17283TIP3    H173264   5.030   5.578  15.019  0.1839 -0.6335 -1.6386
17283TIP3    H273265   5.103   5.702  15.067  1.4459 -2.3113  0.9955
17284TIP3   OH273266   5.730   2.772  13.441  0.1146  0.2430  0.7123
17284TIP3    H173267   5.730   2.867  13.433 -0.7953  0.2198  0.2925
17284TIP3    H273268   5.822   2.747  13.428  0.1266  0.9452 -0.7315
17285TIP3   OH273269   5.219   3.303   5.070 -0.7103 -0.3603  0.2554
17285TIP3    H173270   5.261   3.260   5.145  1.2778  0.1029 -0.5194
17285TIP3    H273271   5.267   3.386   5.061 -1.0752 -0.2974 -1.3535
17286TIP3   OH273272   5.287   4.326  15.789  0.4916 -0.9349 -0.2775
17286TIP3    H173273   5.271   4.234  15.809 -0.0135 -1.2216 -1.9203
17286TIP3    H273274   5.208   4.371  15.818  1.2936 -0.7631  1.8511
17287TIP3   OH273275   5.226   1.044  11.910 -0.1455 -0.1549  0.6181
17287TIP3    H173276   5.274   0.993  11.974 -0.1939  1.0405  1.6456
17287TIP3    H273277   5.162   0.983  11.873  1.5855 -1.5685 -0.2092
17288TIP3   OH273278   0.296   0.805  12.041  0.0720  0.5023  0.3494
17288TIP3    H173279   0.288   0.899  12.028  1.4881  0.3504 -2.4828
17288TIP3    H273280   0.244   0.787  12.119 -0.4051  3.5706  0.8765
17289TIP3   OH273281   0.774   2.868  16.323  0.0142  0.2123 -0.5900
17289TIP3    H173282   0.869   2.861  16.315 -0.0238 -2.0509  0.0621
17289TIP3    H273283   0.757   2.961  16.335  2.4536  0.4662  2.1989
17290TIP3   OH273284   4.467   6.724  11.908  0.7112 -0.4690 -0.2445
17290TIP3    H173285   4.439   6.632  11.906  0.0655 -0.2809 -0.1334
17290TIP3    H273286   4.386   6.774  11.899  1.1817  0.0979 -1.6002
17291TIP3   OH273287   3.637   0.325   5.065 -0.3683  0.0375  0.1950
17291TIP3    H173288   3.562   0.266   5.059  0.3828 -0.8334 -0.9611
17291TIP3    H273289   3.616   0.396   5.004 -0.9284  0.6217  1.0307
17292TIP3   OH273290   1.207   0.922   6.625  0.2630 -0.2771 -0.2014
17292TIP3    H173291   1.182   0.830   6.616  1.5578 -0.6165 -0.5043
17292TIP3    H273292   1.153   0.955   6.697 -0.9007 -1.0049 -0.6957
17293TIP3   OH273293   3.032   6.337   2.600  0.3940  0.1681  0.2286
17293TIP3    H173294   3.062   6.366   2.514  1.3706 -0.0772  0.4740
17293TIP3    H273295   3.006   6.417   2.646  0.0257  0.3134 -0.2324
17294TIP3   OH273296   6.563   1.474   1.955 -0.0076  0.5954  0.2911
17294TIP3    H173297   6.568   1.399   2.015  0.1697  0.4890  0.1432
17294TIP3    H273298   6.490   1.453   1.896 -0.1533  0.6796  0.4379
17295TIP3   OH273299   2.358   1.934  16.078  0.0367  0.1182 -0.4919
17295TIP3    H173300   2.427   1.955  16.141  1.3626  0.3449 -1.9449
17295TIP3    H273301   2.279   1.974  16.115  0.8250  0.5136  0.8533
17296TIP3   OH273302   5.331   5.050  15.079  0.0284  0.4164 -0.0840
17296TIP3    H173303   5.386   5.004  15.016  1.3896  1.8175  0.0192
17296TIP3    H273304   5.393   5.093  15.138 -1.1789  1.4696  0.4814
17297TIP3   OH273305   3.792   6.224  16.877  0.7048  0.3084 -0.0910
17297TIP3    H173306   3.836   6.283  16.938 -1.7697  1.5492  0.6421
17297TIP3    H273307   3.828   6.138  16.897  1.2051  0.9222  1.9413
17298TIP3   OH273308   6.057   2.126  15.614  0.5606  0.7350  0.1632
17298TIP3    H173309   6.083   2.096  15.701  0.5201 -2.1908 -0.7290
17298TIP3    H273310   5.977   2.177  15.629  1.3588  1.5463  1.9436
17299TIP3   OH273311   2.761   0.169   1.195 -0.0398 -0.1541 -0.1431
17299TIP3    H173312   2.845   0.188   1.236 -0.0310 -0.5207  0.0117
17299TIP3    H273313   2.697   0.175   1.266  0.0289 -1.2098  0.0223
17300TIP3   OH273314   1.105   6.408  13.202  0.3386 -0.0083  0.4767
17300TIP3    H173315   1.148   6.407  13.288 -0.5761  1.1913  0.9790
17300TIP3    H273316   1.077   6.499  13.191 -1.4855 -0.6174 -0.1269
17301TIP3   OH273317   2.687   3.001  16.645  0.3992 -0.0467  0.6392
17301TIP3    H173318   2.675   2.906  16.640  2.5496 -0.3190 -0.6097
17301TIP3    H273319   2.621   3.030  16.708 -1.9750 -2.0239 -0.7290
17302TIP3   OH273320   1.404   2.337  16.608  0.4535 -0.3271 -0.0916
17302TIP3    H173321   1.475   2.394  16.639  0.4196  1.0844 -2.3837
17302TIP3    H273322   1.450   2.261  16.573  0.7062 -0.2949  0.1588
17303TIP3   OH273323   4.292   5.186   1.264  0.0066  0.3303  0.2852
17303TIP3    H173324   4.217   5.133   1.238 -0.8317  0.6450  1.9412
17303TIP3    H273325   4.335   5.209   1.182 -0.2568 -1.9218 -0.5488
17304TIP3   OH273326   5.821   3.807  14.676 -0.6447  0.1865 -0.8608
17304TIP3    H173327   5.881   3.878  14.701 -0.6494 -0.3774  0.8645
17304TIP3    H273328   5.873   3.751  14.618 -0.4041  1.1569 -1.6302
17305TIP3   OH273329   0.574   5.409  16.464  0.0357 -0.1271  0.1667
17305TIP3    H173330   0.660   5.443  16.443 -0.1199  0.0809 -0.1389
17305TIP3    H273331   0.534   5.390  16.379  0.1233 -1.0893  0.3278
17306TIP3   OH273332   4.427   6.178   3.668  0.1528  0.4994  0.4675
17306TIP3    H173333   4.358   6.235   3.636  0.7502  1.7157  1.2573
17306TIP3    H273334   4.447   6.120   3.595 -0.3126  1.4664 -0.4444
17307TIP3   OH273335   3.548   3.465   3.292  0.0469  0.2888  0.4840
17307TIP3    H173336   3.569   3.528   3.224 -0.2605  0.1806  0.2877
17307TIP3    H273337   3.621   3.471   3.354  0.9274 -0.4411 -0.4311
17308TIP3   OH273338   3.074   4.994   2.435 -0.4520 -0.5978  0.2650
17308TIP3    H173339   3.168   5.009   2.440 -0.1284 -2.6968  2.6164
17308TIP3    H273340   3.036   5.081   2.421  1.7569  0.4723  0.5290
17309TIP3   OH273341   6.307   3.167  13.806  0.0199 -0.0067 -0.2005
17309TIP3    H173342   6.224   3.180  13.852  0.1030  1.0208 -0.3222
17309TIP3    H273343   6.324   3.073  13.815  0.1169  0.1632  1.9952
17310TIP3   OH273344   1.829   2.804   0.466  0.1699  0.4432 -0.7509
17310TIP3    H173345   1.803   2.791   0.375  0.0927  0.3484 -0.7164
17310TIP3    H273346   1.863   2.718   0.493 -1.5711 -0.0915 -0.1233
17311TIP3   OH273347   3.290   3.314   5.437  0.5293 -0.0347  0.1069
17311TIP3    H173348   3.202   3.289   5.411  0.1707 -1.2617  2.2359
17311TIP3    H273349   3.341   3.313   5.355 -1.2933  0.2346 -1.0737
17312TIP3   OH273350   0.594   0.098  16.965 -0.1643  0.2398  0.2078
17312TIP3    H173351   0.608   0.128  16.875 -2.2460  0.4510 -0.1107
17312TIP3    H273352   0.568   0.006  16.956  2.3474 -0.6104  0.8719
17313TIP3   OH273353   3.733   6.738   4.838 -0.3831  0.3991 -0.0720
17313TIP3    H173354   3.804   6.693   4.884 -0.6247 -1.3522 -1.2852
17313TIP3    H273355   3.765   6.826   4.823  0.9882  0.0317  0.5623
17314TIP3   OH273356   6.006   3.395   3.975 -0.5841 -0.1459  0.0478
17314TIP3    H173357   5.973   3.443   3.898  0.5730  2.0175  0.8207
17314TIP3    H273358   6.085   3.350   3.943  0.2875  1.3013  0.0770
17315TIP3   OH273359   1.838   0.962  15.498  0.1797 -0.2522 -0.0272
17315TIP3    H173360   1.825   0.900  15.571 -2.3509  1.4872  1.1664
17315TIP3    H273361   1.887   1.034  15.537  1.4171 -0.6144 -0.8845
17316TIP3   OH273362   3.211   0.884   1.363  0.5242  0.2303  0.1499
17316TIP3    H173363   3.161   0.896   1.444  1.0317  1.2123  0.3309
17316TIP3    H273364   3.251   0.969   1.346 -0.7323  0.4864 -1.9304
17317TIP3   OH273365   1.532   4.389   5.152 -0.4738  0.2884 -0.1295
17317TIP3    H173366   1.625   4.410   5.146 -0.3960 -0.2429 -1.1295
17317TIP3    H273367   1.525   4.330   5.227 -0.0426  0.5079  0.0846
17318TIP3   OH273368   4.826   0.213   1.093  0.2412  0.2293 -0.2718
17318TIP3    H173369   4.807   0.157   1.168 -0.9607  1.8751  0.7126
17318TIP3    H273370   4.871   0.289   1.130 -0.2280  0.9915 -1.2217
17319TIP3   OH273371   4.984   0.916  12.428 -0.3513 -0.9889  0.6851
17319TIP3    H173372   5.037   0.878  12.357  0.3377 -0.3009  0.8158
17319TIP3    H273373   4.942   0.992  12.388  1.6484  0.6397  1.4783
17320TIP3   OH273374   5.436   6.444  14.750 -1.0481  0.2233 -0.0008
17320TIP3    H173375   5.372   6.391  14.796 -1.4166  0.2403 -0.4914
17320TIP3    H273376   5.386   6.517  14.714 -0.8597 -0.0779 -0.8877
17321TIP3   OH273377   0.201   2.217   5.618  0.0532  0.2448  0.2049
17321TIP3    H173378   0.204   2.308   5.588 -1.3355  0.4909  0.7204
17321TIP3    H273379   0.117   2.210   5.663 -0.6542 -1.7435 -1.2842
17322TIP3   OH273380   4.113   6.319  14.427 -0.2006 -0.1734  0.3446
17322TIP3    H173381   4.206   6.337  14.430 -0.3176  0.5279 -0.0884
17322TIP3    H273382   4.081   6.344  14.514 -0.2763  1.3152 -0.0838
17323TIP3   OH273383   1.624   3.643  10.795  0.2076  0.0370  0.6338
17323TIP3    H173384   1.712   3.676  10.774 -0.4824  2.0442  0.6780
17323TIP3    H273385   1.569   3.721  10.798 -1.7671 -1.2318 -0.1844
17324TIP3   OH273386   2.008   2.487  14.561 -0.8105 -0.0157 -0.3431
17324TIP3    H173387   1.942   2.509  14.496 -0.2742  0.2492 -0.8157
17324TIP3    H273388   2.079   2.550  14.545  1.7067 -3.1614 -3.0713
17325TIP3   OH273389   5.279   5.885  14.648  0.2168  0.3192  0.0340
17325TIP3    H173390   5.256   5.836  14.727  2.5184 -0.6930  0.1379
17325TIP3    H273391   5.299   5.818  14.582  0.9077  1.1224 -0.5962
17326TIP3   OH273392   4.160   0.923   0.449 -0.0730  0.2735 -0.0991
17326TIP3    H173393   4.169   0.929   0.353 -2.7761  0.1617 -0.4238
17326TIP3    H273394   4.164   1.013   0.479 -0.6904  0.4437 -0.5022
17327TIP3   OH273395   6.303   4.828  14.013 -0.6193  0.1352 -0.7662
17327TIP3    H173396   6.225   4.800  14.061 -0.5719 -2.2469 -1.9597
17327TIP3    H273397   6.376   4.802  14.069 -0.6025  1.8429  0.0797
17328TIP3   OH273398   2.470   0.416  12.103  0.6777 -0.9065  0.0528
17328TIP3    H173399   2.425   0.390  12.023  1.0835 -1.5009  0.0074
17328TIP3    H273400   2.457   0.341  12.162 -0.7941  0.0866  1.0310
17329TIP3   OH273401   4.473   4.396  11.756  0.0446 -0.1040  0.2604
17329TIP3    H173402   4.481   4.354  11.842  1.0240  0.6089  0.5340
17329TIP3    H273403   4.419   4.474  11.772 -0.6856 -0.5477  0.0054
17330TIP3   OH273404   1.651   0.533  17.078  1.0085 -0.3560  0.0905
17330TIP3    H173405   1.598   0.539  17.156  0.7893  0.1773 -0.0957
17330TIP3    H273406   1.602   0.581  17.011  1.7532  0.2174 -0.0590
17331TIP3   OH273407   4.989   3.894  14.114 -0.4184 -0.2314 -0.0466
17331TIP3    H173408   4.910   3.847  14.089  0.1327 -0.8799 -0.6022
17331TIP3    H273409   5.031   3.917  14.031  0.1513 -0.2001  0.2464
17332TIP3   OH273410   1.587   3.116  14.956 -0.6497 -0.4046  0.3869
17332TIP3    H173411   1.521   3.167  15.003 -1.5038 -0.2426 -0.9377
17332TIP3    H273412   1.538   3.045  14.916 -0.0871 -0.0753 -0.9296
17333TIP3   OH273413   3.655   3.200   1.982 -0.4962  0.0339  0.5753
17333TIP3    H173414   3.691   3.239   1.902 -0.7254  0.9254  0.8931
17333TIP3    H273415   3.671   3.106   1.973  1.9851  0.3875  0.7372
17334TIP3   OH273416   4.619   4.031  16.510  0.2814  0.4810  1.2275
17334TIP3    H173417   4.615   3.943  16.472 -3.5317  1.3474 -0.9859
17334TIP3    H273418   4.650   4.086  16.439 -2.9718  1.5637  0.4545
17335TIP3   OH273419   4.382   0.870  14.840  0.6288 -0.3270 -0.0207
17335TIP3    H173420   4.398   0.917  14.921  0.2314 -0.4779  0.1497
17335TIP3    H273421   4.469   0.848  14.806  0.8378  0.8147 -0.2735
17336TIP3   OH273422   1.628   4.935   1.895  0.3925  0.6507  0.5941
17336TIP3    H173423   1.610   4.865   1.833  0.9025 -0.1232  1.2998
17336TIP3    H273424   1.722   4.951   1.887  0.4547  0.5779  1.1172
17337TIP3   OH273425   1.794   1.980   1.354  0.0805  0.0956  0.1258
17337TIP3    H173426   1.882   2.017   1.360 -0.4431  1.6031 -0.9863
17337TIP3    H273427   1.739   2.052   1.323 -1.5006 -0.8963  0.4930
17338TIP3   OH273428   3.629   3.262   5.032  0.0677 -0.0795 -0.1306
17338TIP3    H173429   3.666   3.343   5.068  1.1438 -0.2025 -0.9287
17338TIP3    H273430   3.537   3.283   5.017  0.1378  0.7198  0.4679
17339TIP3   OH273431   4.545   2.152  13.856  0.0055 -0.2247 -0.6102
17339TIP3    H173432   4.628   2.125  13.894 -0.3057  0.5219  0.6400
17339TIP3    H273433   4.563   2.239  13.819 -0.4358  0.3598  0.5078
17340TIP3   OH273434   0.311   6.108  14.644 -0.4689  1.0012 -0.0059
17340TIP3    H173435   0.324   6.013  14.644 -3.2452  0.5271 -0.6228
17340TIP3    H273436   0.321   6.134  14.736 -0.4948 -0.0467  0.3057
17341TIP3   OH273437   0.714   4.317  10.893  0.3259  1.0307  0.2983
17341TIP3    H173438   0.701   4.381  10.823  0.4590  0.8455  0.1066
17341TIP3    H273439   0.789   4.265  10.865 -0.3526  0.1927  0.0232
17342TIP3   OH273440   5.354   0.745  14.868 -0.3419 -0.5217  0.4386
17342TIP3    H173441   5.392   0.788  14.792 -2.0791 -0.2978 -0.3532
17342TIP3    H273442   5.365   0.652  14.851 -0.3043 -0.4635  0.1454
17343TIP3   OH273443   0.676   6.526  12.734  0.4183  0.6419 -0.6892
17343TIP3    H173444   0.758   6.506  12.779 -0.0413  2.5184  1.1578
17343TIP3    H273445   0.611   6.471  12.777  0.4705  0.1476 -1.2312
17344TIP3   OH273446   4.729   5.888  11.682  0.2342 -0.2512  0.1268
17344TIP3    H173447   4.793   5.860  11.616  0.2391 -0.5307  0.2506
17344TIP3    H273448   4.648   5.902  11.632  0.7057  1.3448 -0.2468
17345TIP3   OH273449   1.414   2.546   0.681  0.6703  0.0928 -0.1746
17345TIP3    H173450   1.352   2.560   0.752  0.0541  3.0095 -1.1667
17345TIP3    H273451   1.381   2.468   0.636 -1.6847  0.9015 -0.0002
17346TIP3   OH273452   1.747   4.079  15.620 -0.5549  0.6460 -0.7674
17346TIP3    H173453   1.819   4.140  15.607 -0.6257  0.5286 -1.8345
17346TIP3    H273454   1.734   4.077  15.714 -0.7835  2.5550 -0.7047
17347TIP3   OH273455   6.335   3.024  11.788  0.1404 -0.0134 -0.7125
17347TIP3    H173456   6.390   2.997  11.862 -1.7319 -0.2648  0.6651
17347TIP3    H273457   6.329   2.945  11.733 -0.3782 -0.6006  0.1490
17348TIP3   OH273458   4.152   3.073   1.202  0.6811  0.0407 -0.5952
17348TIP3    H173459   4.207   3.130   1.148  1.5090  0.8701  1.0457
17348TIP3    H273460   4.138   3.123   1.282  1.8272 -2.2138  1.1279
17349TIP3   OH273461   4.637   4.521   4.842 -0.3650 -0.0111 -0.1871
17349TIP3    H173462   4.630   4.478   4.757 -1.0469  0.7790 -0.5446
17349TIP3    H273463   4.547   4.523   4.876 -0.6780  2.6388 -0.9600
17350TIP3   OH273464   6.109   1.106   3.231 -0.5321 -0.6261  0.2248
17350TIP3    H173465   6.120   1.019   3.268 -1.4784 -0.8152  0.1023
17350TIP3    H273466   6.163   1.163   3.285  0.5428 -1.3736 -0.0489
17351TIP3   OH273467   3.957   1.706   0.247  0.3543 -0.6010 -0.0164
17351TIP3    H173468   4.009   1.648   0.302  2.1119 -0.7702 -1.7399
17351TIP3    H273469   3.893   1.648   0.205  1.1219 -1.0409 -0.5941
17352TIP3   OH273470   2.185   3.153  14.255  0.3701 -0.1489 -0.1113
17352TIP3    H173471   2.278   3.128  14.249  0.2765 -0.6708  0.4721
17352TIP3    H273472   2.158   3.122  14.341 -0.6571 -1.0728 -0.7386
17353TIP3   OH273473   6.432   3.779   3.792  0.6171 -0.0182 -0.5460
17353TIP3    H173474   6.408   3.694   3.830  0.9214  0.6475  1.2514
17353TIP3    H273475   6.491   3.757   3.720 -1.5139 -1.4429 -1.9703
17354TIP3   OH273476   2.751   0.874   3.914  0.5114 -0.3891  0.9311
17354TIP3    H173477   2.696   0.805   3.953  1.0012 -0.3374  1.7283
17354TIP3    H273478   2.757   0.941   3.982 -2.3586  1.8733 -0.7892
17355TIP3   OH273479   2.237   1.537   2.190  0.7151 -0.3135 -0.2211
17355TIP3    H173480   2.300   1.500   2.128  0.4222 -1.8556  0.3502
17355TIP3    H273481   2.189   1.603   2.139 -0.0437 -2.0631 -1.9263
17356TIP3   OH273482   3.321   2.107  14.609  0.2060  0.6022 -0.1597
17356TIP3    H173483   3.257   2.046  14.572  1.0325  0.8349 -2.1274
17356TIP3    H273484   3.292   2.120  14.699  0.2348 -3.0073  0.5170
17357TIP3   OH273485   0.548   4.851  16.575 -0.1720 -0.0967 -0.1545
17357TIP3    H173486   0.538   4.782  16.640 -1.3300 -1.6695 -1.8978
17357TIP3    H273487   0.616   4.909  16.611  0.3335 -1.7389  1.6858
17358TIP3   OH273488   5.772   2.936   1.681  0.4270 -0.1017 -0.0419
17358TIP3    H173489   5.743   2.949   1.771 -1.2353  0.8642 -0.6767
17358TIP3    H273490   5.818   2.852   1.683  0.2368 -0.2032  1.6506
17359TIP3   OH273491   0.344   5.886   1.298  0.1086  0.1071  0.7608
17359TIP3    H173492   0.332   5.807   1.351  0.4369 -1.0522 -0.8285
17359TIP3    H273493   0.336   5.856   1.208  3.1307  1.3530 -0.0324
17360TIP3   OH273494   5.643   2.570  11.829 -0.0725  0.1099 -0.1922
17360TIP3    H173495   5.653   2.642  11.767  1.8933  0.3087  0.2787
17360TIP3    H273496   5.717   2.512  11.811 -1.5199 -1.7576 -0.4558
17361TIP3   OH273497   4.831   4.885   3.086  0.3718  0.1427 -0.0140
17361TIP3    H173498   4.804   4.841   3.167 -1.6345  3.1907  1.1131
17361TIP3    H273499   4.753   4.885   3.031 -0.5585  4.2004  1.0179
17362TIP3   OH273500   3.770   3.328   3.088  0.0594 -0.5437  0.3123
17362TIP3    H173501   3.686   3.369   3.112  0.8910  4.0231 -3.2134
17362TIP3    H273502   3.748   3.268   3.017 -0.4201 -1.2305  1.0195
17363TIP3   OH273503   5.397   0.545  12.155 -0.1373 -0.4809  0.2673
17363TIP3    H173504   5.346   0.549  12.236  0.0741  1.7830  0.3384
17363TIP3    H273505   5.487   0.532  12.185  0.2476  2.3997  0.6020
17364TIP3   OH273506   4.476   6.635  15.399  0.3467 -0.3355  0.1477
17364TIP3    H173507   4.560   6.678  15.412 -0.0139  0.3144  0.4039
17364TIP3    H273508   4.446   6.613  15.488  1.2090 -2.5129 -0.0388
17365TIP3   OH273509   5.047   6.448   2.460  0.2138 -0.3417  0.7245
17365TIP3    H173510   5.108   6.522   2.464 -0.6235  0.3596  0.8309
17365TIP3    H273511   4.967   6.485   2.422 -1.3844 -0.3769  3.7848
17366TIP3   OH273512   2.092   5.783  12.111 -0.2947 -0.3449 -0.3911
17366TIP3    H173513   2.111   5.722  12.041 -2.2699 -0.8459 -0.5495
17366TIP3    H273514   2.105   5.870  12.072  0.9380 -0.6319 -0.6415
17367TIP3   OH273515   6.172   2.562  17.140  0.4986  0.9700  0.1124
17367TIP3    H173516   6.229   2.511  17.082 -1.3997 -0.8928 -0.2476
17367TIP3    H273517   6.138   2.633  17.086 -1.1995 -0.7106 -1.1619
17368TIP3   OH273518   5.492   3.859   3.671 -0.0557  0.7246 -0.1408
17368TIP3    H173519   5.576   3.821   3.643 -1.7908 -1.2511 -3.2776
17368TIP3    H273520   5.469   3.919   3.600 -1.2181  1.3992  0.7830
17369TIP3   OH273521   5.762   1.036   1.009 -0.3514  0.1546  0.2015
17369TIP3    H173522   5.797   0.947   1.015 -0.2427  0.2610  1.4260
17369TIP3    H273523   5.840   1.092   1.001 -0.3230  0.2444  0.9990
17370TIP3   OH273524   1.922   0.319  12.704 -0.1316  0.0666  0.4287
17370TIP3    H173525   1.851   0.354  12.757  0.8869  1.0583  1.2058
17370TIP3    H273526   1.916   0.366  12.621 -0.1175  0.4752  0.6583
17371TIP3   OH273527   0.567   5.520  13.940  0.1302  0.0957 -0.5456
17371TIP3    H173528   0.514   5.478  13.872 -0.1256 -0.6389  0.1023
17371TIP3    H273529   0.613   5.590  13.893 -0.5848  0.0645 -1.3373
17372TIP3   OH273530   6.093   2.410  13.421 -0.2573  0.0776 -0.2052
17372TIP3    H173531   6.185   2.386  13.436 -0.3685  0.6708  1.7306
17372TIP3    H273532   6.044   2.353  13.481 -1.1772 -0.2670 -1.2608
17373TIP3   OH273533   3.282   6.058  11.907 -0.1504  0.1256 -0.2844
17373TIP3    H173534   3.375   6.049  11.886 -0.3790 -0.2852 -1.1953
17373TIP3    H273535   3.240   5.983  11.865 -0.7113 -0.5730  1.4267
17374TIP3   OH273536   6.541   0.987   3.819  0.6435  0.1841  0.4968
17374TIP3    H173537   6.454   0.953   3.795  1.4447 -1.1636 -0.6548
17374TIP3    H273538   6.544   0.979   3.914 -0.0435 -0.9669  0.4480
17375TIP3   OH273539   3.564   2.070  16.347  0.0521 -0.1446 -0.5199
17375TIP3    H173540   3.604   1.990  16.381 -1.5038 -0.6346  0.2509
17375TIP3    H273541   3.503   2.097  16.415 -2.4087 -0.5767 -2.4388
17376TIP3   OH273542   1.022   5.149  12.728 -0.3630  0.3435  0.3957
17376TIP3    H173543   1.070   5.112  12.802 -0.2931 -1.5904 -0.5511
17376TIP3    H273544   1.025   5.080  12.661  0.2720  2.3120 -1.7322
17377TIP3   OH273545   3.460   1.479   3.441 -0.3037 -0.5838  0.1996
17377TIP3    H173546   3.375   1.487   3.486 -0.2444  0.0819  0.2056
17377TIP3    H273547   3.441   1.499   3.350  0.1088  1.1480  0.4659
17378TIP3   OH273548   3.937   1.174   1.876  0.1663 -0.1083 -0.3086
17378TIP3    H173549   3.883   1.143   1.803 -0.9002  2.1417 -0.5662
17378TIP3    H273550   4.018   1.124   1.869 -1.3280 -2.6487 -0.7401
17379TIP3   OH273551   5.221   2.022   0.853  0.3744  0.0656  0.4638
17379TIP3    H173552   5.273   1.984   0.924 -0.0929  1.5098  1.6278
17379TIP3    H273553   5.132   2.022   0.886 -0.0938 -0.6219 -0.7505
17380TIP3   OH273554   1.464   0.388   5.868 -0.1131 -0.5703 -0.2297
17380TIP3    H173555   1.538   0.422   5.818  0.9559 -1.7181  0.5143
17380TIP3    H273556   1.489   0.401   5.960 -1.9575  1.3415  0.0900
17381TIP3   OH273557   4.632   6.264  15.818 -0.0749 -0.0381  0.0104
17381TIP3    H173558   4.646   6.304  15.904  0.2008  0.9421 -0.4782
17381TIP3    H273559   4.541   6.286  15.796  0.1025  0.4121 -0.2945
17382TIP3   OH273560   1.991   4.982   0.495 -0.0235  0.0724  0.2479
17382TIP3    H173561   1.897   4.994   0.481 -0.3222 -0.7098  1.4002
17382TIP3    H273562   2.002   4.983   0.590  1.0595 -0.3371  0.1470
17383TIP3   OH273563   2.530   0.005  15.252 -0.5254 -0.2398  0.2219
17383TIP3    H173564   2.545   0.020  15.345 -0.8817  0.1764  0.2167
17383TIP3    H273565   2.587   0.069  15.208  0.1357 -0.8777  0.1370
17384TIP3   OH273566   5.120   4.763   6.406  0.8781  0.5500 -0.2923
17384TIP3    H173567   5.194   4.713   6.371  0.2370 -0.9541  0.4553
17384TIP3    H273568   5.090   4.714   6.482 -0.4713  1.4990 -0.1657
17385TIP3   OH273569   0.426   1.568  16.544 -0.0295  0.1708  0.2559
17385TIP3    H173570   0.428   1.664  16.544 -1.3259  0.2203 -0.0181
17385TIP3    H273571   0.368   1.545  16.617 -0.8371 -0.3487 -0.5297
17386TIP3   OH273572   1.251   0.280  10.960 -0.3429  0.4887  0.3618
17386TIP3    H173573   1.340   0.308  10.936 -0.3210 -0.0112 -0.1421
17386TIP3    H273574   1.207   0.361  10.985 -0.4105  1.0543 -1.4946
17387TIP3   OH273575   3.772   6.007   3.889  0.5578 -0.1231 -0.1156
17387TIP3    H173576   3.866   6.007   3.871  0.3399 -0.7613 -1.3290
17387TIP3    H273577   3.763   6.061   3.968  1.9093  0.1373 -0.1144
17388TIP3   OH273578   1.630   3.306   2.375 -0.7756 -0.1585 -0.0419
17388TIP3    H173579   1.604   3.214   2.378  0.1937 -0.4251  0.9540
17388TIP3    H273580   1.608   3.340   2.462 -1.5412  0.6863 -0.5475
17389TIP3   OH273581   0.793   2.493  15.448 -0.1277  0.2836 -0.9544
17389TIP3    H173582   0.701   2.513  15.463 -0.4032 -0.3463 -1.7613
17389TIP3    H273583   0.802   2.401  15.475  0.2604  0.3292 -0.9205
17390TIP3   OH273584   3.829   2.393   1.842  0.0237 -0.0166  0.2821
17390TIP3    H173585   3.748   2.416   1.888  0.4802  0.3318  0.9194
17390TIP3    H273586   3.814   2.419   1.752 -1.0246 -1.0391  0.1350
17391TIP3   OH273587   0.934   3.309   1.531  0.4764 -0.8630  0.4207
17391TIP3    H173588   0.960   3.392   1.489  1.0535 -1.5320 -0.5877
17391TIP3    H273589   0.958   3.242   1.468 -2.9192 -1.6526 -0.2356
17392TIP3   OH273590   1.122   3.497  15.548  0.3661 -0.1745 -0.5409
17392TIP3    H173591   1.098   3.485  15.640  0.8191  0.8862 -0.2666
17392TIP3    H273592   1.150   3.411  15.518 -1.1415 -0.8576 -0.1045
17393TIP3   OH273593   2.258   0.577  11.643 -0.5546 -1.2013 -0.7976
17393TIP3    H173594   2.313   0.630  11.700 -0.8018 -0.3092 -1.3738
17393TIP3    H273595   2.309   0.568  11.563 -2.0635  1.4811 -2.1879
17394TIP3   OH273596   2.514   0.430  15.950 -0.0298  0.5149  0.7158
17394TIP3    H173597   2.593   0.387  15.984 -0.2063  0.4110  0.9953
17394TIP3    H273598   2.520   0.418  15.855  1.4069  2.3774  0.4967
17395TIP3   OH273599   3.045   3.853  13.087  0.5664  0.2410  0.4583
17395TIP3    H173600   2.986   3.781  13.063  0.7369  0.1984  0.1563
17395TIP3    H273601   3.107   3.815  13.149  0.5719  0.1619  0.4043
17396TIP3   OH273602   4.612   2.457   1.292 -0.0805 -0.1832  0.2616
17396TIP3    H173603   4.618   2.514   1.368  0.6106  0.6932 -0.4173
17396TIP3    H273604   4.543   2.394   1.313  1.3450 -1.1335  2.3456
17397TIP3   OH273605   5.463   3.786   0.215 -0.5965  0.3225  0.3755
17397TIP3    H173606   5.489   3.819   0.301 -0.2481 -0.0560  0.4215
17397TIP3    H273607   5.491   3.694   0.216 -1.0140  0.1905  0.0336
17398TIP3   OH273608   0.517   0.356  16.771  0.3465  0.5282 -0.1073
17398TIP3    H173609   0.495   0.449  16.762  1.0170  1.0146  2.4873
17398TIP3    H273610   0.448   0.321  16.828  0.3700 -0.4534 -0.6693
17399TIP3   OH273611   2.455   6.716   3.643 -0.0396  0.1605 -0.2087
17399TIP3    H173612   2.383   6.666   3.681 -0.5034  1.3932  0.6021
17399TIP3    H273613   2.488   6.769   3.715  0.5861  0.8455 -0.9792
17400TIP3   OH273614   5.696   2.793   4.080  0.0375  0.0918  0.2366
17400TIP3    H173615   5.614   2.766   4.038  0.4603  0.3466 -0.7781
17400TIP3    H273616   5.764   2.777   4.014  0.6186  1.2442  0.5235
17401TIP3   OH273617   4.638   1.506  12.079  0.1982  0.3909  0.6134
17401TIP3    H173618   4.562   1.557  12.051  0.2732  1.6231  2.4468
17401TIP3    H273619   4.702   1.516  12.008 -0.3241  1.6723  0.2984
17402TIP3   OH273620   2.454   1.506  11.093  0.9707 -0.3766  1.1777
17402TIP3    H173621   2.371   1.462  11.074  0.7191  1.0410 -1.5058
17402TIP3    H273622   2.439   1.549  11.177 -2.4494  2.6973 -0.6788
17403TIP3   OH273623   0.523   2.648   1.688  0.3881  0.5064 -0.0513
17403TIP3    H173624   0.481   2.635   1.602  0.9611 -1.0509 -0.1362
17403TIP3    H273625   0.614   2.623   1.674  0.2920 -0.6884  1.2049
17404TIP3   OH273626   3.362   3.645  10.274  0.1839  0.2158  0.0586
17404TIP3    H173627   3.266   3.643  10.280  0.2240  0.5104  0.9623
17404TIP3    H273628   3.391   3.640  10.365  1.0366 -0.0742 -0.2274
17405TIP3   OH273629   4.688   5.031  12.778  0.2477  0.1518  0.1296
17405TIP3    H173630   4.629   4.966  12.818 -1.7042  0.4650 -1.9899
17405TIP3    H273631   4.635   5.110  12.772  0.9961  0.5722 -1.4994
17406TIP3   OH273632   2.014   5.899   1.868 -0.0835 -0.0120  0.2575
17406TIP3    H173633   2.080   5.933   1.807 -0.5166  0.2753 -0.0597
17406TIP3    H273634   2.057   5.904   1.954  0.3617  0.0274  0.0398
17407TIP3   OH273635   3.475   2.029   2.833 -0.2867 -0.4296  0.4529
17407TIP3    H173636   3.507   2.110   2.793  0.5445 -0.9806 -0.0412
17407TIP3    H273637   3.405   2.057   2.891  0.0497  0.6546  0.3654
17408TIP3   OH273638   5.030   3.840   2.012 -0.5538  0.1832  0.0086
17408TIP3    H173639   5.116   3.799   2.011 -1.6069 -2.1719  0.1173
17408TIP3    H273640   4.972   3.775   2.051 -2.1301  2.3128  1.5254
17409TIP3   OH273641   4.836   6.055  14.255 -0.5367 -0.0653 -0.5115
17409TIP3    H173642   4.758   6.000  14.260  0.5069 -1.5273  0.2183
17409TIP3    H273643   4.871   6.055  14.344  2.2564 -2.4183 -1.4534
17410TIP3   OH273644   5.964   3.230   1.045 -0.4454 -0.1139 -0.6947
17410TIP3    H173645   6.008   3.261   1.125 -0.8987 -0.8079 -0.1606
17410TIP3    H273646   6.020   3.260   0.974  0.6292 -0.5188 -0.0564
17411TIP3   OH273647   5.911   2.596   4.302  0.2470  0.0080  0.0731
17411TIP3    H173648   5.905   2.591   4.397 -2.0058 -0.1745 -0.0276
17411TIP3    H273649   5.916   2.505   4.273  0.7979  0.0581  0.0069
17412TIP3   OH273650   6.582   4.547  14.450 -0.3299 -0.3279 -0.3106
17412TIP3    H173651   6.523   4.622  14.463  3.0941  2.6264 -0.1772
17412TIP3    H273652   6.552   4.507  14.368 -1.6147  1.9869 -1.0757
17413TIP3   OH273653   6.535   6.026  14.089  0.2139  0.1495 -0.0272
17413TIP3    H173654   6.615   6.013  14.140  0.2878 -0.2296 -0.2373
17413TIP3    H273655   6.469   5.972  14.133 -0.1471  1.1002  0.6369
17414TIP3   OH273656   1.984   2.306  17.185  0.1352  0.2176  0.2268
17414TIP3    H173657   2.074   2.281  17.161 -0.0212 -0.4248  0.2908
17414TIP3    H273658   1.968   2.387  17.136  1.3272  1.2687  1.4825
17415TIP3   OH273659   6.429   1.421  14.382  0.4794  0.1345  1.0351
17415TIP3    H173660   6.488   1.346  14.382 -0.9807 -1.0582  0.3897
17415TIP3    H273661   6.479   1.491  14.339  1.1722 -1.0456 -0.1492
17416TIP3   OH273662   2.211   6.079   1.727 -0.0679  0.1022 -0.3848
17416TIP3    H173663   2.267   6.050   1.655  1.2177  0.3189  0.4948
17416TIP3    H273664   2.161   6.151   1.690  0.4492  0.1017 -1.1203
17417TIP3   OH273665   0.876   4.800  15.825 -0.0569  0.1487  0.5840
17417TIP3    H173666   0.913   4.749  15.897  1.9284  1.1720  0.3441
17417TIP3    H273667   0.940   4.869  15.808 -2.4896  2.5926  0.7051
17418TIP3   OH273668   2.236   1.930  12.819 -0.1320  0.0482  0.0677
17418TIP3    H173669   2.191   1.908  12.901  0.9212 -1.5450  0.2608
17418TIP3    H273670   2.295   2.002  12.843 -1.8626  1.5620  0.0082
17419TIP3   OH273671   5.405   4.881   3.987  0.0724  0.1953  0.6430
17419TIP3    H173672   5.421   4.923   3.902 -1.0666  1.7145  1.1307
17419TIP3    H273673   5.310   4.886   3.998  0.0625 -1.1864  1.4461
17420TIP3   OH273674   6.486   4.961   2.193 -0.0127 -0.2645 -0.3390
17420TIP3    H173675   6.454   4.883   2.237  1.4374 -0.2090  0.8919
17420TIP3    H273676   6.411   4.992   2.142 -1.0036 -1.7054  0.1756
17421TIP3   OH273677   0.776   3.988  13.144  0.3195  0.1596  0.1047
17421TIP3    H173678   0.732   3.987  13.229  2.4731  1.5123  1.3435
17421TIP3    H273679   0.732   4.058  13.095 -1.5348 -1.2317 -0.3241
17422TIP3   OH273680   3.814   0.648   6.588 -0.1711  0.9647  0.8104
17422TIP3    H173681   3.773   0.597   6.518  2.0147 -0.5290  0.5264
17422TIP3    H273682   3.788   0.738   6.570 -1.0781  0.4088 -0.9002
17423TIP3   OH273683   2.850   4.733   1.827  0.1863  0.3571  0.1692
17423TIP3    H173684   2.936   4.709   1.793 -0.4312 -0.7453 -0.6914
17423TIP3    H273685   2.861   4.822   1.860  1.3217  0.7334 -1.1306
17424TIP3   OH273686   0.694   2.790   5.579 -0.1758 -0.2628  0.0694
17424TIP3    H173687   0.728   2.869   5.621 -0.9891  0.1381 -0.0262
17424TIP3    H273688   0.693   2.725   5.650  1.8027 -0.6158 -0.1580
17425TIP3   OH273689   4.085   2.371  13.341  0.1491 -0.0480 -0.0570
17425TIP3    H173690   3.998   2.357  13.304 -0.5179 -2.4106  2.0919
17425TIP3    H273691   4.073   2.441  13.405 -0.0788  0.0038 -0.1584
17426TIP3   OH273692   4.541   0.757  15.274 -0.5772 -0.4402 -0.2537
17426TIP3    H173693   4.538   0.837  15.327 -1.8049 -0.2154 -0.6386
17426TIP3    H273694   4.624   0.716  15.298 -1.7021 -1.1023  2.9262
17427TIP3   OH273695   3.258   6.594   6.511 -0.3026  0.2816  0.6872
17427TIP3    H173696   3.318   6.556   6.574  0.6374  2.2691  1.0778
17427TIP3    H273697   3.315   6.638   6.448 -1.3039  1.5158  0.6060
17428TIP3   OH273698   5.467   2.338  12.610 -0.4339 -0.3796  0.1404
17428TIP3    H173699   5.410   2.310  12.681 -0.3395 -0.6934  0.0953
17428TIP3    H273700   5.547   2.286  12.621 -0.1346  0.0993  0.2404
17429TIP3   OH273701   4.142   0.503   2.200  0.5669  0.1715  0.0134
17429TIP3    H173702   4.073   0.567   2.221 -0.6032 -0.5065 -1.5911
17429TIP3    H273703   4.145   0.446   2.278  0.4044  1.1225  0.7357
17430TIP3   OH273704   0.935   3.495   0.436  0.2198  0.5681 -0.1971
17430TIP3    H173705   0.880   3.417   0.433 -0.2301  0.9179 -1.9043
17430TIP3    H273706   0.873   3.568   0.445  0.5904  0.7861  0.6832
17431TIP3   OH273707   3.663   6.508  11.469  0.6248 -0.3998  0.2640
17431TIP3    H173708   3.598   6.468  11.411  2.0668 -2.3807 -0.0866
17431TIP3    H273709   3.648   6.465  11.553  0.9407 -0.2748  0.3832
17432TIP3   OH273710   3.544   0.244  15.478 -0.4544  0.6757  0.4731
17432TIP3    H173711   3.467   0.225  15.426  0.5582  1.0234 -1.2347
17432TIP3    H273712   3.544   0.177  15.547 -1.0129 -0.8068 -0.8982
17433TIP3   OH273713   1.612   0.388   2.033  0.8601  0.1720 -0.1699
17433TIP3    H173714   1.661   0.374   2.114 -0.5127  0.8783  0.8305
17433TIP3    H273715   1.620   0.482   2.016 -1.6085  0.7054  1.0826
17434TIP3   OH273716   4.785   0.964   4.612  0.3625 -0.2298 -0.3848
17434TIP3    H173717   4.832   0.888   4.577  2.3330  0.8387 -0.2387
17434TIP3    H273718   4.693   0.940   4.606  0.9046 -2.7247 -0.1273
17435TIP3   OH273719   3.664   2.108  12.368  0.0251  0.4597 -0.0360
17435TIP3    H173720   3.611   2.106  12.288 -0.6497 -0.5407  0.4201
17435TIP3    H273721   3.754   2.115  12.336  0.0861 -3.2900 -1.0934
17436TIP3   OH273722   5.191   4.115  15.268  0.4919  0.3060  0.4118
17436TIP3    H173723   5.142   4.115  15.185  0.1693  0.8357  0.5991
17436TIP3    H273724   5.238   4.032  15.267  2.5494  1.3788 -1.5264
17437TIP3   OH273725   0.335   3.124   0.642  0.3083 -0.2929 -0.7478
17437TIP3    H173726   0.326   3.206   0.593  0.8027 -0.5685 -1.3152
17437TIP3    H273727   0.341   3.151   0.734  0.1417  0.2856 -0.9070
17438TIP3   OH273728   1.418   4.020   4.237 -0.3161 -0.2369 -0.3219
17438TIP3    H173729   1.434   4.067   4.318 -0.5490  1.3865 -1.1848
17438TIP3    H273730   1.504   4.015   4.195 -0.3815 -0.1153 -0.4706
17439TIP3   OH273731   4.258   4.372   4.612  0.0126  0.3614  0.3933
17439TIP3    H173732   4.339   4.329   4.637  1.4462  3.0911  0.7891
17439TIP3    H273733   4.208   4.381   4.693 -0.3730 -0.6484  0.2779
17440TIP3   OH273734   1.277   0.843   0.510 -0.0982 -0.0409 -0.4328
17440TIP3    H173735   1.196   0.875   0.470 -0.5052  0.9562  1.1121
17440TIP3    H273736   1.250   0.813   0.597  1.0911 -0.3184 -0.1472
17441TIP3   OH273737   5.493   4.546   0.684  0.5938  0.2298 -0.3778
17441TIP3    H173738   5.484   4.488   0.759  0.8875  1.4853  0.6652
17441TIP3    H273739   5.545   4.497   0.621  1.5622 -0.3118  0.8203
17442TIP3   OH273740   1.425   4.006  12.122  0.0568  0.0789 -0.0357
17442TIP3    H173741   1.447   4.068  12.191  0.6514 -0.7603  0.5372
17442TIP3    H273742   1.507   3.988  12.077 -0.4665  1.3272 -1.5930
17443TIP3   OH273743   2.134   1.376   0.590  0.5161  0.0994 -0.5072
17443TIP3    H173744   2.128   1.417   0.504  0.3062  2.0018  0.3622
17443TIP3    H273745   2.054   1.403   0.635 -0.0711 -2.0252 -0.1444
17444TIP3   OH273746   0.977   0.659   6.227 -0.1631 -0.2827 -0.4674
17444TIP3    H173747   1.053   0.622   6.182 -0.2691 -0.1496 -0.7576
17444TIP3    H273748   0.902   0.627   6.178 -0.3401 -1.0226  0.2532
17445TIP3   OH273749   4.886   1.500   5.288  0.4897 -0.2516 -0.3665
17445TIP3    H173750   4.910   1.444   5.362  2.5805  2.0755  0.8578
17445TIP3    H273751   4.873   1.586   5.326 -3.6317  0.0865 -2.0329
17446TIP3   OH273752   0.577   4.652   4.772  0.5366 -0.1430  0.1781
17446TIP3    H173753   0.555   4.744   4.759 -0.3370 -0.1615  1.4021
17446TIP3    H273754   0.630   4.651   4.852  0.2585 -0.7357  0.3618
17447TIP3   OH273755   2.658   3.067   0.145  0.0598  0.1064  0.5161
17447TIP3    H173756   2.720   2.994   0.138  0.4178  0.4453  0.0888
17447TIP3    H273757   2.707   3.136   0.189  0.4492  0.8496 -1.0034
17448TIP3   OH273758   0.747   5.680  13.483  0.1717  0.1435 -0.4483
17448TIP3    H173759   0.771   5.734  13.408  0.6310  0.2360 -0.2418
17448TIP3    H273760   0.682   5.618  13.449  0.2565  0.2889 -0.8799
17449TIP3   OH273761   3.538   5.224   4.675  0.2858  0.1755  0.7248
17449TIP3    H173762   3.563   5.231   4.583 -1.1152 -1.8759  0.1159
17449TIP3    H273763   3.546   5.313   4.709 -0.8366  1.3707 -1.8406
17450TIP3   OH273764   2.421   4.902  13.176 -0.2051  0.1899  0.7232
17450TIP3    H173765   2.511   4.901  13.144 -0.1725 -0.3071  0.8209
17450TIP3    H273766   2.382   4.821  13.141  0.3342 -1.3009  3.3310
17451TIP3   OH273767   3.339   5.605  13.942 -0.1271 -0.4489 -0.7455
17451TIP3    H173768   3.290   5.574  13.866  0.8644  1.2146 -2.1522
17451TIP3    H273769   3.388   5.528  13.971 -0.0173 -0.9807 -2.2231
17452TIP3   OH273770   6.522   3.328  13.370  0.0538 -0.0774  0.3681
17452TIP3    H173771   6.508   3.233  13.367 -3.1568  0.2798 -1.1523
17452TIP3    H273772   6.519   3.350  13.463  1.0365 -1.4613  0.7599
17453TIP3   OH273773   3.173   5.692  14.177  0.4653 -0.0507  0.0036
17453TIP3    H173774   3.109   5.621  14.173  1.0262 -0.5374 -0.3202
17453TIP3    H273775   3.207   5.699  14.088 -0.4022  1.3894 -0.2426
17454TIP3   OH273776   2.695   4.902  13.107  0.1028  0.0850  0.3808
17454TIP3    H173777   2.734   4.972  13.055  1.6514 -0.4280  0.7892
17454TIP3    H273778   2.759   4.885  13.177 -0.1197 -1.8433  0.1831
17455TIP3   OH273779   2.737   5.544  14.354 -0.1509  0.1488  0.0879
17455TIP3    H173780   2.797   5.589  14.415  0.8495 -1.1398  0.1037
17455TIP3    H273781   2.663   5.518  14.409  0.6699 -0.8648  0.7638
17456TIP3   OH273782   3.873   4.376  15.950  0.1785  0.2155 -0.1157
17456TIP3    H173783   3.841   4.382  16.040 -0.0598  0.6866 -0.2274
17456TIP3    H273784   3.803   4.415  15.897  0.5216  0.3725 -0.4558
17457TIP3   OH273785   1.869   1.420  10.754 -0.1631 -0.2075 -0.1066
17457TIP3    H173786   1.890   1.426  10.661 -0.2438 -2.0619 -0.2720
17457TIP3    H273787   1.773   1.419  10.757 -0.1798 -2.0653 -0.1939
17458TIP3   OH273788   0.792   3.777  11.951  0.4424  0.3825 -0.1159
17458TIP3    H173789   0.767   3.863  11.918 -1.2345  0.1826  0.5451
17458TIP3    H273790   0.786   3.719  11.875  0.5984  0.6508 -0.3371
17459TIP3   OH273791   3.201   3.693  13.224 -0.1749 -0.3726 -0.2781
17459TIP3    H173792   3.268   3.683  13.291 -0.9015 -0.8946  0.3986
17459TIP3    H273793   3.196   3.607  13.183 -0.0913 -0.1965 -0.6635
17460TIP3   OH273794   1.345   6.530   4.973  0.0348  0.0047  0.1260
17460TIP3    H173795   1.340   6.546   5.067  0.0821  2.0749 -0.1980
17460TIP3    H273796   1.437   6.548   4.951  0.4418 -2.0708 -0.0856
17461TIP3   OH273797   4.072   6.570   2.802 -0.2402  0.4394  0.0421
17461TIP3    H173798   4.066   6.576   2.707  0.0067  2.0109  0.1004
17461TIP3    H273799   3.991   6.525   2.829 -0.3929  0.1416 -0.8808
17462TIP3   OH273800   5.962   4.551   6.651 -0.0094  0.2070  0.0499
17462TIP3    H173801   6.043   4.503   6.669 -0.2229 -0.7987 -1.4931
17462TIP3    H273802   5.894   4.501   6.696 -0.0002  0.0932 -0.0641
17463TIP3   OH273803   6.354   5.627  14.602 -0.2722  0.3238 -0.0036
17463TIP3    H173804   6.265   5.592  14.603 -0.8590  1.7744  0.4300
17463TIP3    H273805   6.384   5.619  14.692  0.5098 -1.2302 -0.3573
17464TIP3   OH273806   3.139   0.301  12.341  0.8450  0.2811  0.3140
17464TIP3    H173807   3.231   0.308  12.313  0.6402  0.4692 -0.3274
17464TIP3    H273808   3.114   0.212  12.319  0.7336  0.3759  0.0576
17465TIP3   OH273809   2.158   1.654   5.299  0.3039  0.2990  0.5918
17465TIP3    H173810   2.072   1.644   5.258  0.5173 -0.2466  0.2661
17465TIP3    H273811   2.200   1.725   5.251  1.4332 -1.7919 -1.7068
17466TIP3   OH273812   6.516   4.141  13.881  0.2979 -0.2993 -0.4720
17466TIP3    H173813   6.486   4.136  13.972 -0.4188 -1.1124 -0.7319
17466TIP3    H273814   6.480   4.223  13.849  0.6249  0.0346 -0.0035
17467TIP3   OH273815   6.320   4.531   2.154 -0.2177  0.1581  0.3820
17467TIP3    H173816   6.286   4.458   2.207 -0.3721 -0.3230 -0.3733
17467TIP3    H273817   6.340   4.599   2.218 -3.9544  1.0718  0.8338
17468TIP3   OH273818   6.112   0.056   1.343 -0.1312 -0.0898 -0.2254
17468TIP3    H173819   6.062   0.134   1.366  0.0547  0.2173 -0.8538
17468TIP3    H273820   6.078   0.028   1.258  0.7098  0.0896 -0.6353
17469TIP3   OH273821   2.504   4.250  11.424 -0.1562  0.8945 -0.2889
17469TIP3    H173822   2.476   4.254  11.515 -2.4855 -0.0839 -0.8784
17469TIP3    H273823   2.481   4.161  11.396 -1.7348  1.8659 -2.4257
17470TIP3   OH273824   6.337   2.201  12.868  0.0191 -0.6112 -0.1415
17470TIP3    H173825   6.311   2.187  12.777  3.1826 -0.6210 -1.1375
17470TIP3    H273826   6.355   2.295  12.874  1.4964 -0.8866 -0.0451
17471TIP3   OH273827   3.533   5.819  12.994  0.3875  0.3316  0.1540
17471TIP3    H173828   3.462   5.883  12.996  0.7444  0.7513 -0.4176
17471TIP3    H273829   3.531   5.778  13.081  0.6702  1.6735  0.8152
17472TIP3   OH273830   2.338   5.645   2.267 -0.5637  0.3460  1.3171
17472TIP3    H173831   2.278   5.703   2.220  0.9359  0.9327  0.0268
17472TIP3    H273832   2.301   5.558   2.254 -1.1108  0.6782  0.4984
17473TIP3   OH273833   2.642   6.424   0.925 -0.0291 -0.1975 -0.6579
17473TIP3    H173834   2.561   6.390   0.886 -0.1800 -1.7714  0.8976
17473TIP3    H273835   2.644   6.386   1.013  1.3980  1.4421  0.0811
17474TIP3   OH273836   5.954   6.498   1.234  0.0526  0.0808  0.0725
17474TIP3    H173837   5.942   6.498   1.329 -0.5099  1.6723  0.0314
17474TIP3    H273838   6.044   6.468   1.221  0.2943  0.3124  1.1400
17475TIP3   OH273839   1.424   2.646   5.661 -0.5606  0.1785 -0.0890
17475TIP3    H173840   1.495   2.703   5.631  0.5569 -0.2208  1.6732
17475TIP3    H273841   1.402   2.679   5.748 -1.3674 -0.7768  0.0861
17476TIP3   OH273842   3.659   2.091   0.064  0.1945 -0.2059  0.2062
17476TIP3    H173843   3.632   2.041  -0.013 -0.8501  0.6723 -0.0123
17476TIP3    H273844   3.604   2.058   0.135 -0.6825  0.8000  0.0049
17477TIP3   OH273845   4.705   4.513   2.478  0.0767  0.2543  0.1508
17477TIP3    H173846   4.669   4.560   2.553  2.7276  0.0680  1.7028
17477TIP3    H273847   4.631   4.500   2.419 -1.4869  3.2428  1.2312
17478TIP3   OH273848   0.847   2.642  11.863 -0.0630 -0.0173 -0.3010
17478TIP3    H173849   0.869   2.560  11.819  1.8971  1.1829 -1.7283
17478TIP3    H273850   0.757   2.660  11.836 -1.2187 -2.5270  1.5036
17479TIP3   OH273851   2.277   4.145  13.195  0.3348 -0.2192 -0.1498
17479TIP3    H173852   2.293   4.123  13.286  1.2316  0.2343 -0.1847
17479TIP3    H273853   2.353   4.110  13.148 -0.6572 -1.4506 -0.8955
17480TIP3   OH273854   6.715   0.833   6.324  0.3214 -0.3720 -0.1134
17480TIP3    H173855   6.694   0.782   6.403 -1.1802 -0.9680 -0.8619
17480TIP3    H273856   6.671   0.917   6.337 -2.0914 -1.3616 -1.3621
17481TIP3   OH273857   2.146   3.683   3.649  0.0771 -0.2135 -0.1641
17481TIP3    H173858   2.132   3.668   3.556  0.2291 -0.5891 -0.1302
17481TIP3    H273859   2.221   3.627   3.671 -1.1824 -1.6820  0.5955
17482TIP3   OH273860   2.796   4.025  13.707 -0.2483  0.1377  0.3073
17482TIP3    H173861   2.761   4.071  13.784  0.9389  2.0434 -0.2158
17482TIP3    H273862   2.886   4.057  13.699  0.2673 -1.4527 -0.8112
17483TIP3   OH273863   2.625   0.953   6.046  0.0130  0.2442 -0.2571
17483TIP3    H173864   2.584   1.013   6.108 -1.4502  1.1493 -2.0419
17483TIP3    H273865   2.714   0.986   6.036 -1.0997  3.0274 -2.1770
17484TIP3   OH273866   3.663   5.953   0.834 -0.2191  0.4050  0.0354
17484TIP3    H173867   3.613   6.034   0.827 -2.1877 -0.6791  0.6981
17484TIP3    H273868   3.613   5.890   0.782  0.9524 -0.5397  0.0058
17485TIP3   OH273869   0.970   5.033   0.246  0.1902 -0.6722  0.1073
17485TIP3    H173870   1.028   5.025   0.322 -0.1386  2.2273  0.7672
17485TIP3    H273871   1.012   4.979   0.179  3.1811  0.5046  0.8419
17486TIP3   OH273872   6.773   0.402   3.603 -0.9804 -0.0437  0.4662
17486TIP3    H173873   6.683   0.383   3.574 -0.3409 -0.1940 -1.5453
17486TIP3    H273874   6.764   0.480   3.658 -2.1969  0.8369 -0.8916
17487TIP3   OH273875   0.458   4.379   3.394 -0.0332  0.0110 -0.4868
17487TIP3    H173876   0.415   4.342   3.471  0.8360  3.3493  1.8137
17487TIP3    H273877   0.390   4.430   3.351 -0.2980 -1.1662 -1.5114
17488TIP3   OH273878   4.528   2.229  10.818  0.1645 -0.4394 -0.8948
17488TIP3    H173879   4.456   2.243  10.879 -0.4794  1.6873 -2.0282
17488TIP3    H273880   4.546   2.316  10.782  2.4486 -1.1208 -1.6107
17489TIP3   OH273881   0.346   5.605   5.975 -0.0798  0.1503 -0.2062
17489TIP3    H173882   0.401   5.533   6.005  0.1855  0.9332  1.3166
17489TIP3    H273883   0.316   5.647   6.056 -0.6486  1.4204 -1.0499
17490TIP3   OH273884   2.347   1.215   3.911 -0.3273 -0.8827 -0.4316
17490TIP3    H173885   2.327   1.131   3.953 -0.4689 -0.9525 -0.6373
17490TIP3    H273886   2.442   1.214   3.899 -0.0417 -0.1224  1.4698
17491TIP3   OH273887   3.731   5.426   3.751  0.0306  0.1117 -0.2791
17491TIP3    H173888   3.654   5.471   3.786  0.9450  1.1008  0.5258
17491TIP3    H273889   3.720   5.335   3.778  0.3328  0.6887  2.0632
17492TIP3   OH273890   6.697   6.144  12.664  0.4383 -0.0337  0.0006
17492TIP3    H173891   6.788   6.115  12.652  0.0346 -1.1724 -0.4517
17492TIP3    H273892   6.646   6.087  12.606 -0.5742  0.5516  0.2969
17493TIP3   OH273893   0.157   5.334   2.268 -0.3856 -0.2952 -0.6089
17493TIP3    H173894   0.218   5.341   2.195  0.3064  0.7028  0.0401
17493TIP3    H273895   0.077   5.375   2.236 -0.1231  0.0342 -0.8554
17494TIP3   OH273896   5.064   1.547  13.715  0.1603  0.4722  0.3331
17494TIP3    H173897   5.134   1.580  13.659  0.9378 -1.2957  0.1840
17494TIP3    H273898   5.089   1.573  13.804  0.6827  0.4164  0.2058
17495TIP3   OH273899   6.099   4.051   4.969  0.6608  0.1431  0.1414
17495TIP3    H173900   6.040   4.087   5.036  0.2156  3.4247 -1.8012
17495TIP3    H273901   6.187   4.064   5.005  0.3813  0.2595  0.7932
17496TIP3   OH273902   3.693   5.610  12.747  0.6159 -0.2656  0.7749
17496TIP3    H173903   3.667   5.685  12.695 -0.4242 -0.7647  0.5409
17496TIP3    H273904   3.741   5.554  12.687 -0.4237 -0.7543  0.3735
17497TIP3   OH273905   5.463   1.138  13.188 -0.1281  0.2871 -0.1417
17497TIP3    H173906   5.491   1.185  13.266  0.0492  0.4858 -0.3234
17497TIP3    H273907   5.429   1.055  13.221 -0.4672  0.5512  0.1820
17498TIP3   OH273908   1.882   5.416  14.614 -0.5956 -0.1104  0.4491
17498TIP3    H173909   1.975   5.414  14.634 -0.3319  1.0455 -0.5684
17498TIP3    H273910   1.848   5.333  14.649  0.6980 -0.3046  1.2972
17499TIP3   OH273911   3.395   6.032   0.738  0.1022  0.0344 -0.0191
17499TIP3    H173912   3.433   5.963   0.683  0.4176  0.7716 -0.7504
17499TIP3    H273913   3.301   6.029   0.720  0.2310  0.4464 -0.8360
17500TIP3   OH273914   4.323   4.475  12.361  0.5106  0.6028 -0.0078
17500TIP3    H173915   4.416   4.485  12.383  0.4128  2.2421 -0.1771
17500TIP3    H273916   4.294   4.399  12.412  1.8701  0.2443  0.2681
17501TIP3   OH273917   4.920   5.582  17.309  0.2183  0.1886  0.2129
17501TIP3    H173918   4.981   5.654  17.325 -0.2725  0.4971  0.7978
17501TIP3    H273919   4.942   5.549  17.222  1.6949 -0.2020  0.7097
17502TIP3   OH273920   2.230   2.813   4.732 -0.1293 -0.0440 -0.2549
17502TIP3    H173921   2.296   2.835   4.666 -1.5308  0.6471 -1.4913
17502TIP3    H273922   2.148   2.842   4.694 -0.9133  1.2749  2.2427
17503TIP3   OH273923   1.638   2.234   1.996 -0.1213 -0.7922  0.0541
17503TIP3    H173924   1.594   2.166   1.945 -0.4840 -0.1221 -0.5484
17503TIP3    H273925   1.605   2.222   2.085 -2.1655  0.1884 -0.5250
17504TIP3   OH273926   6.531   4.098  11.314 -0.1757  0.2858  0.0736
17504TIP3    H173927   6.455   4.109  11.257  0.5771  0.7259 -0.8498
17504TIP3    H273928   6.588   4.037  11.268 -0.2109 -0.5048  1.0315
17505TIP3   OH273929   4.651   1.451  14.344  0.0353 -0.3305 -0.0558
17505TIP3    H173930   4.743   1.431  14.327 -0.8651 -3.3330 -2.1409
17505TIP3    H273931   4.621   1.380  14.401 -1.0509  0.5694  0.5472
17506TIP3   OH273932   3.666   4.812  13.079 -0.4853 -0.1159 -0.3582
17506TIP3    H173933   3.707   4.885  13.126 -0.1500  0.5703 -1.6691
17506TIP3    H273934   3.578   4.805  13.116 -0.1758  0.2714  0.4835
17507TIP3   OH273935   5.462   4.324  13.962 -0.2031 -0.2472 -0.1127
17507TIP3    H173936   5.416   4.363  14.036 -1.5348  1.5369 -1.7769
17507TIP3    H273937   5.545   4.371  13.957 -1.3625  1.8302 -1.4702
17508TIP3   OH273938   2.306   5.080  12.473 -0.1710 -0.7759  0.0530
17508TIP3    H173939   2.380   5.048  12.421 -0.5851  0.9169 -1.7087
17508TIP3    H273940   2.307   5.026  12.552  0.5188 -3.5070 -1.6749
17509TIP3   OH273941   2.649   2.063   5.029  0.3589 -0.8857 -0.4462
17509TIP3    H173942   2.669   2.134   4.969 -0.3751 -0.9210 -0.7431
17509TIP3    H273943   2.713   1.995   5.008  0.4241 -0.7025 -0.8445
17510TIP3   OH273944   3.162   6.094   1.812 -0.7518 -0.2792 -0.4642
17510TIP3    H173945   3.141   6.003   1.833 -0.5451 -0.3659 -0.6174
17510TIP3    H273946   3.188   6.133   1.896  2.9601 -1.4126 -0.8915
17511TIP3   OH273947   1.525   6.391  11.504  0.2214 -0.3380  0.1175
17511TIP3    H173948   1.471   6.314  11.491 -0.0547 -0.0029 -0.7957
17511TIP3    H273949   1.540   6.425  11.416 -0.3318  1.1064  0.5525
17512TIP3   OH273950   1.414   4.193   2.951  0.2634  0.2754 -0.4161
17512TIP3    H173951   1.327   4.220   2.982  0.1352 -0.1982 -0.3498
17512TIP3    H273952   1.400   4.175   2.858  0.6274  1.6121 -0.7479
17513TIP3   OH273953   4.976   0.035   6.126 -0.1050 -0.4244 -0.1073
17513TIP3    H173954   4.926   0.015   6.204 -0.2557  2.3022  0.6018
17513TIP3    H273955   5.068   0.027   6.153 -0.1419 -1.4846 -0.2646
17514TIP3   OH273956   0.910   5.386  15.135 -0.0525 -0.1984  0.7007
17514TIP3    H173957   0.844   5.359  15.199 -0.6766  2.1264  1.1412
17514TIP3    H273958   0.870   5.366  15.050 -1.4192  1.2488  0.9618
17515TIP3   OH273959   2.977   3.885  16.935 -0.0916 -0.5669  0.3690
17515TIP3    H173960   2.986   3.815  17.000 -1.1928 -1.6306 -0.5707
17515TIP3    H273961   2.898   3.861  16.885  0.2243  0.6852 -0.7809
17516TIP3   OH273962   6.122   1.946   4.001 -1.0007 -0.1251 -0.3049
17516TIP3    H173963   6.093   1.943   4.092  0.1987  0.0043  0.0981
17516TIP3    H273964   6.212   1.977   4.005 -0.4118 -1.5292 -1.4053
17517TIP3   OH273965   5.409   2.698   5.065  0.6492  0.2671 -0.2141
17517TIP3    H173966   5.482   2.759   5.057  0.9523  0.2325  1.7519
17517TIP3    H273967   5.351   2.738   5.130  0.5895 -1.2750  0.7156
17518TIP3   OH273968   5.930   6.182   1.679  0.3653 -0.7019 -0.2498
17518TIP3    H173969   5.864   6.137   1.733  0.4276  0.2414  0.6189
17518TIP3    H273970   5.967   6.249   1.736  1.7037 -0.8562 -0.9087
17519TIP3   OH273971   3.158   1.601  13.510 -0.0973 -0.1477 -0.1192
17519TIP3    H173972   3.228   1.605  13.445  0.5854 -1.1262  0.5179
17519TIP3    H273973   3.080   1.633  13.464  0.4536 -0.4210 -1.2900
17520TIP3   OH273974   1.650   3.783   3.947 -0.4915  0.1977 -0.0441
17520TIP3    H173975   1.702   3.822   3.877  0.0940 -0.4996 -0.0092
17520TIP3    H273976   1.570   3.837   3.950 -0.3066  0.5441 -0.9026
17521TIP3   OH273977   5.455   6.183  16.185 -0.1118 -0.0580  0.1829
17521TIP3    H173978   5.482   6.275  16.190 -2.4770  0.6788  1.2155
17521TIP3    H273979   5.378   6.179  16.242  2.3108 -3.6327  3.6531
17522TIP3   OH273980   2.023   2.581   2.698  0.3689 -0.6288  0.0369
17522TIP3    H173981   2.118   2.581   2.712  0.3426 -1.1646  0.2349
17522TIP3    H273982   1.990   2.512   2.757 -0.1812 -0.2028  0.2365
17523TIP3   OH273983   6.259   6.707  13.856 -0.2705  0.0392  0.0083
17523TIP3    H173984   6.254   6.701  13.952 -2.0311  1.5156  0.0737
17523TIP3    H273985   6.208   6.632  13.825  0.5447 -0.6103  0.1891
17524TIP3   OH273986   4.469   0.649   3.406  1.3436 -0.0874  0.6171
17524TIP3    H173987   4.547   0.629   3.354  0.7096 -3.5774  0.7812
17524TIP3    H273988   4.501   0.651   3.496  1.4170 -0.5916  0.6071
17525TIP3   OH273989   6.531   6.465   1.054 -0.3339 -0.5120 -0.3385
17525TIP3    H173990   6.520   6.460   0.959 -1.3023  0.7923 -0.3271
17525TIP3    H273991   6.548   6.557   1.071  2.5517 -1.0945  0.5402
17526TIP3   OH273992   3.867   1.151  12.049  0.2058  0.2265  0.5426
17526TIP3    H173993   3.949   1.137  12.002  0.7995  1.2803  1.2092
17526TIP3    H273994   3.895   1.183  12.135 -0.9167  1.6915  0.3897
17527TIP3   OH273995   0.778   0.391  13.792 -0.4667 -0.2175 -0.9478
17527TIP3    H173996   0.844   0.461  13.797 -0.0855 -0.6321  0.1810
17527TIP3    H273997   0.724   0.414  13.716  0.1864  0.8276 -1.1146
17528TIP3   OH273998   4.020   3.562   6.298  0.1030 -0.8330  1.0431
17528TIP3    H173999   3.998   3.545   6.390 -1.0818  0.2010  0.9681
17528TIP3    H274000   4.022   3.657   6.291 -1.8786 -0.8402 -0.4483
17529TIP3   OH274001   0.173   1.773   0.294  0.1682  0.4239  0.0030
17529TIP3    H174002   0.196   1.698   0.348  0.8877  1.6665  1.4847
17529TIP3    H274003   0.247   1.783   0.234 -0.7923 -1.1758 -1.5742
17530TIP3   OH274004   0.433   2.432   5.420  0.8178  0.4408 -0.5247
17530TIP3    H174005   0.512   2.412   5.370  1.2931  0.2016  0.3005
17530TIP3    H274006   0.421   2.527   5.409  1.0749  0.4348 -0.8586
17531TIP3   OH274007   1.086   5.343   5.506 -0.2422 -0.3045 -0.1530
17531TIP3    H174008   1.071   5.361   5.413  0.1210  0.8454 -0.0082
17531TIP3    H274009   1.000   5.357   5.547  0.0411  1.3602 -0.0319
17532TIP3   OH274010   2.834   6.142   2.361 -0.3972 -0.2980 -0.5599
17532TIP3    H174011   2.827   6.097   2.277  1.3311 -0.6253 -0.5586
17532TIP3    H274012   2.845   6.234   2.338  0.3793 -0.4225 -0.7286
17533TIP3   OH274013   3.533   5.834   5.927 -0.0231 -0.8372  0.7237
17533TIP3    H174014   3.461   5.773   5.939  0.9252 -1.6265  2.7448
17533TIP3    H274015   3.598   5.809   5.993  2.0766 -0.0898 -0.9285
17534TIP3   OH274016   5.598   5.424  13.306  0.4406 -0.1201  0.3498
17534TIP3    H174017   5.518   5.469  13.332  1.1158 -0.0100  2.3972
17534TIP3    H274018   5.626   5.469  13.226 -0.4178  1.2318  0.7733
17535TIP3   OH274019   1.542   2.814  12.082 -0.1337 -0.5647  0.1164
17535TIP3    H174020   1.453   2.844  12.065 -0.9603 -0.2415  4.1267
17535TIP3    H274021   1.594   2.894  12.088  0.3382 -0.7186 -1.3903
17536TIP3   OH274022   0.810   3.268   2.883  0.2123  0.1721  0.0145
17536TIP3    H174023   0.727   3.280   2.835  1.1147  0.0711 -1.6388
17536TIP3    H274024   0.864   3.342   2.857  0.5226  0.4706  1.4225
17537TIP3   OH274025   0.999   0.175  11.046  0.1927  0.5074 -0.5597
17537TIP3    H174026   1.006   0.137  11.134 -1.3562 -0.1408 -0.6827
17537TIP3    H274027   1.086   0.210  11.028  0.6802  0.1952  1.0258
17538TIP3   OH274028   0.155   5.649  16.673  0.2249  0.4625  0.0748
17538TIP3    H174029   0.164   5.645  16.768 -3.5439 -0.0742  0.5413
17538TIP3    H274030   0.161   5.558  16.644 -0.2429  0.4558 -0.0025
17539TIP3   OH274031   0.953   5.909  13.756 -0.1383 -0.3870 -0.6335
17539TIP3    H174032   1.034   5.953  13.729 -0.2286 -0.3154 -0.7920
17539TIP3    H274033   0.980   5.818  13.773  0.2905 -0.0001  0.8997
17540TIP3   OH274034   3.191   3.032  12.586 -0.3605 -0.2056 -0.3040
17540TIP3    H174035   3.219   2.942  12.599  1.9608  0.3597 -0.8553
17540TIP3    H274036   3.099   3.033  12.612 -0.0729 -2.3964  1.0551
17541TIP3   OH274037   4.586   5.216   3.022 -0.0734 -0.4515  0.3367
17541TIP3    H174038   4.541   5.239   2.940  0.3633 -2.3325 -0.5020
17541TIP3    H274039   4.642   5.142   2.998 -0.3122 -1.3939  2.4435
17542TIP3   OH274040   3.712   6.719  13.893 -0.3486  0.2879 -0.0874
17542TIP3    H174041   3.636   6.662  13.897  0.6996 -1.1499  0.1517
17542TIP3    H274042   3.676   6.806  13.877 -1.9730 -0.4680 -0.7503
17543TIP3   OH274043   4.152   5.608  12.199  0.4089 -0.4270  0.5011
17543TIP3    H174044   4.138   5.700  12.179 -0.7554 -0.1504  2.3299
17543TIP3    H274045   4.124   5.599  12.290 -0.2417 -2.7516  0.1254
17544TIP3   OH274046   4.682   6.537   2.988 -0.0096  0.5882 -0.4987
17544TIP3    H174047   4.642   6.578   2.911 -3.1091 -0.7099  0.2800
17544TIP3    H274048   4.669   6.443   2.974  1.1153  0.2267  0.7462
17545TIP3   OH274049   1.082   1.782  14.963  0.4532 -0.5837 -0.2190
17545TIP3    H174050   1.164   1.765  15.010 -0.2854  2.1913  2.4069
17545TIP3    H274051   1.023   1.816  15.029 -1.5018  1.3829 -2.7585
17546TIP3   OH274052   4.896   3.849   3.489  0.1428  0.4407 -0.0584
17546TIP3    H174053   4.877   3.758   3.469  1.5449  0.2163 -0.4553
17546TIP3    H274054   4.809   3.890   3.499 -0.5360 -0.6124 -1.2769
17547TIP3   OH274055   0.074   0.538  14.605  0.1121 -0.0517 -0.3600
17547TIP3    H174056  -0.000   0.589  14.637  0.4970 -0.1825  0.7797
17547TIP3    H274057   0.034   0.463  14.560 -0.4432  0.5067 -0.8078
17548TIP3   OH274058   4.119   1.351   1.662 -0.4964  0.4951 -0.2439
17548TIP3    H174059   4.164   1.362   1.746  1.3225 -1.9314 -0.7993
17548TIP3    H274060   4.042   1.408   1.669  1.1041  2.6421  1.8849
17549TIP3   OH274061   1.951   2.460   3.209  0.1462 -0.6792 -0.0670
17549TIP3    H174062   1.956   2.384   3.266  0.2051 -1.1750 -0.7255
17549TIP3    H274063   1.909   2.428   3.129 -0.4860  0.1440 -0.0756
17550TIP3   OH274064   5.293   4.694  15.264  0.6485 -0.3314 -0.0291
17550TIP3    H174065   5.251   4.703  15.179  1.6616 -0.6173 -0.5653
17550TIP3    H274066   5.231   4.644  15.316 -0.7262  1.2561 -0.0585
17551TIP3   OH274067   1.474   2.693   2.385  0.3127 -0.1569 -0.3634
17551TIP3    H174068   1.481   2.767   2.325  0.8481 -1.1850 -1.6137
17551TIP3    H274069   1.402   2.641   2.350 -0.9024  0.3935  1.2374
17552TIP3   OH274070   3.459   5.114  14.807 -0.2593 -0.6810 -0.4139
17552TIP3    H174071   3.520   5.186  14.824 -0.5799 -0.7367  1.0750
17552TIP3    H274072   3.407   5.145  14.732  0.5194  0.0326 -0.6844
17553TIP3   OH274073   2.126   0.734   5.504  0.2628  0.3241 -0.4010
17553TIP3    H174074   2.135   0.649   5.461 -2.1350 -0.9213  1.3265
17553TIP3    H274075   2.062   0.780   5.452  0.6037  0.5673 -0.6078
17554TIP3   OH274076   0.316   0.721   3.118  0.1786 -0.1200  0.3461
17554TIP3    H174077   0.348   0.700   3.205 -1.1656 -0.2889  0.8258
17554TIP3    H274078   0.325   0.640   3.068 -0.1365 -0.3524  0.6684
17555TIP3   OH274079   2.243   6.249  14.407 -0.1235 -0.2245 -0.4365
17555TIP3    H174080   2.291   6.179  14.363  1.8751  1.0982 -0.5196
17555TIP3    H274081   2.189   6.204  14.472 -0.0538 -1.9179 -1.4803
17556TIP3   OH274082   0.705   1.193  14.882  0.3166  0.5148 -0.2422
17556TIP3    H174083   0.646   1.151  14.945 -1.4135  1.4847 -1.1350
17556TIP3    H274084   0.721   1.126  14.816  0.9563 -0.0381  0.4530
17557TIP3   OH274085   4.344   0.357  15.221 -1.1346  0.2591  0.1358
17557TIP3    H174086   4.325   0.323  15.309  1.8699 -0.5994  0.5743
17557TIP3    H274087   4.397   0.289  15.180  0.4063  2.0762 -1.0599
17558TIP3   OH274088   3.501   5.032   3.746  0.3654 -0.6279  0.3030
17558TIP3    H174089   3.586   5.070   3.725 -0.1831  0.5008  0.0031
17558TIP3    H274090   3.475   4.984   3.668  0.8850 -1.2811  0.5299
17559TIP3   OH274091   3.153   3.653  11.301 -0.0655  0.2339 -0.0994
17559TIP3    H174092   3.201   3.603  11.367 -0.6252 -1.1119 -0.6789
17559TIP3    H274093   3.221   3.703  11.256  0.5775 -0.2977  0.2528
17560TIP3   OH274094   2.014   5.731   3.454  0.2594  0.1473  0.8343
17560TIP3    H174095   2.042   5.715   3.364 -0.9515  0.4620  0.3785
17560TIP3    H274096   1.995   5.825   3.456 -1.6083 -0.1896  0.8327
17561TIP3   OH274097   5.541   4.405   4.840 -0.7256  0.3854 -0.2529
17561TIP3    H174098   5.543   4.314   4.812 -1.0221 -0.1368  1.3113
17561TIP3    H274099   5.534   4.401   4.936 -1.9246  2.0332 -0.2209
17562TIP3   OH274100   0.119   2.722  14.501 -0.2997 -0.2927  0.0745
17562TIP3    H174101   0.025   2.706  14.516 -0.6994  1.1623 -0.6344
17562TIP3    H274102   0.131   2.814  14.525  0.8728 -0.3642 -0.2049
17563TIP3   OH274103   3.240   5.571  12.265 -0.3467  0.3584  0.0162
17563TIP3    H174104   3.301   5.536  12.200  1.1769  0.6769  1.1919
17563TIP3    H274105   3.190   5.495  12.294  2.0426 -0.7435  1.6160
17564TIP3   OH274106   2.902   1.406  11.062 -0.2561 -0.2928 -0.1277
17564TIP3    H174107   2.826   1.348  11.056  0.3478 -0.9845 -1.2065
17564TIP3    H274108   2.898   1.440  11.152 -1.2463 -1.1207  0.1660
17565TIP3   OH274109   5.517   4.966  15.675  0.3495  0.0783  0.3601
17565TIP3    H174110   5.595   4.914  15.657  0.5215  0.6799 -0.6493
17565TIP3    H274111   5.452   4.934  15.613  0.6173  1.4154 -0.6409
17566TIP3   OH274112   5.579   4.078  14.367  0.5980 -0.6036  0.5340
17566TIP3    H174113   5.608   4.119  14.285 -0.9760  0.5005  0.4803
17566TIP3    H274114   5.601   4.142  14.435 -1.7502  0.3833  0.4658
17567TIP3   OH274115   6.437   1.716   0.731  1.0677  0.4250 -0.3588
17567TIP3    H174116   6.450   1.678   0.819 -0.2229 -0.4218 -0.5139
17567TIP3    H274117   6.378   1.790   0.745 -0.3912 -0.6428 -0.6855
17568TIP3   OH274118   3.219   5.150   1.249 -0.4867 -0.1138 -0.1133
17568TIP3    H174119   3.311   5.140   1.271 -0.5583 -0.3139  0.0920
17568TIP3    H274120   3.207   5.245   1.241 -0.1077 -0.1219 -0.8188
17569TIP3   OH274121   3.301   4.653   6.485  0.2100  0.2733  0.3844
17569TIP3    H174122   3.226   4.594   6.492 -0.7032  1.3401 -0.0179
17569TIP3    H274123   3.306   4.696   6.570  1.0820 -0.5912  0.7912
17570TIP3   OH274124   1.649   0.543  13.667  0.5570  0.0703  0.3173
17570TIP3    H174125   1.584   0.552  13.737  0.2420 -1.1528  0.2085
17570TIP3    H274126   1.692   0.628  13.663 -1.2171  1.0112  0.2101
17571TIP3   OH274127   6.683   6.333   2.442  0.2764  0.1267 -0.2712
17571TIP3    H174128   6.633   6.396   2.390  0.3523  2.4644  2.2479
17571TIP3    H274129   6.624   6.258   2.452 -1.4380  1.4187 -0.1568
17572TIP3   OH274130   4.045   1.695  11.710 -0.1317 -0.4608 -0.4212
17572TIP3    H174131   4.065   1.663  11.622  0.6813  1.5910 -1.0591
17572TIP3    H274132   4.113   1.657  11.765 -0.0115 -0.9214 -0.8772
17573TIP3   OH274133   0.643   4.491   6.599  0.2159  0.3887 -0.0034
17573TIP3    H174134   0.624   4.581   6.571  0.6350  0.0686 -1.4363
17573TIP3    H274135   0.580   4.473   6.668 -1.6339  0.9205 -1.4713
17574TIP3   OH274136   3.153   2.969   1.492  0.3647  0.7874 -0.4854
17574TIP3    H174137   3.111   2.883   1.487 -1.2812  1.5375 -0.2371
17574TIP3    H274138   3.236   2.957   1.445 -0.1499 -0.7379 -1.1006
17575TIP3   OH274139   5.959   1.992  12.050 -0.2075 -0.7737 -0.0307
17575TIP3    H174140   6.029   2.049  12.017  0.5354 -1.3200  0.5634
17575TIP3    H274141   5.986   1.904  12.024  0.4347 -1.2243  2.0526
17576TIP3   OH274142   6.122   0.918  11.879 -0.4359  0.0913  0.6432
17576TIP3    H174143   6.130   0.985  11.811 -2.4096  0.7506  0.9768
17576TIP3    H274144   6.211   0.885  11.891 -0.0485 -0.4001 -2.5733
17577TIP3   OH274145   2.649   2.668  16.294 -0.0393 -0.0376 -0.5283
17577TIP3    H174146   2.612   2.721  16.224 -0.7650  0.0047 -0.1202
17577TIP3    H274147   2.630   2.578  16.269  2.5336 -0.2688 -2.0032
17578TIP3   OH274148   4.940   6.743  15.185 -0.3697 -0.2807 -0.3876
17578TIP3    H174149   4.876   6.796  15.231  1.1778  2.1226 -0.8118
17578TIP3    H274150   4.924   6.760  15.092  1.8882  1.8255 -0.4892
17579TIP3   OH274151   6.645   3.657  13.048  0.2887  0.1099  0.1651
17579TIP3    H174152   6.627   3.591  12.981  0.8335 -0.2546  0.3704
17579TIP3    H274153   6.640   3.608  13.131  3.4631 -0.3598  0.2109
17580TIP3   OH274154   3.129   1.432  11.393  0.3067 -0.4793 -0.0848
17580TIP3    H174155   3.199   1.399  11.450  1.1038  0.5319 -0.4538
17580TIP3    H274156   3.102   1.515  11.434 -1.0742 -1.1220  0.3590
17581TIP3   OH274157   4.624   3.006   4.101 -0.0285 -0.7344  0.4076
17581TIP3    H174158   4.622   2.927   4.047  2.6550 -0.0027 -0.9457
17581TIP3    H274159   4.709   3.003   4.145 -0.9821  0.1197  2.4135
17582TIP3   OH274160   2.433   1.011  12.584 -0.6047  0.5392 -0.1397
17582TIP3    H174161   2.470   0.960  12.512  0.6671  2.6730 -1.0990
17582TIP3    H274162   2.507   1.029  12.642 -0.5098  2.8755 -0.8617
17583TIP3   OH274163   5.470   1.435  15.496 -0.1236  0.1851 -0.2902
17583TIP3    H174164   5.458   1.371  15.566 -0.5294  0.4564 -0.1083
17583TIP3    H274165   5.492   1.516  15.541 -0.6437  0.4244 -0.4569
17584TIP3   OH274166   2.108   6.136  13.789 -0.2640  0.4149 -0.3035
17584TIP3    H174167   2.084   6.131  13.881  1.2921 -0.3305  0.0872
17584TIP3    H274168   2.075   6.055  13.751 -2.4081  1.4422 -0.8411
17585TIP3   OH274169   4.999   5.768   0.277  0.8481 -0.3725  0.2068
17585TIP3    H174170   4.933   5.820   0.321  0.8292 -0.9304  0.8494
17585TIP3    H274171   5.018   5.816   0.196  1.2186  0.9063  1.0291
17586TIP3   OH274172   1.265   0.459  13.114 -0.2213  0.4248  0.0320
17586TIP3    H174173   1.233   0.481  13.027 -0.3915  0.5375  0.1246
17586TIP3    H274174   1.217   0.516  13.173 -1.4718 -0.9459  0.3774
17587TIP3   OH274175   1.956   1.984   1.856  0.4379  0.4773  0.6277
17587TIP3    H174176   2.029   2.024   1.903  1.5397 -0.0033 -0.6451
17587TIP3    H274177   1.968   2.011   1.765 -0.1517 -0.8015  0.1526
17588TIP3   OH274178   2.747   0.612   1.356  0.3678  0.3447 -0.0141
17588TIP3    H174179   2.729   0.657   1.273 -0.3401  2.5680  1.2514
17588TIP3    H274180   2.661   0.587   1.388  0.4246  1.3035  0.9528
17589TIP3   OH274181   4.977   0.413  11.825  0.2839 -0.2021  0.7761
17589TIP3    H174182   5.019   0.457  11.899  0.6690 -0.0491  0.4653
17589TIP3    H274183   5.038   0.344  11.801 -0.4649 -1.1456  1.4784
17590TIP3   OH274184   1.962   4.769   2.136  0.3785 -0.5845 -0.0363
17590TIP3    H174185   1.953   4.833   2.065 -0.6927 -1.0355 -0.3271
17590TIP3    H274186   2.052   4.738   2.128  1.0698  1.1942  0.3901
17591TIP3   OH274187   5.999   1.562   1.030  0.0994 -0.3516  0.7265
17591TIP3    H174188   5.941   1.505   0.979 -1.4746  1.4686  0.3407
17591TIP3    H274189   5.988   1.649   0.991  2.4274  0.2618  1.2566
17592TIP3   OH274190   1.911   3.744   0.672 -0.1628  0.3267 -0.0799
17592TIP3    H174191   1.867   3.810   0.725  1.2882 -0.3394  2.0972
17592TIP3    H274192   1.870   3.661   0.698 -0.7475  0.1568 -1.4642
17593TIP3   OH274193   2.170   4.125   0.332 -0.3812  0.1175 -0.0780
17593TIP3    H174194   2.138   4.035   0.336  0.4727 -0.1448  1.5859
17593TIP3    H274195   2.219   4.137   0.412 -1.5617  2.5091  0.3946
17594TIP3   OH274196   2.333   5.409   3.223 -0.3604  0.4199  0.0650
17594TIP3    H174197   2.356   5.476   3.158  0.2950 -0.2689 -0.4382
17594TIP3    H274198   2.358   5.326   3.181  0.3992 -0.0179  1.3323
17595TIP3   OH274199   2.467   3.857   4.386  0.7285  0.3787 -0.5190
17595TIP3    H174200   2.524   3.780   4.387 -1.8065 -1.6570 -0.6703
17595TIP3    H274201   2.458   3.882   4.478  1.2787  0.2414 -0.4284
17596TIP3   OH274202   1.834   6.049   4.567  0.2936 -0.0145 -0.1459
17596TIP3    H174203   1.916   6.029   4.612 -0.6853 -2.2371  0.7556
17596TIP3    H274204   1.776   6.084   4.635 -0.0937 -0.1610 -0.3938
17597TIP3   OH274205   2.374   1.570   2.708 -0.2468 -0.2847  0.0421
17597TIP3    H174206   2.301   1.548   2.764  0.2110  0.7563  1.0778
17597TIP3    H274207   2.418   1.486   2.691 -2.4842 -1.1916 -1.8706
17598TIP3   OH274208   0.290   6.728  12.725  0.3571  0.1007 -0.1462
17598TIP3    H174209   0.375   6.726  12.768 -0.6895 -3.3324  2.2259
17598TIP3    H274210   0.234   6.778  12.784 -0.0005 -0.4734  0.0055
17599TIP3   OH274211   0.189   3.279   1.727 -0.4367 -0.4712 -0.2187
17599TIP3    H174212   0.273   3.253   1.766 -1.3964 -2.1908  0.8414
17599TIP3    H274213   0.170   3.211   1.663 -2.0252 -1.3708  1.1179
17600TIP3   OH274214   2.645   6.111  14.317  0.3927 -0.4107  0.0235
17600TIP3    H174215   2.627   6.070  14.232  0.5676 -0.9443  0.2452
17600TIP3    H274216   2.641   6.205  14.298 -0.9303 -0.5104 -0.2946
17601TIP3   OH274217   4.986   4.510   1.459  0.5971 -0.1118 -0.4874
17601TIP3    H174218   4.948   4.558   1.532  2.4539 -0.6829  0.9215
17601TIP3    H274219   4.966   4.564   1.382 -1.1126  0.6705  0.4338
17602TIP3   OH274220   1.381   0.289  16.963  0.2171 -0.0967  0.3909
17602TIP3    H174221   1.411   0.240  17.039 -0.7982 -0.7570  0.3770
17602TIP3    H274222   1.297   0.251  16.940  0.6284 -0.1166 -1.2542
17603TIP3   OH274223   4.420   0.461  13.379  0.4027  0.7071  0.5113
17603TIP3    H174224   4.482   0.449  13.307 -1.1722  0.9846 -0.9458
17603TIP3    H274225   4.431   0.383  13.433  1.0232  0.0750 -0.4972
17604TIP3   OH274226   5.855   6.704  11.639  0.1592 -0.0643 -0.0015
17604TIP3    H174227   5.949   6.707  11.620  1.0135  1.1666  3.7023
17604TIP3    H274228   5.820   6.785  11.602  0.3996 -0.7253 -1.7749
17605TIP3   OH274229   2.525   5.544   5.176  0.0953 -0.2726  0.2375
17605TIP3    H174230   2.509   5.635   5.154 -0.1264 -0.6704 -1.3082
17605TIP3    H274231   2.441   5.500   5.164  0.0409 -0.5881  1.5843
17606TIP3   OH274232   5.355   3.525   3.126  0.0500  0.0482 -0.0555
17606TIP3    H174233   5.384   3.579   3.199  1.1704  0.2817 -0.6444
17606TIP3    H274234   5.374   3.435   3.153 -0.8070  0.0197  0.4813
17607TIP3   OH274235   6.753   0.246   0.507  0.2008 -0.0086  1.3519
17607TIP3    H174236   6.808   0.172   0.480  1.3843  0.4181  2.5020
17607TIP3    H274237   6.663   0.215   0.495  0.5917 -0.1611 -2.2035
17608TIP3   OH274238   1.164   6.194   2.312 -0.2023 -0.3054  0.2079
17608TIP3    H174239   1.217   6.127   2.269  0.2659  0.8397 -1.0885
17608TIP3    H274240   1.078   6.186   2.272  0.4669  1.3547 -1.7410
17609TIP3   OH274241   1.134   6.574  15.880 -0.1298  0.5076 -0.0756
17609TIP3    H174242   1.152   6.633  15.953  1.0422  1.3052 -0.9839
17609TIP3    H274243   1.141   6.629  15.802  1.1326 -0.8376 -0.9660
17610TIP3   OH274244   3.321   5.618   5.933 -0.3021  0.1408 -0.2876
17610TIP3    H174245   3.284   5.538   5.895 -2.1919  0.4392  0.7783
17610TIP3    H274246   3.244   5.671   5.956  0.8764  1.7417  0.1477
17611TIP3   OH274247   1.657   0.603   1.633 -0.1209 -0.0083  0.1304
17611TIP3    H174248   1.639   0.666   1.704 -2.3691 -2.2963  1.7894
17611TIP3    H274249   1.728   0.548   1.667 -2.4759 -2.3455  1.6911
17612TIP3   OH274250   0.707   4.114  14.226 -0.0584  0.2788  0.8760
17612TIP3    H174251   0.753   4.129  14.309 -1.0795  2.0205  1.1728
17612TIP3    H274252   0.644   4.186  14.220 -3.1481 -2.2242  0.7478
17613TIP3   OH274253   5.897   2.312   5.007 -0.4648  0.8131  0.2065
17613TIP3    H174254   5.875   2.251   5.077  0.7479  0.0334 -0.0544
17613TIP3    H274255   5.929   2.390   5.052  0.3739  0.2889  0.5301
17614TIP3   OH274256   2.214   3.488  14.297  0.8187  0.1113  0.2587
17614TIP3    H174257   2.213   3.393  14.308  1.7013  0.3063  2.4454
17614TIP3    H274258   2.123   3.511  14.277  0.8146 -1.2656 -1.5959
17615TIP3   OH274259   0.101   4.246   4.713 -0.3803 -0.6620  0.1498
17615TIP3    H174260   0.082   4.277   4.624  2.0151  1.6882  0.3331
17615TIP3    H274261   0.061   4.312   4.770  0.2970 -0.7410  0.7323
17616TIP3   OH274262   0.386   6.708  16.517  0.0078  0.6115 -0.3269
17616TIP3    H174263   0.338   6.771  16.464 -0.2501  1.0416  0.4079
17616TIP3    H274264   0.476   6.714  16.485  0.3719  2.6199  0.8193
17617TIP3   OH274265   4.521   4.259  16.613 -0.6445 -0.2693  0.1754
17617TIP3    H174266   4.429   4.262  16.588 -1.1823 -0.6959  1.9617
17617TIP3    H274267   4.549   4.171  16.589 -0.6444 -0.0777 -0.5408
17618TIP3   OH274268   4.216   0.350  14.166 -0.1931 -0.5045 -0.2650
17618TIP3    H174269   4.151   0.294  14.125 -0.2868 -2.4248  2.2332
17618TIP3    H274270   4.276   0.289  14.210 -0.9043  1.1950  3.5119
17619TIP3   OH274271   0.643   6.554   3.471 -0.1242  1.1025 -0.0856
17619TIP3    H174272   0.708   6.609   3.515  0.8529 -1.1106  1.4213
17619TIP3    H274273   0.559   6.584   3.507  0.4770  0.8765  1.6068
17620TIP3   OH274274   4.639   6.243  17.159 -0.1730  0.4741  0.5284
17620TIP3    H174275   4.730   6.270  17.156 -0.4576  1.5119  0.8635
17620TIP3    H274276   4.642   6.147  17.152  0.9216  0.5035  0.4380
17621TIP3   OH274277   2.078   4.698   4.020 -0.2217  0.2422 -0.0690
17621TIP3    H174278   2.039   4.631   3.964  0.5834 -0.8570  0.6356
17621TIP3    H274279   2.069   4.662   4.109 -0.4827  1.4426  0.3992
17622TIP3   OH274280   2.181   6.094  16.626 -0.2474 -0.3951 -0.1451
17622TIP3    H174281   2.197   6.143  16.545 -3.1951  0.9701 -0.0614
17622TIP3    H274282   2.112   6.032  16.602  0.4030 -1.5229  0.8188
17623TIP3   OH274283   3.402   0.531   3.981  0.1232  0.1620 -0.5206
17623TIP3    H174284   3.343   0.457   3.998  0.4986 -0.4263 -1.6494
17623TIP3    H274285   3.487   0.490   3.965  0.2175  0.7798 -1.7405
17624TIP3   OH274286   5.053   6.735  14.870  0.2295  0.1367 -0.1713
17624TIP3    H174287   5.087   6.706  14.786  1.6342  0.8444  0.1158
17624TIP3    H274288   4.965   6.697  14.875  1.1868 -2.3925 -0.6642
17625TIP3   OH274289   5.117   4.185   0.093  0.6530  0.5385  0.5361
17625TIP3    H174290   5.108   4.157   0.002  2.5075 -2.4678  1.1381
17625TIP3    H274291   5.191   4.135   0.126 -0.0883  1.3631  3.7807
17626TIP3   OH274292   3.719   6.470   0.991  0.6147  0.5947 -0.1911
17626TIP3    H174293   3.779   6.489   1.064  0.2608 -0.6690  0.4484
17626TIP3    H274294   3.639   6.440   1.033  0.7438 -1.1416 -1.1199
17627TIP3   OH274295   3.824   0.171  15.603 -0.5675  0.0678 -0.3520
17627TIP3    H174296   3.888   0.184  15.673  0.5804  0.6666 -1.4775
17627TIP3    H274297   3.799   0.259  15.577 -1.2289 -0.1557 -0.4936
17628TIP3   OH274298   4.921   5.801   6.252 -0.1447 -0.2910  0.1529
17628TIP3    H174299   4.833   5.836   6.266 -0.1727 -0.2457 -0.1257
17628TIP3    H274300   4.979   5.875   6.266 -0.0420 -0.6261  1.7053
17629TIP3   OH274301   1.014   6.274  15.570  0.2841 -0.9022  0.0560
17629TIP3    H174302   1.082   6.334  15.601 -2.5422  3.1049 -0.7434
17629TIP3    H274303   1.063   6.203  15.528  4.0240  1.8726 -0.8571
17630TIP3   OH274304   4.256   4.758  12.389 -0.0566  0.0983  0.8311
17630TIP3    H174305   4.279   4.846  12.359  0.1048 -0.4588 -0.7222
17630TIP3    H274306   4.291   4.699  12.323  0.0166 -1.1747  1.9493
17631TIP3   OH274307   2.607   3.580  14.655  0.1823 -0.4299  0.8011
17631TIP3    H174308   2.579   3.492  14.628  0.9582 -1.0917  2.1025
17631TIP3    H274309   2.569   3.592  14.742  2.5782 -0.7487  1.9756
17632TIP3   OH274310   4.616   4.046  11.132  0.2075  0.0001  0.1932
17632TIP3    H174311   4.575   4.130  11.149 -0.4367 -0.3092  0.1940
17632TIP3    H274312   4.709   4.061  11.148 -0.0517  0.3856  1.4242
17633TIP3   OH274313   1.781   6.352  15.317 -0.4811 -0.6364  0.7241
17633TIP3    H174314   1.750   6.411  15.249 -2.0533 -0.8480  1.2229
17633TIP3    H274315   1.813   6.409  15.387  0.8719 -0.4188 -0.0364
17634TIP3   OH274316   5.382   5.214  14.576 -0.6027  0.6271 -0.0415
17634TIP3    H174317   5.381   5.292  14.520  1.2897  1.3862  0.8769
17634TIP3    H274318   5.409   5.247  14.661 -0.7733 -0.9056  0.6321
17635TIP3   OH274319   1.332   3.110   0.445 -0.0790 -0.0663  1.0481
17635TIP3    H174320   1.400   3.109   0.513 -0.0810 -0.9503  1.0426
17635TIP3    H274321   1.366   3.171   0.379  1.0048 -0.9612  0.7586
17636TIP3   OH274322   2.410   6.157  14.977 -0.4010 -0.2575 -0.0547
17636TIP3    H174323   2.443   6.228  14.921  0.6403 -1.0266 -0.4482
17636TIP3    H274324   2.466   6.082  14.957 -0.6326 -0.8313  1.3133
17637TIP3   OH274325   6.056   0.021  14.364  0.4697  0.2665 -0.1083
17637TIP3    H174326   6.040   0.077  14.440 -0.0126  0.7183 -0.5337
17637TIP3    H274327   6.010   0.065  14.292 -0.2037 -0.8357 -0.3845
17638TIP3   OH274328   4.543   3.287   0.566  0.0440 -0.2337 -0.5300
17638TIP3    H174329   4.505   3.201   0.587 -0.1277 -0.2453 -0.8703
17638TIP3    H274330   4.550   3.332   0.650 -0.7559 -0.2244 -0.4608
17639TIP3   OH274331   0.549   5.994  11.310  0.3410 -0.1148 -0.1868
17639TIP3    H174332   0.579   6.081  11.337  1.8064 -0.3658 -0.8966
17639TIP3    H274333   0.462   6.010  11.274 -0.1096  0.7846  1.1970
17640TIP3   OH274334   1.067   3.767  15.522 -0.6600  0.4537 -0.4109
17640TIP3    H174335   1.091   3.739  15.434  1.2495  0.4913  0.0514
17640TIP3    H274336   1.081   3.690  15.577 -0.1421  0.9086  0.1122
17641TIP3   OH274337   1.440   4.725   1.184  0.2482  0.4023 -0.3318
17641TIP3    H174338   1.361   4.683   1.148 -0.4390  0.5227  0.9996
17641TIP3    H274339   1.511   4.693   1.127 -0.6680 -0.1749 -1.1934
17642TIP3   OH274340   0.839   5.028  15.350 -0.1935  0.7375  0.2395
17642TIP3    H174341   0.915   4.985  15.390 -1.7802 -1.0579  1.4943
17642TIP3    H274342   0.826   5.108  15.401  0.5704  0.8304  0.2946
17643TIP3   OH274343   1.986   1.642  14.075 -0.6761  0.6131  0.4433
17643TIP3    H174344   1.905   1.597  14.099 -2.1402  2.4746 -0.6953
17643TIP3    H274345   2.003   1.700  14.150  0.1726 -0.4591  1.1011
17644TIP3   OH274346   0.410   6.077  16.416 -0.9129  0.3768  0.3087
17644TIP3    H174347   0.359   6.000  16.437  0.4549 -0.2433  1.4879
17644TIP3    H274348   0.424   6.121  16.500  1.4515 -0.1242  0.2549
17645TIP3   OH274349   3.411   1.996  10.715 -0.0809  0.6698 -0.3006
17645TIP3    H174350   3.376   1.936  10.649 -1.4264  1.2911 -0.1791
17645TIP3    H274351   3.479   2.045  10.668  1.5021 -1.3372 -0.2280
17646TIP3   OH274352   6.361   4.665  12.716 -0.2189 -0.1804 -0.2598
17646TIP3    H174353   6.359   4.569  12.715 -0.6331 -0.1775  0.0688
17646TIP3    H274354   6.332   4.691  12.628 -0.3619 -0.3516 -0.2627
17647TIP3   OH274355   3.809   4.419   3.103 -0.4741 -0.4714  0.1493
17647TIP3    H174356   3.738   4.374   3.057 -1.4850 -0.7618  1.8946
17647TIP3    H274357   3.781   4.510   3.107  0.2867 -0.1604 -0.9908
17648TIP3   OH274358   3.793   5.279   0.904 -0.4277  0.7807  0.1114
17648TIP3    H174359   3.769   5.371   0.889 -3.1592  0.0191 -0.5813
17648TIP3    H274360   3.726   5.245   0.962  1.4224 -0.4544  1.6534
17649TIP3   OH274361   1.328   0.883   4.196  0.1805 -0.0473 -0.2242
17649TIP3    H174362   1.313   0.904   4.289  1.3395 -1.8643  0.4287
17649TIP3    H274363   1.241   0.890   4.156 -0.4391  0.2821  1.1126
17650TIP3   OH274364   0.083   0.532  15.089  0.4011 -0.2562 -0.0469
17650TIP3    H174365  -0.001   0.555  15.050 -0.2176 -0.5292  1.0656
17650TIP3    H274366   0.062   0.513  15.181  1.5292 -1.1910  0.0458
17651TIP3   OH274367   0.746   2.428  13.890 -0.1001 -0.3525  0.2552
17651TIP3    H174368   0.691   2.488  13.839 -2.5829 -0.8241  2.1488
17651TIP3    H274369   0.813   2.399  13.830  1.5817  4.6234 -0.7141
17652TIP3   OH274370   4.573   0.378   5.799  0.3329  0.7023 -1.3579
17652TIP3    H174371   4.513   0.385   5.873 -0.5905 -0.8689 -1.9148
17652TIP3    H274372   4.583   0.468   5.769 -0.7915  1.1493 -0.5035
17653TIP3   OH274373   0.694   4.652   2.888 -0.2284  0.5744 -0.0185
17653TIP3    H174374   0.662   4.591   2.821 -0.2809  1.6811 -1.0372
17653TIP3    H274375   0.615   4.685   2.930 -0.1846 -0.3359  0.8152
17654TIP3   OH274376   2.788   0.108  16.347  0.3567 -0.2396 -0.0511
17654TIP3    H174377   2.700   0.071  16.340  0.2148  0.1601 -0.4509
17654TIP3    H274378   2.845   0.033  16.360  0.3761 -0.9491 -3.2208
17655TIP3   OH274379   4.431   6.163   2.033 -0.2479  0.0161  0.8954
17655TIP3    H174380   4.453   6.129   1.946 -0.5413 -1.2849  1.2984
17655TIP3    H274381   4.478   6.246   2.040  1.5216 -0.8883  0.2945
17656TIP3   OH274382   3.583   2.788  14.187  0.0912 -0.2137  0.2616
17656TIP3    H174383   3.511   2.744  14.141 -0.0243  0.2404  0.0037
17656TIP3    H274384   3.547   2.807  14.274 -0.2000  0.2583  0.0431
17657TIP3   OH274385   4.923   6.321   5.596  0.2936 -0.1332 -0.0805
17657TIP3    H174386   4.877   6.299   5.676 -0.2596  0.3851 -0.2472
17657TIP3    H274387   4.865   6.382   5.551 -0.2909 -1.8234 -1.7674
17658TIP3   OH274388   0.624   2.136   2.363  0.8795  0.2228  0.4426
17658TIP3    H174389   0.672   2.115   2.283  0.2271 -2.0871  0.6004
17658TIP3    H274390   0.532   2.126   2.338  0.5819  1.3276  1.0267
17659TIP3   OH274391   5.109   5.738  12.940 -0.1295 -0.2417  0.1862
17659TIP3    H174392   5.062   5.716  13.020  1.2278  0.8416  1.3394
17659TIP3    H274393   5.106   5.658  12.888 -1.7332 -0.7181  0.9515
17660TIP3   OH274394   4.196   5.600  13.617  0.1078  0.1560  0.9175
17660TIP3    H174395   4.260   5.624  13.684  0.0664 -1.7204  1.6918
17660TIP3    H274396   4.229   5.517  13.582 -1.9020 -0.9002  1.3840
17661TIP3   OH274397   6.623   6.035   5.240 -0.2566 -0.1581 -0.1351
17661TIP3    H174398   6.576   5.975   5.182 -0.1120 -0.5915  0.1917
17661TIP3    H274399   6.663   6.099   5.181  0.0881 -0.7348 -0.5351
17662TIP3   OH274400   4.914   6.469  13.350  0.1075 -0.2225 -0.0804
17662TIP3    H174401   4.851   6.522  13.302 -1.0345 -0.8563  0.6796
17662TIP3    H274402   4.977   6.440  13.283 -0.8959 -0.2896 -1.0222
17663TIP3   OH274403   6.087   1.701  16.301 -0.2010 -0.8691  0.1470
17663TIP3    H174404   6.076   1.793  16.327  1.4269 -0.3757 -0.7148
17663TIP3    H274405   6.040   1.651  16.367 -4.0018  0.6704 -1.1194
17664TIP3   OH274406   5.105   1.937  14.641  0.1433 -0.4954 -0.1293
17664TIP3    H174407   5.178   1.929  14.702 -0.6198 -1.0290  0.7502
17664TIP3    H274408   5.073   1.847  14.631  1.6449 -0.8270 -3.1417
17665TIP3   OH274409   2.878   6.490  13.304  0.0107 -0.3172 -0.4257
17665TIP3    H174410   2.927   6.436  13.242  0.1550 -0.9569  0.2277
17665TIP3    H274411   2.819   6.542  13.250  0.5248 -0.4577 -1.1314
17666TIP3   OH274412   4.699   4.270   5.367  0.5478  0.0887  0.0589
17666TIP3    H174413   4.686   4.328   5.442 -2.2158 -1.2676  0.7676
17666TIP3    H274414   4.637   4.301   5.301  0.8532 -0.5227 -0.5244
17667TIP3   OH274415   3.021   2.915  10.895 -0.8980 -0.5405  0.0131
17667TIP3    H174416   2.969   2.871  10.827  1.2460  0.4430 -2.4278
17667TIP3    H274417   3.056   2.993  10.852  0.3548  0.3101  2.3687
17668TIP3   OH274418   1.672   4.708   1.653  0.6700 -0.0198 -0.5225
17668TIP3    H174419   1.687   4.701   1.559  0.7131 -2.6760 -0.4010
17668TIP3    H274420   1.729   4.642   1.691  0.8821  1.2212  1.4218
17669TIP3   OH274421   0.681   5.673  16.629  0.2899 -0.4281 -0.7109
17669TIP3    H174422   0.646   5.678  16.540  0.0249  0.5788 -0.5697
17669TIP3    H274423   0.604   5.671  16.685  0.3827  1.7399 -0.3968
17670TIP3   OH274424   3.255   2.015  10.382 -0.3276 -0.3611  0.2049
17670TIP3    H174425   3.331   1.991  10.435 -0.7489 -1.6453  0.2495
17670TIP3    H274426   3.256   1.954  10.309 -1.1002 -0.1269 -0.0121
17671TIP3   OH274427   0.215   1.855  10.974  0.5291  0.7884 -0.3780
17671TIP3    H174428   0.298   1.857  11.022  0.5358  0.5692 -0.3796
17671TIP3    H274429   0.164   1.927  11.011  0.1308 -0.0162  0.6860
17672TIP3   OH274430   6.271   5.568  12.889 -0.3512 -0.5342  0.6113
17672TIP3    H174431   6.201   5.568  12.824  0.8678  0.7031 -0.7617
17672TIP3    H274432   6.299   5.660  12.893  3.4616 -1.4139 -1.4578
17673TIP3   OH274433   6.368   3.830  12.572  0.8834 -0.2059  0.5650
17673TIP3    H174434   6.356   3.878  12.490  1.4963 -0.4893  0.2972
17673TIP3    H274435   6.438   3.767  12.552  2.5348  1.1118  1.8869
17674TIP3   OH274436   0.360   3.935   4.942 -0.6827  0.0556  0.0145
17674TIP3    H174437   0.320   3.993   4.877 -0.0685  0.3341 -0.1235
17674TIP3    H274438   0.297   3.933   5.014 -1.4648 -0.4091 -0.6589
17675TIP3   OH274439   1.970   2.144  16.292  0.0803  0.4794  0.9127
17675TIP3    H174440   2.030   2.172  16.223 -1.3960 -0.4370 -0.8625
17675TIP3    H274441   2.015   2.072  16.335 -0.0767 -0.9205 -1.0926
17676TIP3   OH274442   5.949   4.941  14.842  0.6581  0.1213 -0.6256
17676TIP3    H174443   5.901   4.864  14.813  0.7908  0.4686 -1.8318
17676TIP3    H274444   5.887   5.013  14.832  0.7715  0.2798 -0.2044
17677TIP3   OH274445   1.786   0.300   3.505 -0.6447 -0.2078  0.7079
17677TIP3    H174446   1.827   0.264   3.584  1.4558 -0.9040 -0.6113
17677TIP3    H274447   1.826   0.387   3.495 -1.4718  0.1937  0.8012
17678TIP3   OH274448   5.644   1.811  11.870  0.3854 -0.3698 -0.1559
17678TIP3    H174449   5.660   1.719  11.846 -2.5036 -0.9720 -0.1508
17678TIP3    H274450   5.627   1.808  11.964 -0.9580 -0.0491 -0.3769
17679TIP3   OH274451   1.369   4.491   0.095  0.0373  0.5018 -0.0324
17679TIP3    H174452   1.403   4.532   0.174  0.5887  2.6012 -1.2818
17679TIP3    H274453   1.297   4.548   0.067  0.5820  0.4652 -1.6294
17680TIP3   OH274454   0.958   5.647   0.922  0.1045 -0.4130  0.0898
17680TIP3    H174455   0.996   5.572   0.968 -1.8299 -1.3820  0.2388
17680TIP3    H274456   0.959   5.620   0.830  0.7550  0.0297 -0.0395
17681TIP3   OH274457   2.415   0.525  11.394  0.2337 -0.1871 -0.1124
17681TIP3    H174458   2.358   0.600  11.381  0.2329 -0.2465 -0.4724
17681TIP3    H274459   2.438   0.497  11.305  0.2369 -0.6046  0.0178
17682TIP3   OH274460   6.258   2.883  16.871 -0.1678 -0.2195  0.6782
17682TIP3    H174461   6.239   2.859  16.780 -0.9473  1.0625  0.4782
17682TIP3    H274462   6.341   2.930  16.867 -0.3802  0.1491  0.5712
17683TIP3   OH274463   6.609   5.108  11.620  0.2240  0.1511 -0.5230
17683TIP3    H174464   6.600   5.070  11.533  0.2687 -0.2486 -0.3573
17683TIP3    H274465   6.666   5.184  11.608  1.5664 -0.8480 -0.5751
17684TIP3   OH274466   5.603   5.528   5.303  0.0101  0.2959 -0.3840
17684TIP3    H174467   5.535   5.594   5.292 -0.9760 -0.7715 -0.8240
17684TIP3    H274468   5.668   5.548   5.235  0.8138  2.0837  0.8307
17685TIP3   OH274469   0.638   1.424   0.193 -0.1642 -0.2450 -0.2548
17685TIP3    H174470   0.692   1.366   0.247 -0.0077  1.8218  1.9597
17685TIP3    H274471   0.554   1.379   0.186 -1.0158  0.3292  3.8079
17686TIP3   OH274472   6.127   2.229  16.967 -0.1039  0.9344  0.6179
17686TIP3    H174473   6.140   2.160  16.902 -1.1659  0.4586  0.8872
17686TIP3    H274474   6.181   2.302  16.936  2.3517 -0.5352  1.1832
17687TIP3   OH274475   1.327   6.010   1.108 -0.0923 -0.3166  0.2012
17687TIP3    H174476   1.262   5.983   1.173  0.8768  0.8768  1.7522
17687TIP3    H274477   1.280   6.068   1.049 -0.6916 -0.3755  0.6097
17688TIP3   OH274478   5.814   1.866   0.003  0.2279 -0.1735  0.1506
17688TIP3    H174479   5.753   1.803   0.041  1.5002 -0.7645  1.3009
17688TIP3    H274480   5.761   1.943  -0.014 -1.2343 -1.3210 -0.6959
17689TIP3   OH274481   1.504   3.110   1.185  0.0518 -0.8786 -0.4188
17689TIP3    H174482   1.515   3.193   1.231 -0.4141 -0.2462 -1.4167
17689TIP3    H274483   1.465   3.051   1.250  0.8970 -0.4882  0.4528
17690TIP3   OH274484   0.755   4.521   4.615  0.1001 -0.9928  0.2349
17690TIP3    H174485   0.845   4.539   4.642 -0.5947  0.8524  1.4960
17690TIP3    H274486   0.701   4.559   4.684 -1.7147  0.7886 -1.9977
17691TIP3   OH274487   3.537   2.517   2.730  0.0216 -0.1625  0.0671
17691TIP3    H174488   3.622   2.560   2.738  0.4393 -1.1070  0.9397
17691TIP3    H274489   3.558   2.424   2.724 -0.9334 -0.3687 -0.2437
17692TIP3   OH274490   5.942   0.099  12.661  0.0911 -0.0559 -0.1086
17692TIP3    H174491   5.959   0.054  12.578  0.1064 -0.2569  0.0022
17692TIP3    H274492   5.848   0.113  12.663  0.2467  1.2077 -0.8048
17693TIP3   OH274493   0.619   3.145  17.012  0.1947 -0.3630 -0.2099
17693TIP3    H174494   0.534   3.145  17.056  0.5213  0.9699  0.4857
17693TIP3    H274495   0.613   3.073  16.949 -2.1092  0.8355 -1.4898
17694TIP3   OH274496   0.925   3.858   2.319 -0.3253 -0.2033  0.1587
17694TIP3    H174497   0.846   3.815   2.285 -0.1998 -0.7739  0.5706
17694TIP3    H274498   0.993   3.837   2.255  0.6220 -3.7307  2.0654
17695TIP3   OH274499   2.055   5.710  15.887  0.8736 -0.8149 -0.8068
17695TIP3    H174500   2.097   5.636  15.843  1.3654 -0.5216 -0.8286
17695TIP3    H274501   2.075   5.786  15.831  0.5216 -0.6326 -0.6904
17696TIP3   OH274502   2.043   6.418  11.508 -0.6207  0.0364 -0.3808
17696TIP3    H174503   1.964   6.378  11.472  1.0301 -1.2485 -2.8727
17696TIP3    H274504   2.074   6.355  11.572 -0.8941 -0.1093 -0.3872
17697TIP3   OH274505   1.706   2.692   3.153 -0.2355 -0.4955  0.1299
17697TIP3    H174506   1.718   2.642   3.234 -0.0517 -0.8538 -0.1161
17697TIP3    H274507   1.665   2.631   3.092 -2.5072  0.4299  0.6450
17698TIP3   OH274508   3.822   2.611  12.790 -0.2993 -0.8367  0.1952
17698TIP3    H174509   3.787   2.563  12.865 -1.9096  1.6759  1.1633
17698TIP3    H274510   3.749   2.617  12.729 -0.3282  0.7825  0.3451
17699TIP3   OH274511   2.761   2.752   1.012  0.1827 -0.7959 -0.1257
17699TIP3    H174512   2.821   2.800   0.955 -0.7819 -1.4082 -1.7259
17699TIP3    H274513   2.776   2.789   1.099  2.4111 -0.5034 -0.5704
17700TIP3   OH274514   1.906   2.302   1.219  0.5047 -0.1944  0.4833
17700TIP3    H174515   1.909   2.299   1.123 -1.9538 -0.8936  0.3645
17700TIP3    H274516   1.836   2.365   1.239  0.2819 -0.8240  1.7875
17701TIP3   OH274517   1.731   1.396   5.236 -0.1218  0.0707 -0.6046
17701TIP3    H174518   1.654   1.405   5.291 -0.6813  0.8260 -1.4822
17701TIP3    H274519   1.781   1.324   5.275 -2.0402 -1.4944 -0.9177
17702TIP3   OH274520   2.518   4.911   1.779  0.3107  0.0878 -0.1526
17702TIP3    H174521   2.565   4.879   1.856  0.4492 -0.9668 -0.6618
17702TIP3    H274522   2.547   5.001   1.769  1.2320 -0.1468  0.3051
17703TIP3   OH274523   2.249   5.867  16.818 -0.3980  0.6046  0.1591
17703TIP3    H174524   2.164   5.900  16.847  0.7166  3.7694  0.2120
17703TIP3    H274525   2.266   5.912  16.736  1.1285 -0.1817  0.0023
17704TIP3   OH274526   4.549   2.999   3.368  0.0323  0.1458  0.3209
17704TIP3    H174527   4.535   3.010   3.274  1.2169 -0.6000  0.0312
17704TIP3    H274528   4.495   2.923   3.391  2.5926 -2.1444 -0.6053
17705TIP3   OH274529   0.090   6.339  10.944 -0.0418  0.1584 -0.5575
17705TIP3    H174530   0.052   6.259  10.910 -0.2782 -0.3013  0.7485
17705TIP3    H274531   0.027   6.408  10.921 -1.2444 -0.4533  0.7608
17706TIP3   OH274532   5.740   4.135   3.032 -0.2039  0.2266  0.1948
17706TIP3    H174533   5.673   4.147   3.099 -1.2256 -2.1013 -0.3033
17706TIP3    H274534   5.717   4.197   2.963 -0.6150  0.8881  0.9129
17707TIP3   OH274535   5.851   0.544   5.002 -0.4241  0.2523 -0.3286
17707TIP3    H174536   5.929   0.513   4.957 -0.6787  1.7131 -1.8708
17707TIP3    H274537   5.779   0.525   4.942 -1.3964 -1.5444  1.2809
17708TIP3   OH274538   2.776   5.203   4.958 -0.3308 -0.1499  0.3215
17708TIP3    H174539   2.861   5.165   4.981 -0.1906  0.6960  1.2672
17708TIP3    H274540   2.785   5.296   4.980 -2.2306 -0.4189  2.5512
17709TIP3   OH274541   6.047   1.366  15.157  0.8813 -0.0578  0.1402
17709TIP3    H174542   6.044   1.461  15.170  0.0818 -0.0552 -0.0535
17709TIP3    H274543   6.082   1.332  15.239  1.5048  0.4222  0.0908
17710TIP3   OH274544   5.226   0.497   1.770  0.6183  0.0562  0.3391
17710TIP3    H174545   5.215   0.558   1.697 -0.0344  0.2239  0.5686
17710TIP3    H274546   5.139   0.490   1.809  0.8913 -0.2727  0.9125
17711TIP3   OH274547   0.440   1.213   3.565  0.6155 -0.7571 -0.0360
17711TIP3    H174548   0.482   1.236   3.648  0.1697 -0.3741  0.0901
17711TIP3    H274549   0.512   1.201   3.503  0.8903  0.2410  0.0865
17712TIP3   OH274550   0.389   0.600   2.467  0.7034 -0.2717  0.3240
17712TIP3    H174551   0.301   0.594   2.502 -0.3102  0.4207 -1.9390
17712TIP3    H274552   0.427   0.677   2.510 -0.1160 -0.0545  0.6630
17713TIP3   OH274553   5.128   3.205   0.721 -0.0690 -0.5010 -0.1467
17713TIP3    H174554   5.129   3.293   0.683 -3.1890 -0.4978 -0.5247
17713TIP3    H274555   5.163   3.216   0.809  2.1745  0.5362 -1.0888
17714TIP3   OH274556   5.729   5.743   0.083 -0.9770  0.5016  0.0838
17714TIP3    H174557   5.752   5.727   0.174  0.0979  2.7450  0.2605
17714TIP3    H274558   5.805   5.712   0.033 -1.0392  0.4193  0.0400
17715TIP3   OH274559   5.558   1.892   0.632 -0.2306  0.1494  0.0259
17715TIP3    H174560   5.607   1.824   0.678 -0.4850 -0.7507 -0.9999
17715TIP3    H274561   5.611   1.971   0.643  0.3242 -0.3202  0.8053
17716TIP3   OH274562   0.548   4.221  14.980  0.4617  0.1749 -0.0154
17716TIP3    H174563   0.474   4.280  14.999 -1.4572 -1.5630 -1.5933
17716TIP3    H274564   0.558   4.225  14.885  1.8453 -0.3106  0.0884
17717TIP3   OH274565   6.707   3.304  16.426  0.2417  0.1453  0.1452
17717TIP3    H174566   6.782   3.248  16.408  0.8688  0.7305  0.9106
17717TIP3    H274567   6.740   3.372  16.484 -1.2048 -0.3768  1.6446
17718TIP3   OH274568   0.446   6.339  15.113 -0.7466  0.2499 -0.7405
17718TIP3    H174569   0.464   6.366  15.203  1.1384 -1.2723 -0.5981
17718TIP3    H274570   0.400   6.414  15.074  1.1719  2.2197  0.5739
17719TIP3   OH274571   6.161   0.971   4.805  0.3610  0.4703 -0.3179
17719TIP3    H174572   6.109   0.909   4.856  1.8130 -2.3789 -1.9885
17719TIP3    H274573   6.250   0.935   4.808  1.3372  2.6446 -1.2187
17720TIP3   OH274574   0.019   6.368  14.420 -0.2908  0.3996 -0.3425
17720TIP3    H174575   0.079   6.297  14.399 -0.0727  0.7464 -0.9135
17720TIP3    H274576  -0.047   6.328  14.477  0.9642  0.2312  1.0379
17721TIP3   OH274577   6.444   1.325   0.717  0.2557 -0.1746  0.2778
17721TIP3    H174578   6.450   1.416   0.748  2.3898 -0.7241  1.7108
17721TIP3    H274579   6.393   1.331   0.636 -1.4363  2.0084  1.3579
17722TIP3   OH274580   2.416   2.789  16.152  0.2946  0.0256  0.2080
17722TIP3    H174581   2.403   2.835  16.235  0.3531 -1.2085  0.9359
17722TIP3    H274582   2.449   2.855  16.092 -1.8914  1.4793  0.5072
17723TIP3   OH274583   1.701   2.089   3.430 -0.1678 -0.3864 -0.0173
17723TIP3    H174584   1.748   2.014   3.466 -0.4132  0.3272  1.8674
17723TIP3    H274585   1.615   2.055   3.406  0.2426 -1.0233 -0.6251
17724TIP3   OH274586   3.259   5.483  11.881  0.8033 -0.5928  0.3900
17724TIP3    H174587   3.280   5.423  11.810 -1.1312 -1.9082  0.8485
17724TIP3    H274588   3.187   5.441  11.928  1.2089  0.7943  2.4216
17725TIP3   OH274589   3.232   6.202   5.652 -0.1652  0.1660 -0.6841
17725TIP3    H174590   3.288   6.163   5.719 -2.1823 -0.4569  0.7212
17725TIP3    H274591   3.236   6.296   5.668  0.5911  0.1458 -0.7215
17726TIP3   OH274592   1.358   4.741  13.888  0.3352  0.2985 -0.2482
17726TIP3    H174593   1.267   4.770  13.896 -0.7014 -2.3929 -1.3323
17726TIP3    H274594   1.407   4.798  13.948 -1.7568  2.9167 -0.8621
17727TIP3   OH274595   3.862   5.609   0.878 -0.4519  0.3534  0.0122
17727TIP3    H174596   3.951   5.616   0.842 -0.8757  2.0073 -0.8118
17727TIP3    H274597   3.805   5.612   0.801 -1.2701  0.4848  0.6117
17728TIP3   OH274598   1.544   3.880   1.700  0.0325 -0.5594  0.3145
17728TIP3    H174599   1.516   3.964   1.665 -0.2094  0.8335  3.4517
17728TIP3    H274600   1.592   3.838   1.628  0.0057  2.1681 -1.4290
17729TIP3   OH274601   5.670   3.476   3.415 -0.3712  0.3234 -0.4880
17729TIP3    H174602   5.662   3.391   3.459 -1.5904 -0.0382 -1.3464
17729TIP3    H274603   5.698   3.454   3.326  1.2404  0.9883 -0.1803
17730TIP3   OH274604   3.501   0.088  12.738 -0.6706  0.2134 -1.2699
17730TIP3    H174605   3.434   0.029  12.702 -0.5426 -1.1865  0.6443
17730TIP3    H274606   3.555   0.032  12.794  0.1624  1.9423 -0.2703
17731TIP3   OH274607   1.306   2.003  16.224  0.2018 -0.1859 -0.2192
17731TIP3    H174608   1.401   2.016  16.228  0.0739  0.5700  0.7585
17731TIP3    H274609   1.270   2.092  16.219 -0.4149 -0.4887 -2.4486
17732TIP3   OH274610   6.166   5.576   4.129  0.1715 -0.1385  0.6488
17732TIP3    H174611   6.198   5.565   4.040  1.2110 -0.2814  1.0256
17732TIP3    H274612   6.238   5.546   4.184  0.1826  1.4330  1.5636
17733TIP3   OH274613   0.848   1.186   1.676  0.1356  0.8237  0.0252
17733TIP3    H174614   0.851   1.267   1.626 -1.1055  0.2170 -1.1030
17733TIP3    H274615   0.846   1.117   1.610  3.2533 -0.2962  0.9399
17734TIP3   OH274616   2.174   2.940  16.242  0.8352  0.0470 -0.0166
17734TIP3    H174617   2.240   2.930  16.311 -0.2724 -0.7614  0.9624
17734TIP3    H274618   2.090   2.940  16.288  0.1553  2.3066 -1.1038
17735TIP3   OH274619   3.295   1.953  11.857 -0.4175  0.4201  0.6346
17735TIP3    H174620   3.320   2.042  11.878 -1.7613  0.1964  3.6114
17735TIP3    H274621   3.377   1.904  11.857  0.1255  1.3195  0.9279
17736TIP3   OH274622   0.802   5.480   0.425  0.0719  0.4068 -0.0382
17736TIP3    H174623   0.876   5.447   0.375  0.1713  1.1067 -0.3610
17736TIP3    H274624   0.751   5.402   0.448  0.3864  0.0221 -0.6501
17737TIP3   OH274625   5.957   4.021  14.745  0.4030 -0.0460 -0.5073
17737TIP3    H174626   6.006   4.024  14.827 -0.0829  2.3651 -0.2302
17737TIP3    H274627   5.936   4.112  14.726 -2.8836 -0.8287 -1.2951
17738TIP3   OH274628   2.811   0.149   0.908 -0.1670  0.3099 -0.1237
17738TIP3    H174629   2.832   0.057   0.918 -2.2218 -0.2458 -0.5939
17738TIP3    H274630   2.796   0.181   0.997 -0.6982 -0.1245 -0.0586
17739TIP3   OH274631   4.939   0.209   2.361 -0.6433 -0.8904 -0.5409
17739TIP3    H174632   4.991   0.135   2.331  1.0834 -0.1969  0.5741
17739TIP3    H274633   4.968   0.282   2.306  1.1982 -0.0258  1.4338
17740TIP3   OH274634   5.123   1.139   0.745 -0.3130 -0.0965  0.3248
17740TIP3    H174635   5.115   1.119   0.838 -1.4893 -0.0272  0.2602
17740TIP3    H274636   5.032   1.147   0.714  0.0575  1.0885 -0.5640
17741TIP3   OH274637   6.672   0.786  15.979 -0.0759  0.0254 -0.0197
17741TIP3    H174638   6.652   0.859  15.921 -0.3108 -0.8764 -1.0951
17741TIP3    H274639   6.618   0.714  15.947  0.2372 -0.6566  0.9525
17742TIP3   OH274640   4.492   1.007  12.708 -0.2268  0.0135  0.2081
17742TIP3    H174641   4.436   1.000  12.631  1.5519 -0.9080 -1.0578
17742TIP3    H274642   4.499   0.917  12.741 -0.8778  0.3783  1.4291
17743TIP3   OH274643   1.560   0.954   0.126 -0.5906 -0.5031  0.1432
17743TIP3    H174644   1.492   0.978   0.063  0.3093  0.4877 -0.4848
17743TIP3    H274645   1.580   1.035   0.172  0.4281 -0.6837  0.0486
17744TIP3   OH274646   0.192   5.716   5.441  0.3234  0.1316  0.0131
17744TIP3    H174647   0.257   5.719   5.371  1.3776  0.7186  0.9738
17744TIP3    H274648   0.159   5.806   5.447 -0.1720 -0.0414 -0.0984
17745TIP3   OH274649   3.465   2.962   5.355  0.5236  0.0928  0.6250
17745TIP3    H174650   3.482   2.990   5.445  0.1106  2.0793  0.1382
17745TIP3    H274651   3.550   2.966   5.311  0.5892 -0.1382  0.7276
17746TIP3   OH274652   3.023   1.585  14.049 -0.4183  0.2603 -0.1395
17746TIP3    H174653   3.076   1.543  13.982 -0.2608  0.8594 -0.3976
17746TIP3    H274654   2.934   1.554  14.032 -0.0574 -1.3491  0.7680
17747TIP3   OH274655   0.942   6.488   1.706 -0.1562 -0.9200 -0.0141
17747TIP3    H174656   0.865   6.544   1.705 -0.4207 -1.1824 -2.5594
17747TIP3    H274657   1.010   6.540   1.662 -0.1700 -2.1848 -1.6628
17748TIP3   OH274658   3.918   5.560   2.880  0.0230 -0.3197  0.2257
17748TIP3    H174659   4.013   5.558   2.872 -0.0045 -2.4024 -0.2893
17748TIP3    H274660   3.890   5.629   2.820  0.9921 -3.5635 -4.5959
17749TIP3   OH274661   4.149   3.016   2.182 -0.1861  0.4677 -0.2578
17749TIP3    H174662   4.216   2.975   2.237  0.6096 -1.5690 -2.6039
17749TIP3    H274663   4.069   3.012   2.235 -0.1946 -4.3329 -0.2665
17750TIP3   OH274664   3.562   0.360  15.146  0.4192 -0.4356 -0.2626
17750TIP3    H174665   3.605   0.444  15.161 -0.0659 -0.1771 -0.2944
17750TIP3    H274666   3.470   0.377  15.163  0.4355 -1.1917  0.6774
17751TIP3   OH274667   4.632   6.426  10.813  0.0265 -0.6866  0.0237
17751TIP3    H174668   4.548   6.406  10.856 -0.0591 -0.0352  0.1799
17751TIP3    H274669   4.660   6.507  10.855  0.9258 -1.1016  0.2341
17752TIP3   OH274670   4.915   1.718  12.433 -0.2485 -0.0240 -0.2899
17752TIP3    H174671   4.854   1.690  12.364  1.5602 -2.0189 -1.2138
17752TIP3    H274672   4.935   1.638  12.481 -0.0035  0.9985  1.3922
17753TIP3   OH274673   3.846   5.895  12.148  0.1748 -0.6884  0.1204
17753TIP3    H174674   3.849   5.988  12.124 -0.4950 -0.7716 -0.3115
17753TIP3    H274675   3.795   5.893  12.229  2.5798 -0.3887  1.7681
17754TIP3   OH274676   2.286   4.092   5.606 -0.2835 -0.5236 -0.3921
17754TIP3    H174677   2.247   4.020   5.656  1.3429  0.9691  3.4080
17754TIP3    H274678   2.343   4.049   5.543  0.0484 -2.6331  1.2098
17755TIP3   OH274679   2.861   2.686  11.483 -0.0456  0.3088  0.4914
17755TIP3    H174680   2.767   2.694  11.467 -0.2994 -2.7765 -0.1248
17755TIP3    H274681   2.902   2.726  11.406 -0.8380  1.2203  0.5311
17756TIP3   OH274682   3.251   1.365   2.709  0.6609  0.1110 -0.6038
17756TIP3    H174683   3.208   1.451   2.716 -0.8244 -0.5168 -1.5405
17756TIP3    H274684   3.339   1.380   2.742  0.1053  1.7555  0.2476
17757TIP3   OH274685   1.605   2.159   2.985  0.4485 -0.0662 -0.2356
17757TIP3    H174686   1.513   2.173   3.009  0.7685  1.3223  0.3252
17757TIP3    H274687   1.611   2.190   2.894  0.4669  0.3930 -0.0828
17758TIP3   OH274688   0.889   5.557  12.804  0.0189  0.0630  0.6897
17758TIP3    H174689   0.868   5.521  12.718  0.2170  0.4684  0.4675
17758TIP3    H274690   0.953   5.496  12.841  0.6817  0.4064  0.1371
17759TIP3   OH274691   4.249   1.226  16.473 -0.0287  0.2800  0.3605
17759TIP3    H174692   4.206   1.273  16.402 -2.5464  0.3868  1.8376
17759TIP3    H274693   4.316   1.286  16.505 -2.0240  2.2730  1.0894
17760TIP3   OH274694   4.377   4.436   3.659  0.5328 -0.0249  0.2131
17760TIP3    H174695   4.359   4.360   3.715  0.5233  0.9069  1.4948
17760TIP3    H274696   4.463   4.466   3.685  0.8005  0.0655 -0.7199
17761TIP3   OH274697   5.445   0.230  10.945 -0.3774 -0.3255  0.1974
17761TIP3    H174698   5.513   0.247  10.880 -1.3081  2.3663 -0.2082
17761TIP3    H274699   5.417   0.140  10.928  2.8147 -1.4244  0.2065
17762TIP3   OH274700   4.900   0.367  15.410  0.0579 -0.2094  0.3878
17762TIP3    H174701   4.909   0.341  15.502 -0.1277  0.3459  0.5656
17762TIP3    H274702   4.985   0.404  15.387  0.3060 -0.9031  0.1487
17763TIP3   OH274703   1.359   2.497   6.003  0.0517 -0.6645  0.4176
17763TIP3    H174704   1.357   2.421   5.945 -0.5604  0.2050 -0.7181
17763TIP3    H274705   1.273   2.497   6.044  1.4133 -3.0722  3.8113
17764TIP3   OH274706   2.461   1.743   2.494 -0.3980 -0.3658 -0.0916
17764TIP3    H174707   2.434   1.687   2.566 -3.0014 -0.1134 -0.7719
17764TIP3    H274708   2.440   1.693   2.415 -1.2958  0.8809 -0.6854
17765TIP3   OH274709   1.211   4.043  12.978 -0.2299  0.0791 -0.0814
17765TIP3    H174710   1.274   4.023  12.908  1.2272  1.3699  0.8161
17765TIP3    H274711   1.127   4.012  12.943  0.7210 -0.8294 -1.7082
17766TIP3   OH274712   4.745   0.171  13.302  0.0920 -0.1226 -0.0876
17766TIP3    H174713   4.835   0.161  13.331  0.5028  0.5950 -1.0666
17766TIP3    H274714   4.697   0.198  13.380  0.7818 -0.1904  0.3646
17767TIP3   OH274715   3.946   5.450  16.770 -0.3113  0.4282 -0.7051
17767TIP3    H174716   3.942   5.402  16.688  1.1195 -0.2321 -0.4179
17767TIP3    H274717   3.967   5.384  16.836 -0.7671  1.0539  0.0937
17768TIP3   OH274718   5.505   6.661   5.679 -0.5023 -0.6069  0.2287
17768TIP3    H174719   5.526   6.753   5.693  0.4634 -0.1711 -3.0844
17768TIP3    H274720   5.586   6.614   5.699 -0.3428 -0.4673 -0.0763
17769TIP3   OH274721   3.390   3.578  16.640 -0.3339  0.0521  0.2713
17769TIP3    H174722   3.315   3.592  16.697  0.1191 -1.0988  1.1862
17769TIP3    H274723   3.356   3.592  16.551 -1.4401  0.2475  0.7157
17770TIP3   OH274724   3.216   1.742  15.280 -0.6671  0.3104 -0.0266
17770TIP3    H174725   3.128   1.771  15.303 -1.7521 -2.3780 -0.4422
17770TIP3    H274726   3.269   1.766  15.356 -1.6096  2.3560  0.0538
17771TIP3   OH274727   2.962   4.025  11.091 -0.3174  0.0432  0.5171
17771TIP3    H174728   3.034   3.964  11.072  0.3431  0.5962  1.1865
17771TIP3    H274729   2.991   4.108  11.054 -1.5710 -0.1821 -1.1238
17772TIP3   OH274730   2.263   4.386  16.971  0.0393 -0.2546 -0.6294
17772TIP3    H174731   2.270   4.329  17.048  0.7793 -0.2560 -0.6922
17772TIP3    H274732   2.306   4.467  16.997  0.9344 -0.5093 -1.2747
17773TIP3   OH274733   0.742   0.441   1.842 -0.4789 -0.2834  0.9546
17773TIP3    H174734   0.672   0.506   1.833  0.2264  0.3329 -0.1890
17773TIP3    H274735   0.787   0.465   1.923 -1.6822 -0.8126  1.8255
17774TIP3   OH274736   2.147   5.013   5.380  0.2068 -0.1569  0.0306
17774TIP3    H174737   2.186   5.043   5.462 -0.9993 -0.8056  0.8598
17774TIP3    H274738   2.077   4.954   5.407  0.2350 -0.9182 -1.4881
17775TIP3   OH274739   5.412   3.458  12.838 -0.3549 -0.0793  0.2073
17775TIP3    H174740   5.506   3.465  12.857 -0.6786  1.0694  1.5930
17775TIP3    H274741   5.397   3.365  12.824  1.0079 -0.2670 -0.1632
17776TIP3   OH274742   5.820   4.281   1.604 -0.0842  0.1330  0.0172
17776TIP3    H174743   5.827   4.195   1.562  0.4497  0.5592 -0.7957
17776TIP3    H274744   5.872   4.272   1.684  0.8842  0.0082 -0.5994
17777TIP3   OH274745   2.493   6.694   2.050 -0.0612 -0.1642 -0.2502
17777TIP3    H174746   2.521   6.602   2.045  0.6945 -0.0131  0.8871
17777TIP3    H274747   2.497   6.715   2.143 -0.7378  0.8800 -0.4455
17778TIP3   OH274748   2.845   6.766  13.766  0.1859 -0.9528 -0.7304
17778TIP3    H174749   2.846   6.700  13.696 -0.6275 -0.3128 -1.3618
17778TIP3    H274750   2.753   6.772  13.792 -0.0757  1.2411 -1.9687
17779TIP3   OH274751   2.023   3.478   4.585 -0.6752 -0.1411 -0.0045
17779TIP3    H174752   2.035   3.546   4.651 -2.9646  1.0164 -0.6884
17779TIP3    H274753   2.107   3.474   4.539 -0.4738  2.2279  0.0602
17780TIP3   OH274754   2.724   6.177   0.658 -0.7863  0.2845  0.6888
17780TIP3    H174755   2.691   6.252   0.610  0.3038  1.4630  1.7001
17780TIP3    H274756   2.646   6.130   0.687 -1.4712  0.3741 -0.8998
17781TIP3   OH274757   3.563   4.331   2.984  0.3497  0.0331  0.2137
17781TIP3    H174758   3.489   4.290   2.939 -0.5732  0.3841  1.3316
17781TIP3    H274759   3.522   4.387   3.050  1.6218  0.5981  0.5593
17782TIP3   OH274760   4.451   5.270   0.518  0.1071  0.2760 -0.2917
17782TIP3    H174761   4.511   5.206   0.480  2.5170  1.4796  1.2357
17782TIP3    H274762   4.417   5.319   0.443 -1.0601 -2.0470 -1.4018
17783TIP3   OH274763   5.660   1.480  12.305  0.1808  0.2998 -0.2945
17783TIP3    H174764   5.594   1.416  12.281  0.3869  0.0981 -0.3291
17783TIP3    H274765   5.611   1.552  12.344 -0.0437  0.0756 -0.1613
17784TIP3   OH274766   6.533   2.326  12.078  0.4700  0.4886  0.0838
17784TIP3    H174767   6.532   2.238  12.040  1.3839 -0.0457  1.2152
17784TIP3    H274768   6.492   2.316  12.164  2.8350  0.5621  1.3306
17785TIP3   OH274769   5.507   6.656   0.096  0.2532  0.3877  1.1663
17785TIP3    H174770   5.431   6.636   0.151 -0.5734  1.1198  0.3297
17785TIP3    H274771   5.513   6.751   0.098  1.3940  0.3176  1.5274
17786TIP3   OH274772   1.410   4.982  15.808 -0.1779 -0.0173  0.2546
17786TIP3    H174773   1.325   4.938  15.816 -0.6130  0.8869  0.7301
17786TIP3    H274774   1.443   4.987  15.898  1.2394 -1.9476 -0.0809
17787TIP3   OH274775   3.553   6.248   0.849 -0.0892  0.6687  0.0745
17787TIP3    H174776   3.484   6.184   0.831  1.5578 -1.2419  0.2347
17787TIP3    H274777   3.542   6.269   0.942 -0.4886  0.4308  0.0844
17788TIP3   OH274778   0.361   5.923  17.009 -0.7619  0.1477  0.1240
17788TIP3    H174779   0.368   5.970  17.092 -1.0896  1.8751 -0.7689
17788TIP3    H274780   0.270   5.895  17.005 -0.8670  0.4889  0.1305
17789TIP3   OH274781   0.492   4.243  14.476 -0.2027  0.2242  0.5016
17789TIP3    H174782   0.523   4.327  14.444 -0.6766  0.2078 -0.0178
17789TIP3    H274783   0.402   4.237  14.445 -0.1313 -0.5280  0.4218
17790TIP3   OH274784   5.692   2.330   2.381  0.3078 -0.6357 -0.2727
17790TIP3    H174785   5.750   2.398   2.414 -0.8550 -0.1351  0.8329
17790TIP3    H274786   5.726   2.249   2.418  0.0165 -0.2830  0.7957
17791TIP3   OH274787   4.889   0.892  17.144  0.2185  0.3284 -0.3829
17791TIP3    H174788   4.962   0.901  17.083  0.2360 -1.3514 -0.6582
17791TIP3    H274789   4.922   0.928  17.226  0.8427  0.9078 -0.8765
17792TIP3   OH274790   2.055   0.724   0.567 -0.2433 -0.2016 -0.3743
17792TIP3    H174791   2.117   0.787   0.531  0.6882 -0.2130  1.1484
17792TIP3    H274792   2.109   0.659   0.611 -1.1439 -2.3418 -2.2060
17793TIP3   OH274793   0.442   3.555   5.007  0.2816 -0.1608 -0.2135
17793TIP3    H174794   0.450   3.487   4.940  0.1681  0.3647 -0.7796
17793TIP3    H274795   0.350   3.555   5.031  0.2806 -0.2050 -0.2180
17794TIP3   OH274796   0.007   2.861   3.747 -0.0738  0.1055 -0.6475
17794TIP3    H174797   0.096   2.897   3.741 -0.5924  1.2347 -3.3978
17794TIP3    H274798   0.010   2.782   3.693 -0.4440 -0.5677  0.3067
17795TIP3   OH274799   5.818   5.092  17.212  0.2113  0.1895 -0.0695
17795TIP3    H174800   5.861   5.138  17.284  0.0277  1.4050 -0.7087
17795TIP3    H274801   5.738   5.143  17.196 -0.6404 -1.0678  0.0001
17796TIP3   OH274802   3.623   4.573  16.351  0.2810  0.1507  0.0919
17796TIP3    H174803   3.642   4.638  16.419  2.4101  1.6374 -1.7513
17796TIP3    H274804   3.559   4.616  16.295  1.8806  0.8936 -1.2746
17797TIP3   OH274805   6.565   2.678   5.083 -0.4787 -1.1176 -0.0364
17797TIP3    H174806   6.510   2.753   5.106 -1.2258 -1.9793  1.1164
17797TIP3    H274807   6.654   2.710   5.096 -0.8028 -0.6369  1.2341
17798TIP3   OH274808   2.118   6.038  11.996 -0.4762 -0.6756 -0.7145
17798TIP3    H174809   2.124   6.132  12.013 -1.6450 -0.9996  1.8804
17798TIP3    H274810   2.207   6.006  12.005 -0.3002 -0.0288 -0.0864
17799TIP3   OH274811   1.004   5.241  16.802  0.1236 -0.3019 -0.0147
17799TIP3    H174812   0.990   5.258  16.709  1.2487 -0.7378 -0.2842
17799TIP3    H274813   0.967   5.153  16.816 -0.6283  0.0242  0.1106
17800TIP3   OH274814   1.181   5.290  15.225  0.0818 -0.8842  0.0753
17800TIP3    H174815   1.101   5.293  15.173  0.6904 -1.1143 -0.9135
17800TIP3    H274816   1.206   5.382  15.236 -0.2249 -0.8204  0.2537
17801TIP3   OH274817   3.354   5.810   1.767  0.6488  0.4866 -0.0637
17801TIP3    H174818   3.363   5.888   1.713  0.7082 -0.5572 -1.6440
17801TIP3    H274819   3.271   5.822   1.813 -0.0030  0.8943 -1.3064
17802TIP3   OH274820   6.218   4.564   3.389 -0.0803  0.2651 -0.5064
17802TIP3    H174821   6.154   4.496   3.367  0.0436  0.2678 -0.8777
17802TIP3    H274822   6.169   4.625   3.445 -0.5883  0.6002 -1.2866
17803TIP3   OH274823   4.964   5.899   4.012 -0.0567 -0.0683  0.0769
17803TIP3    H174824   4.909   5.836   3.966 -0.5324  0.4784 -0.1129
17803TIP3    H274825   5.050   5.891   3.969 -0.1648 -0.4459 -0.0719
17804TIP3   OH274826   4.790   4.284   1.287 -0.0682 -0.3581  0.1422
17804TIP3    H174827   4.836   4.244   1.362  0.0648  1.3733  1.0223
17804TIP3    H274828   4.813   4.377   1.292 -0.5214 -0.1188 -1.7396
17805TIP3   OH274829   6.520   0.469   1.137  0.1742 -0.1068 -0.0506
17805TIP3    H174830   6.502   0.422   1.218  1.1343  0.9308  0.7989
17805TIP3    H274831   6.438   0.513   1.116 -0.9600 -2.5932 -1.2273
17806TIP3   OH274832   4.484   5.634  12.145  0.3483  0.5625 -0.1052
17806TIP3    H174833   4.419   5.669  12.085  0.6429  0.3989 -0.5255
17806TIP3    H274834   4.455   5.544  12.163  0.2668  0.6073 -0.0161
17807TIP3   OH274835   0.155   1.033   0.910  0.1324 -0.2108 -0.2479
17807TIP3    H174836   0.143   1.077   0.994  1.1341 -2.8677  1.4275
17807TIP3    H274837   0.249   1.021   0.902 -0.0821 -4.2906  0.8546
17808TIP3   OH274838   2.815   4.065   0.281  0.0949 -0.6044 -0.3495
17808TIP3    H174839   2.729   4.024   0.282 -0.4697  0.5420  0.6640
17808TIP3    H274840   2.876   3.993   0.262 -0.7978 -2.0708  1.8863
17809TIP3   OH274841   3.938   5.300  16.532 -0.2052 -0.2968  0.7267
17809TIP3    H174842   3.873   5.234  16.558 -0.4215 -0.7689 -0.8779
17809TIP3    H274843   4.015   5.248  16.506  0.3919  0.2058  1.4378
17810TIP3   OH274844   4.142   0.781  13.251  0.5407 -0.2061 -0.1404
17810TIP3    H174845   4.141   0.728  13.171 -0.5577  0.4145 -0.5523
17810TIP3    H274846   4.194   0.730  13.313 -2.1558 -2.8160  0.1651
17811TIP3   OH274847   5.948   5.596   3.515  0.4664  0.4146 -0.1080
17811TIP3    H174848   5.991   5.510   3.514 -0.0323  0.1434  0.5392
17811TIP3    H274849   5.912   5.607   3.427 -0.7450 -0.7152  0.2164
17812TIP3   OH274850   2.557   3.858  15.287 -0.3438 -0.0992  0.5494
17812TIP3    H174851   2.578   3.769  15.311 -1.2668 -0.2781  0.7442
17812TIP3    H274852   2.642   3.901  15.275  0.1166 -1.2471 -0.5063
17813TIP3   OH274853   1.560   1.014   4.842 -0.3649 -0.2549 -0.0425
17813TIP3    H174854   1.508   1.082   4.800 -0.3721 -0.2033  0.0514
17813TIP3    H274855   1.497   0.955   4.883 -0.3102  0.7010  1.4808
17814TIP3   OH274856   2.755   2.854  15.937 -0.1974  1.0683 -0.1799
17814TIP3    H174857   2.689   2.897  15.992 -1.2463 -2.3088  1.4345
17814TIP3    H274858   2.742   2.761  15.952  2.4023  0.1191 -2.9077
17815TIP3   OH274859   5.530   1.822  14.848  0.5382 -0.0090 -0.1497
17815TIP3    H174860   5.539   1.737  14.890 -1.2700  0.6779  1.8258
17815TIP3    H274861   5.458   1.811  14.785 -0.3344  0.2471  0.7763
17816TIP3   OH274862   3.799   3.714  14.022 -0.1084 -0.4693 -0.4603
17816TIP3    H174863   3.758   3.719  14.109 -0.3406 -1.1836 -0.5188
17816TIP3    H274864   3.768   3.631  13.986 -1.4124  0.5891 -1.9322
17817TIP3   OH274865   3.340   3.159   5.886  0.2861 -0.4825 -0.5229
17817TIP3    H174866   3.391   3.170   5.966 -3.4532  1.5357  1.8571
17817TIP3    H274867   3.352   3.067   5.862 -0.3062 -1.9303  3.8687
17818TIP3   OH274868   0.861   5.381   2.225 -0.1055 -0.3963 -0.0748
17818TIP3    H174869   0.828   5.471   2.227  3.9979  1.3032 -0.5085
17818TIP3    H274870   0.823   5.344   2.145 -1.7818  0.9055  0.0515
17819TIP3   OH274871   5.070   2.828   5.536 -0.0741 -0.2746 -0.0314
17819TIP3    H174872   5.036   2.756   5.589 -1.3984  0.7152  0.5062
17819TIP3    H274873   5.115   2.885   5.598  0.7610 -0.5024 -0.4166
17820TIP3   OH274874   1.215   2.791   5.961 -0.3129  0.1015  0.1130
17820TIP3    H174875   1.225   2.791   6.056  1.4756 -3.2731  0.0642
17820TIP3    H274876   1.305   2.787   5.928 -0.9537 -1.3695 -1.5916
17821TIP3   OH274877   2.699   6.333   3.010  0.5128 -0.2450  0.2459
17821TIP3    H174878   2.660   6.271   2.948 -0.8451  0.4532  0.3470
17821TIP3    H274879   2.737   6.279   3.079 -1.8217 -0.9995  1.0404
17822TIP3   OH274880   3.916   0.331  14.552  0.0404 -0.2281  0.2471
17822TIP3    H174881   4.004   0.341  14.517  0.0896  0.6343  0.5934
17822TIP3    H274882   3.884   0.249  14.514  0.7977 -0.2835 -0.2862
17823TIP3   OH274883   6.633   6.273  11.930 -0.1059 -0.2114  1.1368
17823TIP3    H174884   6.560   6.284  11.991  1.2642 -0.3293  2.8602
17823TIP3    H274885   6.667   6.362  11.917  0.1310 -0.2914  1.2105
17824TIP3   OH274886   4.076   2.087   0.854  0.1002  0.0823 -0.2952
17824TIP3    H174887   4.101   1.994   0.850 -1.0820 -0.2156 -2.0836
17824TIP3    H274888   4.159   2.134   0.864  0.7983 -1.1228 -0.1852
17825TIP3   OH274889   1.897   1.282   3.030  0.7489 -0.1057 -0.5794
17825TIP3    H174890   1.888   1.279   3.126  0.2941 -1.6240 -0.6382
17825TIP3    H274891   1.911   1.374   3.010 -0.8646  0.4920  0.8101
17826TIP3   OH274892   6.666   3.193   3.159 -0.0944 -0.1211  0.3912
17826TIP3    H174893   6.708   3.264   3.109 -1.2901  0.6402  0.4120
17826TIP3    H274894   6.725   3.118   3.148  0.5496  0.5075 -0.7265
17827TIP3   OH274895   3.144   5.812   2.233  0.2886 -0.4425 -0.3152
17827TIP3    H174896   3.114   5.735   2.281  1.0997 -1.4319 -1.3489
17827TIP3    H274897   3.117   5.886   2.287  0.8000 -1.4944  1.4443
17828TIP3   OH274898   2.797   0.089   1.710 -0.5944  0.2321 -0.4776
17828TIP3    H174899   2.777   0.173   1.750  0.3664  0.8513 -1.2566
17828TIP3    H274900   2.721   0.034   1.730 -1.3312  1.3424 -0.1585
17829TIP3   OH274901   4.944   6.620   5.946 -0.9470  0.1326 -0.3682
17829TIP3    H174902   4.857   6.595   5.977  0.6223 -2.0614  2.8603
17829TIP3    H274903   4.972   6.689   6.006 -0.0957  0.1452 -0.7702
17830TIP3   OH274904   2.286   3.355  13.961 -0.0277  0.3396 -0.4134
17830TIP3    H174905   2.213   3.405  13.999  0.4683  0.7950 -0.0588
17830TIP3    H274906   2.284   3.376  13.868 -0.2113  0.5316 -0.3676
17831TIP3   OH274907   6.362   3.921   2.419 -0.4082 -0.1146 -0.3106
17831TIP3    H174908   6.426   3.966   2.364 -0.3365  0.4349  0.2128
17831TIP3    H274909   6.291   3.985   2.431  0.3160  0.4203  1.5689
17832TIP3   OH274910   2.221   5.614   5.527  0.5615  0.0836 -0.2102
17832TIP3    H174911   2.175   5.544   5.574  0.6204  0.3988  0.3194
17832TIP3    H274912   2.228   5.581   5.438  1.2047 -0.8945  0.1815
17833TIP3   OH274913   2.157   1.840  17.046 -0.5367  0.2399  0.2394
17833TIP3    H174914   2.128   1.930  17.062 -0.1900  0.0383  2.4078
17833TIP3    H274915   2.185   1.808  17.132  1.6500 -1.1506 -0.8658
17834TIP3   OH274916   4.903   3.102  16.306 -0.2200 -0.4320 -0.2335
17834TIP3    H174917   4.892   3.196  16.291 -0.4152 -0.5230 -0.6875
17834TIP3    H274918   4.816   3.066  16.290 -0.3445 -0.5934  0.7430
17835TIP3   OH274919   5.714   2.820  16.513  0.5514 -0.0448  0.1889
17835TIP3    H174920   5.621   2.814  16.533  0.7562  1.8225  2.0998
17835TIP3    H274921   5.727   2.910  16.483  1.4138 -0.9450 -2.3696
17836TIP3   OH274922   0.792   0.442   3.809  0.2504  0.2151  0.0114
17836TIP3    H174923   0.859   0.503   3.778 -0.8360  1.7732  0.5880
17836TIP3    H274924   0.762   0.480   3.892  0.1336 -1.5896  0.8332
17837TIP3   OH274925   3.920   3.497  15.128  0.2890  0.1602 -0.4111
17837TIP3    H174926   3.895   3.435  15.059 -0.9364 -1.3170  1.2646
17837TIP3    H274927   3.838   3.536  15.156  0.6919  0.3400  0.5505
17838TIP3   OH274928   6.559   0.681   0.936  0.5178 -0.5383 -0.2706
17838TIP3    H174929   6.499   0.711   1.005  0.1296  0.5312 -1.0525
17838TIP3    H274930   6.616   0.756   0.919  0.3706 -0.6539 -1.3531
17839TIP3   OH274931   1.719   0.876   3.471 -0.0032 -0.1802  0.0698
17839TIP3    H174932   1.759   0.790   3.467  1.5035  0.5450 -1.7648
17839TIP3    H274933   1.778   0.928   3.525 -0.3280  0.0013  0.2568
17840TIP3   OH274934   2.216   5.173   4.825 -0.0258 -0.2799  0.1405
17840TIP3    H174935   2.306   5.198   4.844 -0.1787 -0.5398  1.3169
17840TIP3    H274936   2.187   5.129   4.905 -1.4668  0.5546  0.1004
17841TIP3   OH274937   1.636   5.207  12.852 -0.3916  0.1503  0.0812
17841TIP3    H174938   1.677   5.123  12.872  0.5907  0.6168  0.1271
17841TIP3    H274939   1.575   5.189  12.780  0.2778 -0.4798 -0.3385
17842TIP3   OH274940   5.868   2.455   2.529 -0.5420  0.5639  0.0756
17842TIP3    H174941   5.961   2.452   2.506 -1.0035  0.3472 -2.0641
17842TIP3    H274942   5.865   2.434   2.622  1.3671 -2.2058 -0.3722
17843TIP3   OH274943   1.152   0.100   2.422  0.0372  0.4920  0.4198
17843TIP3    H174944   1.246   0.109   2.433  0.1191 -0.9821  1.2815
17843TIP3    H274945   1.121   0.188   2.399  1.5763  1.0374  0.3450
17844TIP3   OH274946   6.236   0.560  13.657 -0.1841  0.2130  0.1881
17844TIP3    H174947   6.230   0.507  13.577 -0.2189  0.0791  0.2789
17844TIP3    H274948   6.330   0.564  13.675 -0.1050  1.0155 -0.3719
17845TIP3   OH274949   2.292   2.147  15.513 -0.5522  0.0399 -0.7640
17845TIP3    H174950   2.294   2.209  15.440  0.3336 -0.1075 -0.8691
17845TIP3    H274951   2.229   2.080  15.486  0.1307 -0.2728 -1.6029
17846TIP3   OH274952   3.113   4.349   4.255 -0.8762 -0.4162  0.5988
17846TIP3    H174953   3.046   4.390   4.308 -1.0572 -1.1411  0.9420
17846TIP3    H274954   3.105   4.255   4.273 -1.4346 -0.7700 -1.2534
17847TIP3   OH274955   6.643   6.238   0.266 -0.2223 -0.8639  0.8995
17847TIP3    H174956   6.675   6.225   0.176 -3.0110 -0.0516 -0.3191
17847TIP3    H274957   6.648   6.152   0.306  0.2206 -1.4558 -0.3629
17848TIP3   OH274958   1.244   5.931  12.508  0.1385 -0.5945  0.8503
17848TIP3    H174959   1.202   5.847  12.522  0.7033 -1.1730 -0.7434
17848TIP3    H274960   1.202   5.966  12.430  0.0027  0.5629  1.4153
17849TIP3   OH274961   0.967   6.170  12.533 -0.0348 -0.0666 -0.3712
17849TIP3    H174962   0.993   6.183  12.442 -0.9081 -0.4087 -0.6773
17849TIP3    H274963   0.929   6.083  12.535 -0.8063  0.2749  0.1351
17850TIP3   OH274964   0.731   1.597   1.258  0.1509 -0.2433  0.0969
17850TIP3    H174965   0.676   1.640   1.192  0.3015  0.6990  0.5695
17850TIP3    H274966   0.674   1.531   1.298 -0.1753 -0.2912 -0.4319
17851TIP3   OH274967   1.688   2.758  16.277 -0.2821  0.1241 -0.5285
17851TIP3    H174968   1.738   2.721  16.204  0.6257  1.7285 -0.7676
17851TIP3    H274969   1.732   2.724  16.355  1.6446  1.9778 -0.7280
17852TIP3   OH274970   0.841   1.140  13.440  0.5094 -0.6909  0.1251
17852TIP3    H174971   0.913   1.175  13.388  0.9689 -0.5868  0.8108
17852TIP3    H274972   0.767   1.198  13.422  1.4481  1.1382  1.7853
17853TIP3   OH274973   5.723   4.011   4.486 -0.3331 -0.3289  0.0188
17853TIP3    H174974   5.721   3.944   4.554  0.7395  1.5358  2.0135
17853TIP3    H274975   5.792   3.982   4.426  1.7478  0.0005  2.0883
17854TIP3   OH274976   6.078   5.378  17.113  0.0999  0.0275  0.3603
17854TIP3    H174977   6.054   5.290  17.084  0.2860 -0.6068  2.0005
17854TIP3    H274978   6.001   5.410  17.160  0.0404  0.7448 -0.2139
17855TIP3   OH274979   3.153   0.666  16.490  0.1619 -0.3963  0.1780
17855TIP3    H174980   3.234   0.666  16.440  0.2192  0.4885  0.2609
17855TIP3    H274981   3.163   0.593  16.551  0.8806 -0.3182  0.1640
17856TIP3   OH274982   2.902   2.101  12.554  0.5009 -0.5224 -0.5364
17856TIP3    H174983   2.811   2.087  12.578  0.6819 -0.7872  0.0115
17856TIP3    H274984   2.916   2.195  12.568  0.1731 -0.3761 -1.1351
17857TIP3   OH274985   5.451   6.668  14.104 -0.2463 -0.2013  0.1293
17857TIP3    H174986   5.404   6.741  14.063 -0.5825 -1.2658 -1.4879
17857TIP3    H274987   5.543   6.683  14.080  0.1404  1.2135  2.2550
17858TIP3   OH274988   1.420   2.098   3.358 -0.7385  0.3006  0.6879
17858TIP3    H174989   1.334   2.130   3.330 -1.8622 -1.9175  1.3206
17858TIP3    H274990   1.436   2.022   3.302  0.0555 -0.2544  1.6406
17859TIP3   OH274991   2.673   0.196  11.856 -0.2319 -0.3597 -0.3802
17859TIP3    H174992   2.639   0.115  11.893 -1.8091  0.0955 -0.7698
17859TIP3    H274993   2.720   0.238  11.928 -0.9094 -0.7895  0.3264
17860TIP3   OH274994   4.512   2.537  13.453 -0.3163  0.6253 -0.2061
17860TIP3    H174995   4.520   2.560  13.360 -0.4167  0.5895 -0.2249
17860TIP3    H274996   4.419   2.551  13.472 -0.6721 -1.0077 -0.5613
17861TIP3   OH274997   6.772   4.096  14.293 -0.0788  0.2264  0.0524
17861TIP3    H174998   6.750   4.097  14.387  1.8545 -1.4854  0.6112
17861TIP3    H274999   6.725   4.019  14.259  0.8538 -0.3841  0.1114
17862TIP3   OH275000   4.590   3.176  13.073 -0.1311  0.1185  0.1670
17862TIP3    H175001   4.654   3.244  13.090  0.3407  0.1206 -1.4188
17862TIP3    H275002   4.515   3.223  13.037 -0.2190 -0.0931  0.0716
17863TIP3   OH275003   0.618   1.124  14.306  0.5914 -0.7021  0.1390
17863TIP3    H175004   0.550   1.090  14.364  0.7202 -1.2351 -0.0241
17863TIP3    H275005   0.627   1.216  14.331 -1.9436  0.0848 -1.4811
17864TIP3   OH275006   6.523   3.919   0.455 -0.1375 -1.0250 -0.3271
17864TIP3    H175007   6.472   3.840   0.439  0.8901 -1.2517 -3.0000
17864TIP3    H275008   6.614   3.890   0.454  0.1787 -0.3053  2.2342
17865TIP3   OH275009   3.981   1.585   5.503  0.3424 -0.3876 -0.3755
17865TIP3    H175010   4.062   1.602   5.552  0.1992  0.2251 -0.3340
17865TIP3    H275011   3.993   1.498   5.466  0.8948 -0.4285 -0.1199
17866TIP3   OH275012   1.355   4.262  16.912  0.0195  0.0785  0.0119
17866TIP3    H175013   1.336   4.348  16.952 -3.8985 -0.7011  0.2604
17866TIP3    H275014   1.365   4.281  16.819 -2.0678  0.7613 -0.1254
17867TIP3   OH275015   2.719   1.871  11.425 -0.1195  0.1821 -0.6968
17867TIP3    H175016   2.718   1.834  11.514  0.0571  1.2827 -0.2221
17867TIP3    H275017   2.803   1.915  11.419 -1.0887  2.1582 -0.5278
17868TIP3   OH275018   0.536   6.081   3.911 -0.6701  0.6024  0.0622
17868TIP3    H175019   0.455   6.055   3.955  0.1736  1.6807  2.3610
17868TIP3    H275020   0.586   6.000   3.904 -1.2372  0.2365  0.1393
17869TIP3   OH275021   2.209   5.055  11.205 -0.2173  0.1897 -0.1367
17869TIP3    H175022   2.270   5.062  11.279  0.2321  3.0766 -0.6347
17869TIP3    H275023   2.221   5.137  11.157 -1.0199 -1.2810 -3.0433
17870TIP3   OH275024   5.878   3.406   0.270 -0.6199 -0.1715  0.3247
17870TIP3    H175025   5.877   3.368   0.182  0.2283  0.2833  0.1074
17870TIP3    H275026   5.861   3.333   0.329 -2.3398 -0.3015 -0.2608
17871TIP3   OH275027   1.980   4.851  11.802 -0.0163 -0.4524 -0.2285
17871TIP3    H175028   1.897   4.861  11.757 -1.1518  2.3937  2.2132
17871TIP3    H275029   2.041   4.908  11.755 -0.0259 -0.7780 -0.6435
17872TIP3   OH275030   4.784   1.523  16.014  0.5247  0.3215  0.2613
17872TIP3    H175031   4.773   1.452  15.951  1.5916  0.2449  0.1439
17872TIP3    H275032   4.753   1.601  15.968  1.5662  0.3146 -0.4908
17873TIP3   OH275033   4.389   1.017   4.972  0.1130 -0.2250 -0.6115
17873TIP3    H175034   4.416   0.936   4.929  2.2869  0.5452 -0.7963
17873TIP3    H275035   4.327   1.057   4.911 -2.5461 -2.5747  0.3230
17874TIP3   OH275036   5.765   3.009   0.840 -0.0823 -0.0049  0.2152
17874TIP3    H175037   5.683   3.011   0.791  0.2686  1.4209 -0.3671
17874TIP3    H275038   5.794   3.100   0.842  0.8235 -0.2916  1.5531
17875TIP3   OH275039   6.198   6.462   0.480 -0.0662  0.0465  0.3280
17875TIP3    H175040   6.282   6.507   0.475  0.1065 -0.3199 -0.1498
17875TIP3    H275041   6.187   6.420   0.394 -2.1641  2.5567 -0.7629
17876TIP3   OH275042   5.751   4.639   4.404 -0.8721  0.0059  0.9245
17876TIP3    H175043   5.711   4.618   4.488 -0.2822  0.5849  1.3649
17876TIP3    H275044   5.749   4.557   4.355 -3.7666  0.3025  0.4059
17877TIP3   OH275045   2.748   5.123  13.395  0.4860  0.3044  0.1543
17877TIP3    H175046   2.752   5.031  13.422 -1.3044 -0.2652 -1.2591
17877TIP3    H275047   2.658   5.149  13.415  0.3884  1.1328 -1.2453
17878TIP3   OH275048   4.938   4.033  14.795  0.2626 -0.1957  0.1612
17878TIP3    H175049   4.882   3.956  14.787 -1.1485  0.6607  1.1988
17878TIP3    H275050   4.919   4.085  14.717  0.3979 -0.3877  0.0001
17879TIP3   OH275051   3.660   5.676   4.493 -0.4488 -0.7662 -0.1371
17879TIP3    H175052   3.613   5.693   4.575 -0.1074 -1.1424  0.1488
17879TIP3    H275053   3.752   5.672   4.520 -0.3164 -0.6986 -0.5753
17880TIP3   OH275054   2.745   6.346   1.767  0.3332 -0.0042  0.0163
17880TIP3    H175055   2.825   6.293   1.770 -0.4817 -1.3138 -0.2095
17880TIP3    H275056   2.775   6.436   1.775  1.9358 -0.3753 -1.1816
17881TIP3   OH275057   5.184   1.487  12.978 -0.6139 -0.0037 -0.2875
17881TIP3    H175058   5.213   1.412  12.926 -2.7141 -1.1650  0.0840
17881TIP3    H275059   5.170   1.451  13.065 -1.0040  1.0027  0.0798
17882TIP3   OH275060   3.697   1.663  14.597  0.0875  0.1896  0.4519
17882TIP3    H175061   3.688   1.672  14.502  2.2224  1.6867  0.3335
17882TIP3    H275062   3.643   1.734  14.633 -0.0379  0.1590  0.3231
17883TIP3   OH275063   1.175   4.285  14.675 -0.1238  0.0311 -0.2802
17883TIP3    H175064   1.092   4.295  14.721 -0.3284 -0.3146 -0.5753
17883TIP3    H275065   1.186   4.367  14.627  0.2492  0.5305  0.6240
17884TIP3   OH275066   0.425   4.220   3.966 -0.0407 -0.2500  0.3259
17884TIP3    H175067   0.440   4.297   3.911 -1.9822  0.3615  0.5814
17884TIP3    H275068   0.379   4.158   3.909  1.5920 -1.3049  0.0936
17885TIP3   OH275069   4.620   2.680   2.214  0.1877 -0.1649 -0.8663
17885TIP3    H175070   4.684   2.632   2.268 -1.3797 -0.5369  0.7670
17885TIP3    H275071   4.626   2.770   2.244  2.0328  0.4313 -2.8491
17886TIP3   OH275072   6.159   4.712  13.088 -0.1595  0.3690  0.2163
17886TIP3    H175073   6.084   4.726  13.145 -0.8196  1.9158 -0.9512
17886TIP3    H275074   6.133   4.638  13.033  0.4985 -1.1566  1.8561
17887TIP3   OH275075   3.952   5.174  11.470  0.1577 -0.0083  0.1206
17887TIP3    H175076   4.047   5.172  11.459  0.1063 -0.0647 -0.3453
17887TIP3    H275077   3.925   5.083  11.460  0.0862 -0.0358  0.5600
17888TIP3   OH275078   4.395   0.400   3.575  0.3832  0.2919  0.0688
17888TIP3    H175079   4.384   0.414   3.669  0.2041  3.9609 -0.3522
17888TIP3    H275080   4.311   0.428   3.537  0.0863 -2.0623 -1.1992
17889TIP3   OH275081   4.375   1.251   4.234  0.1769 -0.2786  0.2265
17889TIP3    H175082   4.466   1.245   4.208  0.2457  0.5569  0.2495
17889TIP3    H275083   4.375   1.307   4.312 -0.5645  1.7412 -1.1203
17890TIP3   OH275084   3.241   3.208   3.647  0.4129  0.2347 -0.2716
17890TIP3    H175085   3.157   3.170   3.675  1.1681 -0.2784  1.4219
17890TIP3    H275086   3.234   3.212   3.551 -0.3671 -2.6888 -0.4345
17891TIP3   OH275087   0.489   3.031   4.163  0.4164  0.4407 -0.1603
17891TIP3    H175088   0.450   2.948   4.191  0.7621  0.8145  1.5336
17891TIP3    H275089   0.468   3.093   4.233  0.3383  1.7599 -1.2938
17892TIP3   OH275090   4.397   3.984  12.255  0.0399 -0.1020  0.0188
17892TIP3    H175091   4.387   3.895  12.219 -1.9379  0.0969 -0.0474
17892TIP3    H275092   4.452   3.972  12.333  1.9798 -0.9663 -1.4115
17893TIP3   OH275093   6.452   2.315  14.986 -0.4179  0.0668  1.6147
17893TIP3    H175094   6.475   2.236  14.938  0.1596 -0.3296  2.5089
17893TIP3    H275095   6.378   2.289  15.041 -0.0257  0.0361  2.1461
17894TIP3   OH275096   3.335   6.035   1.607  0.3594 -0.2169  0.0036
17894TIP3    H175097   3.334   6.098   1.535  1.9389 -1.0097 -0.7702
17894TIP3    H275098   3.293   6.081   1.680  0.8693  1.4980 -0.7297
17895TIP3   OH275099   3.921   5.751   2.139  0.0350 -0.8707 -0.1687
17895TIP3    H175100   4.004   5.798   2.132 -0.1275 -0.1856  1.8494
17895TIP3    H275101   3.943   5.661   2.114  0.7780 -0.1874 -2.1471
17896TIP3   OH275102   2.875   6.474   5.709 -0.0739 -0.0351 -0.1562
17896TIP3    H175103   2.783   6.490   5.731 -0.2291 -0.7486 -0.2643
17896TIP3    H275104   2.889   6.520   5.627 -0.4550 -0.2833 -0.3624
17897TIP3   OH275105   1.521   5.056   6.463  0.4428 -0.2161 -0.1773
17897TIP3    H175106   1.561   5.018   6.385 -0.5100 -0.1914 -0.6888
17897TIP3    H275107   1.595   5.070   6.523  1.5329  1.6490 -1.8211
17898TIP3   OH275108   5.807   6.540  10.418 -0.4586  0.0685  0.2273
17898TIP3    H175109   5.807   6.453  10.457 -1.6915 -0.7723 -1.4756
17898TIP3    H275110   5.730   6.583  10.456 -0.3677  0.0729  0.4045
17899TIP3   OH275111   6.142   4.905   0.606 -0.8341 -0.2784  0.1494
17899TIP3    H175112   6.071   4.849   0.574 -2.0268  0.9298  0.5561
17899TIP3    H275113   6.170   4.865   0.688 -1.3184 -0.5798  0.1728
17900TIP3   OH275114   4.966   1.388  11.519 -0.0244 -0.1208 -0.2801
17900TIP3    H175115   5.028   1.343  11.576  0.5164  1.6876  0.6015
17900TIP3    H275116   5.002   1.376  11.431  2.6545  2.3231  0.3132
17901TIP3   OH275117   0.912   0.796  14.104 -0.2344  0.3160  0.3947
17901TIP3    H175118   0.888   0.739  14.178  1.3812 -0.1544  0.5815
17901TIP3    H275119   0.906   0.739  14.027  0.4586  0.1469  0.4647
17902TIP3   OH275120   0.908   0.874   1.688 -0.0438 -0.1978 -0.0421
17902TIP3    H175121   0.964   0.906   1.618  0.3842  0.1806  0.4724
17902TIP3    H275122   0.819   0.888   1.655  0.1440  0.7452 -0.1712
17903TIP3   OH275123   0.602   1.486  13.626  0.1444  0.0210 -0.3097
17903TIP3    H175124   0.601   1.479  13.531  0.6287  0.6422 -0.3614
17903TIP3    H275125   0.675   1.432  13.654 -1.2360 -1.8675 -0.1276
17904TIP3   OH275126   2.248   3.086   5.568 -0.7272  0.3332  0.2680
17904TIP3    H175127   2.332   3.109   5.530 -0.4279 -0.1717  0.6032
17904TIP3    H275128   2.208   3.169   5.591 -0.0458  0.5591  0.6706
17905TIP3   OH275129   1.325   0.946  17.320  0.2858 -0.4186 -0.0492
17905TIP3    H175130   1.282   1.024  17.356  1.9514 -0.5408  2.4653
17905TIP3    H275131   1.280   0.873  17.362 -0.7814 -0.8555 -1.8399
17906TIP3   OH275132   1.850   5.088   2.886 -0.0087  0.4985 -0.3112
17906TIP3    H175133   1.804   5.028   2.828 -0.8398  1.1917 -0.3973
17906TIP3    H275134   1.884   5.156   2.827  0.7684  0.2166 -0.1974
17907TIP3   OH275135   1.766   3.005   2.532 -0.2238 -0.4002 -0.7484
17907TIP3    H175136   1.834   3.063   2.567 -1.1491  0.4873 -0.3454
17907TIP3    H275137   1.808   2.920   2.525  0.1239 -0.6090  2.3750
17908TIP3   OH275138   1.373   5.643  16.011  0.2312 -0.4811  0.0902
17908TIP3    H175139   1.290   5.604  16.038 -2.3136  3.7199 -0.7702
17908TIP3    H275140   1.404   5.691  16.087  0.4214  0.1256 -0.3592
17909TIP3   OH275141   1.521   4.826  12.382 -0.1429 -0.5014  0.4620
17909TIP3    H175142   1.466   4.881  12.325  1.2419  0.3018 -0.1465
17909TIP3    H275143   1.537   4.747  12.330 -0.1282 -0.4196  0.3395
17910TIP3   OH275144   5.381   0.618  16.912  0.1071 -0.3044  0.5597
17910TIP3    H175145   5.430   0.700  16.903  1.1329 -0.9170  0.3745
17910TIP3    H275146   5.403   0.568  16.833 -1.4335 -0.3014  0.0881
17911TIP3   OH275147   0.718   6.131  15.141 -0.2022  0.2325 -0.2567
17911TIP3    H175148   0.663   6.193  15.188 -0.0017  0.3230 -0.1384
17911TIP3    H275149   0.698   6.046  15.181  2.6608  0.7093  2.6817
17912TIP3   OH275150   5.678   1.122  16.996 -0.3714  0.0975 -0.5805
17912TIP3    H175151   5.604   1.131  16.936 -0.8015  0.7371  0.0389
17912TIP3    H275152   5.687   1.027  17.008  0.0753 -0.0696 -2.0731
17913TIP3   OH275153   3.447   0.229   2.269  0.5318  0.1166  0.3677
17913TIP3    H175154   3.457   0.197   2.359 -0.0664 -0.7966  0.1308
17913TIP3    H275155   3.423   0.151   2.219 -0.6612  0.8847 -0.3135
17914TIP3   OH275156   3.817   1.861   1.697 -0.0643 -0.3445 -0.0163
17914TIP3    H175157   3.773   1.785   1.734 -0.4315 -0.7169 -1.1800
17914TIP3    H275158   3.907   1.856   1.731 -0.0291 -1.4195 -0.2411
17915TIP3   OH275159   6.264   6.267   4.565 -0.1667  0.2852 -0.1585
17915TIP3    H175160   6.194   6.211   4.530 -1.8907  2.7041 -0.8069
17915TIP3    H275161   6.341   6.210   4.567 -1.8039 -2.1140 -0.7049
17916TIP3   OH275162   0.543   2.080   4.341  0.0794  0.3779  0.1318
17916TIP3    H175163   0.601   2.121   4.404  0.5707 -0.1767  0.0423
17916TIP3    H275164   0.460   2.128   4.350  0.2358  0.5002  0.9746
17917TIP3   OH275165   2.085   3.305   5.671 -0.2042 -0.8384 -0.3678
17917TIP3    H175166   2.014   3.318   5.734 -0.9871 -3.1291 -0.6934
17917TIP3    H275167   2.146   3.376   5.689 -1.3076 -0.3313  1.6837
17918TIP3   OH275168   1.759   1.734   4.385 -0.3088 -0.0832 -0.0138
17918TIP3    H175169   1.764   1.639   4.374 -0.1525 -0.1985  1.0132
17918TIP3    H275170   1.848   1.765   4.371 -0.3868 -0.0654 -0.4915
17919TIP3   OH275171   5.881   2.904  12.580  0.2715  0.6930  0.0625
17919TIP3    H175172   5.788   2.926  12.580  0.6322  2.4478 -0.3921
17919TIP3    H275173   5.892   2.849  12.503 -0.4050  0.3793  0.1809
17920TIP3   OH275174   1.671   2.108  17.220 -0.0353 -0.4053 -0.2136
17920TIP3    H175175   1.583   2.102  17.257  0.5522 -1.8036  1.0854
17920TIP3    H275176   1.680   2.032  17.163  0.1910 -0.0379 -0.6792
17921TIP3   OH275177   0.729   2.878   0.440  0.3407  0.3408 -0.6540
17921TIP3    H175178   0.737   2.862   0.534 -1.4122  0.8942 -0.3823
17921TIP3    H275179   0.817   2.863   0.405  0.5394 -2.1277  0.7224
17922TIP3   OH275180   3.169   0.053   2.814  0.8818  0.4758  0.4284
17922TIP3    H175181   3.241   0.049   2.877  2.6710  2.3845 -1.3381
17922TIP3    H275182   3.166   0.144   2.787 -1.7504  0.2942 -0.1585
17923TIP3   OH275183   1.119   0.490   1.598  0.0236 -0.0155 -0.0607
17923TIP3    H175184   1.179   0.546   1.550  0.1021 -0.2154 -0.1975
17923TIP3    H275185   1.093   0.423   1.535 -2.1044  1.3434 -0.7153
17924TIP3   OH275186   3.863   5.465   5.649  0.0470  0.3093  0.5642
17924TIP3    H175187   3.802   5.535   5.626 -0.5691 -0.3186  0.2458
17924TIP3    H275188   3.807   5.390   5.667  0.6723  0.0454  1.4617
17925TIP3   OH275189   3.097   2.812  15.518 -0.3167  0.1459  0.0487
17925TIP3    H175190   3.014   2.829  15.563  0.2812  2.2328  0.4706
17925TIP3    H275191   3.101   2.879  15.450  2.0148  1.6060  1.4854
17926TIP3   OH275192   5.993   1.359  13.576 -0.2336 -0.6946 -0.2516
17926TIP3    H175193   5.906   1.394  13.594 -1.0477 -2.6273 -0.2423
17926TIP3    H275194   5.980   1.298  13.504  0.8679 -2.0114  0.6144
17927TIP3   OH275195   3.850   6.062   2.791  0.0360 -0.3018  0.0151
17927TIP3    H175196   3.841   5.997   2.860 -1.5490 -0.9271 -0.7284
17927TIP3    H275197   3.773   6.118   2.801  0.1594  0.0271 -0.8011
17928TIP3   OH275198   0.701   6.542   5.659  0.0191 -0.1706 -0.3391
17928TIP3    H175199   0.712   6.553   5.754  0.0914  0.8635 -0.4528
17928TIP3    H275200   0.790   6.550   5.624 -0.2791  2.2421 -0.7222
17929TIP3   OH275201   3.466   6.600   4.588 -0.6936  0.0774  0.1097
17929TIP3    H175202   3.394   6.627   4.530 -1.9499  1.0830  2.0487
17929TIP3    H275203   3.475   6.506   4.572 -2.4934 -0.0924 -0.1504
17930TIP3   OH275204   0.006   5.461  14.364  0.8922  0.1933 -0.0419
17930TIP3    H175205   0.033   5.408  14.289  0.4400 -0.3405  0.1609
17930TIP3    H275206   0.034   5.410  14.440  4.2530  2.1959  0.2311
17931TIP3   OH275207   3.552   5.767   3.017 -0.2147 -0.4222 -0.2867
17931TIP3    H175208   3.639   5.792   2.986 -0.1301  1.1364  1.0755
17931TIP3    H275209   3.497   5.767   2.939  0.1173  2.8004 -0.6593
17932TIP3   OH275210   6.074   1.593   5.223  0.5165 -0.2187  0.5802
17932TIP3    H175211   6.137   1.663   5.203 -0.4461  0.8872  1.2875
17932TIP3    H275212   6.035   1.572   5.138  0.8646  0.0501  0.3472
17933TIP3   OH275213   0.707   5.306  15.303 -0.3015 -0.3049 -0.0865
17933TIP3    H175214   0.652   5.228  15.311  2.2865 -2.2063  0.7089
17933TIP3    H275215   0.689   5.356  15.383  2.2384 -3.2424  2.6411
17934TIP3   OH275216   0.043   5.746  11.670  0.3239  0.2952  0.2846
17934TIP3    H175217   0.032   5.662  11.715  2.2121  0.3822  0.9942
17934TIP3    H275218   0.072   5.806  11.738  1.5745  0.8635 -0.7122
17935TIP3   OH275219   2.996   1.492  12.564  0.2350  0.4166 -0.1942
17935TIP3    H175220   2.996   1.578  12.605  0.5527 -0.1375  1.0003
17935TIP3    H275221   2.906   1.480  12.532  0.3313  1.4042 -0.8664
17936TIP3   OH275222   4.635   3.689   2.764 -0.0594  0.4991  0.2231
17936TIP3    H175223   4.653   3.731   2.849 -0.0392 -0.8820  0.9247
17936TIP3    H275224   4.572   3.620   2.785 -0.1131  0.1895 -0.9169
17937TIP3   OH275225   0.087   4.113   1.193  0.0272 -0.0690 -0.4012
17937TIP3    H175226   0.126   4.175   1.132  0.5825 -1.3982 -1.4475
17937TIP3    H275227   0.024   4.165   1.243  1.1877  1.5371 -0.5255
17938TIP3   OH275228   2.228   2.786  15.454 -0.3534 -0.4065 -0.2538
17938TIP3    H175229   2.182   2.803  15.537 -0.3591 -0.6106 -0.2151
17938TIP3    H275230   2.287   2.713  15.474  1.0618  0.7814  0.1010
17939TIP3   OH275231   1.038   3.886   3.881 -0.1052 -0.4536 -0.2136
17939TIP3    H175232   1.041   3.932   3.964 -0.3766  0.4447 -0.6858
17939TIP3    H275233   1.016   3.954   3.817 -1.1602 -1.3503 -0.8368
17940TIP3   OH275234   0.487   2.424   2.295 -0.2347  0.0475  0.3025
17940TIP3    H175235   0.401   2.386   2.316 -0.0040  0.1750  1.5512
17940TIP3    H275236   0.540   2.405   2.372 -0.1728  3.1331  1.1436
17941TIP3   OH275237   4.337   4.032  10.483 -0.6807 -0.4408  0.3967
17941TIP3    H175238   4.410   3.976  10.455 -2.0171 -2.0733  0.0049
17941TIP3    H275239   4.263   4.003  10.430 -1.4682  1.6853  0.2611
17942TIP3   OH275240   0.577   6.031   5.249  0.0548 -0.0348  0.1682
17942TIP3    H175241   0.572   6.062   5.339  1.1276  1.8914 -0.3699
17942TIP3    H275242   0.609   6.107   5.199 -0.9077 -0.9050 -1.9046
17943TIP3   OH275243   4.689   0.172  15.975  0.4566  0.2025 -0.1754
17943TIP3    H175244   4.632   0.236  16.019  0.9952 -0.1085  1.0171
17943TIP3    H275245   4.684   0.094  16.030  2.1355  0.2091  0.0271
17944TIP3   OH275246   0.678   3.558  11.443 -0.5951 -0.2205  0.2919
17944TIP3    H175247   0.608   3.552  11.507 -2.1361  1.6682 -1.1007
17944TIP3    H275248   0.737   3.625  11.479 -1.1269  0.3861  0.0480
17945TIP3   OH275249   1.779   6.432  15.825  0.3640  0.0436  0.0035
17945TIP3    H175250   1.705   6.444  15.885  0.9838  0.4097  0.7154
17945TIP3    H275251   1.855   6.424  15.883  1.1998  1.9434 -0.7698
17946TIP3   OH275252   2.186   5.635  14.646 -0.2505 -0.2613 -0.4761
17946TIP3    H175253   2.151   5.546  14.639 -0.0751 -0.2684 -1.5218
17946TIP3    H275254   2.259   5.627  14.708 -1.0586 -0.5707  0.4518
17947TIP3   OH275255   3.459   5.843  16.809 -0.1991  0.1544  0.2685
17947TIP3    H175256   3.364   5.840  16.798 -0.1506  1.1826 -0.5477
17947TIP3    H275257   3.474   5.923  16.859  0.2480  0.0326  0.3300
17948TIP3   OH275258   3.643   0.742   0.952  0.2243 -0.2457 -0.2043
17948TIP3    H175259   3.735   0.724   0.936 -0.0213 -1.0097 -0.7940
17948TIP3    H275260   3.596   0.666   0.917 -0.6899  0.5102 -0.6749
17949TIP3   OH275261   2.239   5.120   4.454 -0.2816 -0.0619  0.2145
17949TIP3    H175262   2.283   5.076   4.527 -0.1387 -1.0961 -0.4832
17949TIP3    H275263   2.290   5.096   4.377 -1.1821 -0.0301 -0.4052
17950TIP3   OH275264   3.740   0.164   2.245 -0.0490 -0.0779  0.4619
17950TIP3    H175265   3.692   0.135   2.167  1.4662 -0.3495 -0.4230
17950TIP3    H275266   3.758   0.257   2.228 -0.1649 -0.0095  0.7242
17951TIP3   OH275267   5.731   5.151  14.730  0.0855 -0.2141  0.5455
17951TIP3    H175268   5.710   5.070  14.685 -1.2369 -0.2171  1.1360
17951TIP3    H275269   5.647   5.189  14.754  0.6468  1.5664 -0.0927
17952TIP3   OH275270   1.994   3.408   2.884 -0.1698  0.0965 -0.5053
17952TIP3    H175271   2.003   3.356   2.804  0.1559  1.4050 -1.3393
17952TIP3    H275272   1.906   3.445   2.879 -1.0518 -1.6535  0.9084
17953TIP3   OH275273   2.119   4.079  16.014 -0.3374 -0.0405 -0.6263
17953TIP3    H175274   2.148   3.997  15.972 -0.3045  0.1489 -0.9753
17953TIP3    H275275   2.146   4.069  16.105 -2.0139 -1.2362 -0.2124
17954TIP3   OH275276   2.213   5.483   3.463 -0.9016  0.4091 -0.1448
17954TIP3    H175277   2.146   5.545   3.434 -1.5208 -0.3811 -0.4096
17954TIP3    H275278   2.261   5.461   3.384 -0.6572  0.5723 -0.0429
17955TIP3   OH275279   0.388   3.169   0.906  0.0286 -0.0531  0.2519
17955TIP3    H175280   0.353   3.214   0.982  0.3272 -1.4813  1.2721
17955TIP3    H275281   0.483   3.177   0.914  0.1191  2.8713 -1.9316
17956TIP3   OH275282   0.938   3.339   1.014 -0.2940  0.4118 -0.3738
17956TIP3    H175283   0.947   3.388   0.933  0.0342  0.7989 -0.1074
17956TIP3    H275284   0.922   3.248   0.987  1.5776  0.1961 -0.8835
17957TIP3   OH275285   1.489   5.883  12.649 -0.2277  0.5437 -0.4685
17957TIP3    H175286   1.430   5.899  12.575 -0.3724 -1.3031 -0.8082
17957TIP3    H275287   1.436   5.900  12.727 -0.8297  0.1169 -0.7823
17958TIP3   OH275288   6.276   4.500   5.872  0.2668 -0.2755 -0.5477
17958TIP3    H175289   6.269   4.407   5.851  0.0029  0.0489 -1.9986
17958TIP3    H275290   6.283   4.502   5.967 -1.1716 -1.6999 -0.3590
17959TIP3   OH275291   0.594   2.722  11.810  0.2360 -0.2131 -0.3610
17959TIP3    H175292   0.560   2.793  11.865 -1.3521 -0.1699 -1.3251
17959TIP3    H275293   0.520   2.662  11.801  1.0878 -1.2035 -0.8300
17960TIP3   OH275294   1.301   2.245   5.878  0.0801 -0.0879 -0.2707
17960TIP3    H175295   1.210   2.249   5.849  0.4499  1.7003 -1.2978
17960TIP3    H275296   1.340   2.176   5.825 -0.1606  0.6442 -1.4300
17961TIP3   OH275297   6.262   0.954  16.187  0.8196 -0.8724 -0.1086
17961TIP3    H175298   6.248   0.983  16.097 -0.3619 -3.1061 -0.6948
17961TIP3    H275299   6.356   0.964  16.201  0.7495  1.5515 -0.7817
17962TIP3   OH275300   5.651   3.234   3.922 -0.7543  0.1523 -0.1357
17962TIP3    H175301   5.650   3.328   3.904 -0.2081  0.0318 -0.8617
17962TIP3    H275302   5.680   3.194   3.840 -3.0310 -0.8304 -0.5505
17963TIP3   OH275303   3.290   3.115   2.039 -0.5366  0.4007  0.0894
17963TIP3    H175304   3.351   3.180   2.004 -0.8123  1.7514  2.0016
17963TIP3    H275305   3.279   3.052   1.967  1.1805  1.4412 -1.1593
17964TIP3   OH275306   3.727   0.241   2.959  0.2459 -0.3056 -0.0828
17964TIP3    H175307   3.784   0.280   2.892  0.3728 -1.9291 -0.9644
17964TIP3    H275308   3.665   0.189   2.909 -0.8059 -0.1079  0.9928
17965TIP3   OH275309   2.043   3.368   2.395  0.5183 -0.1323  0.0339
17965TIP3    H175310   1.964   3.406   2.356 -0.9024 -2.2706  0.6346
17965TIP3    H275311   2.098   3.443   2.415 -2.3593  1.7323  1.7786
17966TIP3   OH275312   3.987   5.935  15.330  0.5241  0.1168 -0.0967
17966TIP3    H175313   3.913   5.875  15.332  1.8854 -1.6582  0.3401
17966TIP3    H275314   3.963   6.005  15.391 -1.1407  0.0692 -0.6623
17967TIP3   OH275315   5.738   6.064   2.824  0.4839  0.3800  0.2424
17967TIP3    H175316   5.729   6.101   2.911 -0.9034  1.6202 -0.3819
17967TIP3    H275317   5.782   5.980   2.837  1.2540  1.0197  1.9975
17968TIP3   OH275318   4.799   0.297  12.557  0.4955 -0.1287 -0.1559
17968TIP3    H175319   4.824   0.278  12.466 -0.8280 -4.6691  0.1904
17968TIP3    H275320   4.707   0.324  12.551  0.2588 -0.9077 -0.1905
17969TIP3   OH275321   3.454   5.543   1.829  0.7500  0.4153 -0.3702
17969TIP3    H175322   3.459   5.536   1.734  0.6695  1.4210 -0.4584
17969TIP3    H275323   3.409   5.627   1.845 -0.6382 -0.4464  0.5299
17970TIP3   OH275324   3.810   4.723   4.394  0.0654  0.1572 -0.0887
17970TIP3    H175325   3.863   4.705   4.317 -1.4500  1.2999 -1.4690
17970TIP3    H275326   3.799   4.818   4.393  0.7302  0.3192  2.0706
17971TIP3   OH275327   5.027   4.549   4.708 -0.1606 -0.2946 -0.7359
17971TIP3    H175328   5.005   4.575   4.619 -0.0468  0.0760 -0.6593
17971TIP3    H275329   4.972   4.604   4.763  0.3548  0.0580 -0.5640
17972TIP3   OH275330   6.128   2.145   5.504 -0.7692 -0.1268 -0.2181
17972TIP3    H175331   6.214   2.133   5.463 -0.2746  1.6378  0.1809
17972TIP3    H275332   6.086   2.060   5.498  0.0921 -0.4540 -2.4976
17973TIP3   OH275333   4.032   4.745  11.628 -1.0301  0.2925  0.9119
17973TIP3    H175334   4.122   4.777  11.625 -0.6122 -0.8585  0.5214
17973TIP3    H275335   4.000   4.758  11.538 -0.7422 -0.6636  0.6607
17974TIP3   OH275336   4.812   6.463  11.906  0.0595 -0.0347  0.0371
17974TIP3    H175337   4.841   6.534  11.850 -0.9104 -0.4962 -1.0907
17974TIP3    H275338   4.716   6.470  11.907 -0.1064 -1.6503 -0.5935
17975TIP3   OH275339   2.053   6.159   6.352  0.0211  0.5451 -0.4406
17975TIP3    H175340   2.117   6.122   6.292  0.4829  1.9689 -0.8536
17975TIP3    H275341   2.102   6.178   6.432 -0.1500  0.5010 -0.3232
17976TIP3   OH275342   0.141   0.902  16.096  0.0221 -0.6670 -0.3108
17976TIP3    H175343   0.189   0.845  16.036  0.0411 -1.7567  0.6926
17976TIP3    H275344   0.052   0.865  16.096 -0.4576  0.4256 -1.0183
17977TIP3   OH275345   1.906   2.453  10.673 -0.1734 -0.4593 -0.5280
17977TIP3    H175346   1.812   2.447  10.659 -0.2653  0.8723 -0.6179
17977TIP3    H275347   1.935   2.518  10.610  0.1987  1.9352  1.9416
17978TIP3   OH275348   4.915   5.227   3.498 -0.0598  0.1799  0.1350
17978TIP3    H175349   4.903   5.134   3.482  0.4654  0.0136  0.6903
17978TIP3    H275350   4.835   5.254   3.543  0.0442 -0.1270  0.5023
17979TIP3   OH275351   0.983   0.307  14.527  0.4750  0.9828 -0.1234
17979TIP3    H175352   1.036   0.283  14.603 -1.8179  0.9309  1.5618
17979TIP3    H275353   0.968   0.225  14.481  0.3516  0.6987  0.4195
17980TIP3   OH275354   2.316   4.450  11.771 -0.0519  0.5964  1.0340
17980TIP3    H175355   2.253   4.518  11.795 -0.7863  0.2115  0.2558
17980TIP3    H275356   2.401   4.483  11.802 -0.7109  0.8288  2.6875
17981TIP3   OH275357   1.393   0.665   2.764  0.1209 -0.1932 -0.4712
17981TIP3    H175358   1.333   0.737   2.779  1.2363  0.3869  1.6096
17981TIP3    H275359   1.337   0.588   2.754 -1.0090  0.6284 -0.5826
17982TIP3   OH275360   5.949   4.482  14.106  0.4513 -0.2350  0.0224
17982TIP3    H175361   5.891   4.531  14.164 -1.4538 -0.2047 -1.7809
17982TIP3    H275362   5.991   4.549  14.052 -1.9514 -0.4008 -2.2596
17983TIP3   OH275363   3.105   4.057   0.655 -0.2215 -0.4593 -0.3038
17983TIP3    H175364   3.020   4.034   0.691  0.5462 -0.1341  1.8850
17983TIP3    H275365   3.148   3.973   0.639  0.0814 -0.6489  1.3296
17984TIP3   OH275366   2.536   6.579   5.260  0.2574 -0.1447  0.1596
17984TIP3    H175367   2.615   6.533   5.288  1.4798  1.6345 -0.2391
17984TIP3    H275368   2.516   6.638   5.332 -0.8867 -0.7447  0.3619
17985TIP3   OH275369   4.199   0.330   1.699 -0.0321  0.0612  0.2620
17985TIP3    H175370   4.163   0.406   1.745 -0.2648 -0.1295  0.3953
17985TIP3    H275371   4.240   0.367   1.621  1.7582  0.5855  1.3881
17986TIP3   OH275372   5.785   2.025  14.247 -0.0619  0.2653 -0.0059
17986TIP3    H175373   5.812   2.064  14.330 -0.9964  1.6645 -0.3267
17986TIP3    H275374   5.866   2.013  14.198  0.3494  0.8677  0.5181
17987TIP3   OH275375   1.046   5.623   6.612 -0.5304  0.0563  0.1634
17987TIP3    H175376   1.125   5.569   6.614 -0.0194  0.7441 -0.5762
17987TIP3    H275377   1.074   5.708   6.645 -0.9854  0.2766 -0.0005
17988TIP3   OH275378   4.946   4.257  13.540 -0.0330  0.5153  0.3065
17988TIP3    H175379   4.998   4.268  13.460 -1.2990  1.9996 -0.3680
17988TIP3    H275380   4.964   4.167  13.567 -0.4135 -0.4510 -2.2897
17989TIP3   OH275381   3.730   6.204  11.603 -0.5141 -0.2620 -0.5387
17989TIP3    H175382   3.705   6.291  11.635  2.9516  0.9098 -0.6454
17989TIP3    H275383   3.759   6.157  11.681  0.7986 -0.0968 -0.9122
17990TIP3   OH275384   5.037   0.246   5.368 -0.1085  0.2500  0.3444
17990TIP3    H175385   5.053   0.197   5.449 -0.6305 -1.1164 -0.3492
17990TIP3    H275386   5.114   0.302   5.358  0.8894 -0.9908  0.7793
17991TIP3   OH275387   1.899   5.839  13.519  0.0609  0.2505  0.0945
17991TIP3    H175388   1.811   5.804  13.500 -0.0876 -0.0721  1.2738
17991TIP3    H275389   1.955   5.801  13.451 -1.0234  2.0954 -1.9588
17992TIP3   OH275390   1.319   1.628   1.959  0.2598  0.3053 -0.2224
17992TIP3    H175391   1.394   1.638   1.900  0.3857 -0.2568 -0.1665
17992TIP3    H275392   1.256   1.693   1.929 -0.7077 -1.5635 -2.5762
17993TIP3   OH275393   2.933   4.459   4.439  0.1286  0.1302 -0.3066
17993TIP3    H175394   3.003   4.501   4.490  0.3730 -0.0951 -0.4505
17993TIP3    H275395   2.865   4.440   4.503 -0.5834  1.9730 -0.4565
17994TIP3   OH275396   0.917   5.481  11.558  0.3042 -0.0370  0.1943
17994TIP3    H175397   0.928   5.537  11.481  0.4374  0.9169  0.8885
17994TIP3    H275398   0.957   5.398  11.534 -1.0241 -0.2846 -1.3287
17995TIP3   OH275399   3.845   3.336   4.006  0.1914  0.1343 -0.0272
17995TIP3    H175400   3.847   3.395   4.082 -1.4992  0.1619  0.0208
17995TIP3    H275401   3.863   3.250   4.043 -0.8485  0.1127  0.4553
17996TIP3   OH275402   1.880   3.219   3.893  0.6018  0.5627 -0.5187
17996TIP3    H175403   1.891   3.177   3.808  1.0741  0.5268 -0.4416
17996TIP3    H275404   1.934   3.298   3.888  0.6907  0.5216 -0.2257
17997TIP3   OH275405   1.899   0.995   4.654 -0.2272  0.2284 -0.2153
17997TIP3    H175406   1.830   0.941   4.617 -0.9038  1.2559 -0.4694
17997TIP3    H275407   1.925   1.054   4.583 -0.2856  0.9988  0.3887
17998TIP3   OH275408   1.318   1.219  15.516  0.2124  0.5646  0.5822
17998TIP3    H175409   1.232   1.178  15.526  0.8004 -1.0785 -0.4802
17998TIP3    H275410   1.299   1.309  15.491 -1.2207  0.1836  0.1765
17999TIP3   OH275411   2.272   3.596  13.302  0.5045 -0.1752  0.1203
17999TIP3    H175412   2.281   3.591  13.397 -2.0407  0.1128  0.4539
17999TIP3    H275413   2.228   3.680  13.287 -1.8732 -1.5194 -0.9874
18000TIP3   OH275414   5.622   2.949  12.489  0.4173 -0.5512  0.3857
18000TIP3    H175415   5.577   2.869  12.514 -0.5607 -0.2100 -0.2104
18000TIP3    H275416   5.636   2.941  12.395 -1.2331  0.6767 -0.0197
18001TIP3   OH275417   0.417   0.894  13.424  0.4151  0.0062 -0.0768
18001TIP3    H175418   0.326   0.923  13.433  0.5582  0.0803  1.1999
18001TIP3    H275419   0.457   0.961  13.369 -0.5032 -0.5081 -1.4451
18002TIP3   OH275420   6.054   1.868  11.481  0.0304  0.0739  0.4811
18002TIP3    H175421   6.087   1.846  11.569 -0.3110  1.7703  1.0665
18002TIP3    H275422   6.094   1.802  11.424 -2.3490 -3.2310  2.2749
18003TIP3   OH275423   5.071   4.115  17.181  0.1550 -0.2248 -0.2353
18003TIP3    H175424   5.079   4.099  17.087  2.2979 -0.9345  0.0212
18003TIP3    H275425   4.980   4.142  17.193 -0.5556 -1.4864 -2.3098
18004TIP3   OH275426   5.514   2.611  13.187  0.1455 -0.1820  0.3991
18004TIP3    H175427   5.603   2.596  13.155  0.0624  1.2408 -0.6091
18004TIP3    H275428   5.525   2.676  13.257 -0.2848  2.2872 -1.6767
18005TIP3   OH275429   6.504   3.348   0.819  0.0540 -0.1923  0.4417
18005TIP3    H175430   6.588   3.305   0.831  1.9024  1.9522 -3.2060
18005TIP3    H275431   6.516   3.436   0.856 -0.7483  0.0017  0.2725
18006TIP3   OH275432   5.793   3.619  16.662  0.6404 -0.5249 -0.6405
18006TIP3    H175433   5.722   3.579  16.712  0.2688  0.8713  0.0133
18006TIP3    H275434   5.771   3.712  16.660  0.5782 -0.5058 -3.5510
18007TIP3   OH275435   6.256   6.163   3.983  0.8156 -0.0353  0.2912
18007TIP3    H175436   6.283   6.142   4.072  0.6710  0.8005  0.5384
18007TIP3    H275437   6.287   6.252   3.968  0.9392 -0.2093 -0.5377
18008TIP3   OH275438   1.640   3.972   5.707 -0.3819 -0.0281  0.8002
18008TIP3    H175439   1.580   3.948   5.636 -0.0597 -0.3463  0.6307
18008TIP3    H275440   1.621   4.064   5.724 -2.6628 -0.7273  2.4541
18009TIP3   OH275441   0.129   1.025   1.709 -0.5369 -0.2953  0.3623
18009TIP3    H175442   0.180   1.099   1.677 -1.7421  0.6293  0.4895
18009TIP3    H275443   0.168   1.003   1.793 -1.8686  2.0874  1.7158
18010TIP3   OH275444   4.090   0.693  10.919  0.1644 -0.1484  0.9490
18010TIP3    H175445   4.143   0.752  10.865  0.4271 -0.8182  0.4635
18010TIP3    H275446   4.141   0.682  10.999 -0.5321  1.3706  1.6460
18011TIP3   OH275447   3.072   5.866   4.827 -0.4938  0.2883  0.4933
18011TIP3    H175448   3.094   5.945   4.876  1.4997 -0.7187  1.3424
18011TIP3    H275449   3.042   5.804   4.893 -1.2817  0.0407 -0.0683
18012TIP3   OH275450   0.532   6.634  16.885 -0.1478 -0.4768  0.1951
18012TIP3    H175451   0.460   6.575  16.909 -0.9353  0.5363  0.3699
18012TIP3    H275452   0.606   6.575  16.868 -0.7776 -1.4844  0.8273
18013TIP3   OH275453   1.510   0.017   1.571  0.3814  0.5229  0.4838
18013TIP3    H175454   1.453   0.006   1.495 -0.7267  0.5156  1.2918
18013TIP3    H275455   1.555   0.100   1.556  0.8672  0.1020 -0.5893
18014TIP3   OH275456   1.584   0.483   3.449  0.0701 -0.0377  0.0050
18014TIP3    H175457   1.560   0.529   3.529 -0.2529 -0.2825  0.0488
18014TIP3    H275458   1.630   0.405   3.479 -0.1596 -0.1918 -0.0455
18015TIP3   OH275459   3.276   4.782  14.872  0.5774 -0.8386  0.1369
18015TIP3    H175460   3.314   4.775  14.784  1.5531 -0.0386  0.4778
18015TIP3    H275461   3.347   4.816  14.926 -0.5609  0.4632  0.8654
18016TIP3   OH275462   4.401   4.772  12.614 -0.7835 -0.1384  0.4983
18016TIP3    H175463   4.489   4.775  12.576 -0.4563 -1.7664  1.0446
18016TIP3    H275464   4.344   4.744  12.542 -0.5621 -0.8300  0.5904
18017TIP3   OH275465   0.301   3.675  11.783  0.6889  0.4724  1.1210
18017TIP3    H175466   0.269   3.752  11.830 -2.0076  0.0340  0.1651
18017TIP3    H275467   0.226   3.616  11.779  0.7036  0.3927 -3.4787
18018TIP3   OH275468   3.542   0.452   6.036 -0.2018 -0.2123 -0.0459
18018TIP3    H175469   3.584   0.529   6.074 -2.1839  1.9268 -1.8488
18018TIP3    H275470   3.614   0.401   5.999  1.2863  0.0525  2.2372
18019TIP3   OH275471   2.613   4.295   2.846  0.1749  0.7922 -0.5894
18019TIP3    H175472   2.531   4.337   2.822 -1.3675 -2.2681 -1.1431
18019TIP3    H275473   2.625   4.227   2.780  1.1288 -1.3143  1.6129
18020TIP3   OH275474   2.888   3.593   3.981  0.2275 -0.1852  0.2904
18020TIP3    H175475   2.925   3.505   3.970  1.3809  0.3739 -0.4356
18020TIP3    H275476   2.802   3.587   3.941 -0.0438 -1.1884  0.9557
18021TIP3   OH275477   4.435   5.250   2.453 -0.2193  0.4163  0.1630
18021TIP3    H175478   4.466   5.162   2.432 -1.4366 -0.3635  1.4208
18021TIP3    H275479   4.395   5.241   2.540 -2.8920  1.5703 -0.8310
18022TIP3   OH275480   2.919   6.142   0.150 -0.2414 -0.2476 -0.3764
18022TIP3    H175481   2.843   6.194   0.125  0.5399  1.4973  0.7485
18022TIP3    H275482   2.932   6.160   0.243  1.0225 -1.2050 -0.3350
18023TIP3   OH275483   0.576   2.339  11.226 -0.0085 -0.0188 -0.1053
18023TIP3    H175484   0.517   2.300  11.162 -0.0015  0.7397 -0.5847
18023TIP3    H275485   0.603   2.266  11.281  0.6150 -0.8488 -1.4603
18024TIP3   OH275486   1.186   6.340  12.617  0.1247  0.4705 -0.1274
18024TIP3    H175487   1.237   6.317  12.539  1.1808 -0.9045  0.9009
18024TIP3    H275488   1.097   6.311  12.596  0.4637 -0.2201 -0.7051
18025TIP3   OH275489   5.815   5.633  11.994  0.3279  0.4934  0.0477
18025TIP3    H175490   5.735   5.641  11.943 -0.5772 -0.1356  1.3192
18025TIP3    H275491   5.885   5.636  11.929 -0.7588  0.1097 -1.1781
18026TIP3   OH275492   0.849   6.187  11.948  0.0678  0.2208  0.4957
18026TIP3    H175493   0.846   6.109  12.002 -2.1746  0.7244  1.1881
18026TIP3    H275494   0.864   6.259  12.009  1.2478  0.4623 -0.0355
18027TIP3   OH275495   3.243   3.615   3.396  0.1211  0.1420  0.6262
18027TIP3    H175496   3.176   3.558   3.432  0.7618 -0.6226  0.6408
18027TIP3    H275497   3.196   3.677   3.341 -0.3233 -2.8815 -2.7392
18028TIP3   OH275498   1.530   2.793   5.356  0.2601  0.1498  0.3491
18028TIP3    H175499   1.479   2.736   5.299  0.6885  0.7425 -0.6489
18028TIP3    H275500   1.465   2.835   5.412 -0.2903  0.3561 -0.4263
18029TIP3   OH275501   2.061   4.736   5.701 -0.3992  0.5039 -0.1294
18029TIP3    H175502   1.984   4.681   5.717  0.1199 -0.6818 -1.4645
18029TIP3    H275503   2.026   4.816   5.661 -1.2376  1.5710  2.4833
18030TIP3   OH275504   2.310   1.464  14.561 -0.3783  0.1921 -0.8773
18030TIP3    H175505   2.330   1.514  14.481 -1.0182  0.7446 -0.7023
18030TIP3    H275506   2.333   1.374  14.539 -2.0437  0.0557 -2.2696
18031TIP3   OH275507   4.637   2.827   2.547  0.5979  0.8669  0.1018
18031TIP3    H175508   4.685   2.776   2.612 -0.8676 -1.5495 -0.5907
18031TIP3    H275509   4.557   2.854   2.592 -0.5085 -0.9745 -0.6730
18032TIP3   OH275510   5.209   3.001  12.979 -0.2100  0.2780  0.0760
18032TIP3    H175511   5.219   3.032  13.069  0.1196  0.6093 -0.0755
18032TIP3    H275512   5.287   2.948  12.963 -0.3221  0.1280  0.0195
18033TIP3   OH275513   2.814   3.803   5.360  0.3022  0.4037  0.1076
18033TIP3    H175514   2.771   3.889   5.358 -0.8856 -0.1575 -2.5375
18033TIP3    H275515   2.806   3.775   5.451 -1.5079  2.0392  0.5238
18034TIP3   OH275516   1.083   1.153   1.409 -0.1837  0.1602 -0.3983
18034TIP3    H175517   1.121   1.132   1.495  0.7075 -0.1664 -0.8620
18034TIP3    H275518   1.132   1.228   1.378 -1.5633  1.2823  0.0502
18035TIP3   OH275519   3.194   3.084   1.760  0.3979 -0.0019 -0.0188
18035TIP3    H175520   3.179   2.991   1.778 -0.6288  0.0683 -0.4631
18035TIP3    H275521   3.197   3.090   1.664  3.1167  0.0417  0.0018
18036TIP3   OH275522   3.503   1.486  17.246  0.2629  0.0340  0.3753
18036TIP3    H175523   3.427   1.529  17.208  0.5552 -1.3136 -1.8977
18036TIP3    H275524   3.577   1.520  17.197  0.3533 -4.3541 -3.1729
18037TIP3   OH275525   1.208   5.539  14.203 -0.0126  0.5587 -0.6184
18037TIP3    H175526   1.251   5.461  14.169 -3.6415 -1.7540 -0.4140
18037TIP3    H275527   1.184   5.516  14.293 -1.5199  1.7304 -0.6842
18038TIP3   OH275528   6.388   6.708  14.799 -0.3678 -0.2326  0.5585
18038TIP3    H175529   6.314   6.736  14.853 -0.0243  1.2960  0.2700
18038TIP3    H275530   6.350   6.647  14.736 -1.2601  0.0123  0.8435
18039TIP3   OH275531   0.015   4.085   0.881  0.1702 -0.0335 -0.4078
18039TIP3    H175532   0.059   4.002   0.895 -0.8313 -0.6602 -0.9053
18039TIP3    H275533  -0.078   4.067   0.897 -0.3132  0.5203 -2.3018
18040TIP3   OH275534   3.671   5.079   2.832  0.1887 -0.3787  0.0291
18040TIP3    H175535   3.616   5.027   2.891  2.6692 -2.4099  0.7643
18040TIP3    H275536   3.729   5.128   2.891 -0.0550  0.8271 -0.7093
18041TIP3   OH275537   6.082   4.945  11.593 -0.2367  0.7520  0.3007
18041TIP3    H175538   6.039   4.985  11.669  0.4639 -1.8005  2.2084
18041TIP3    H275539   6.106   4.857  11.623 -0.7681 -0.7779 -3.2091
18042TIP3   OH275540   3.723   3.345  13.425  0.2913  0.2620  0.2663
18042TIP3    H175541   3.730   3.429  13.471 -0.7812  0.4617  0.0959
18042TIP3    H275542   3.629   3.326  13.425  0.0826  0.8026 -2.7157
18043TIP3   OH275543   5.578   6.315   1.780  0.4802 -0.3971 -0.0503
18043TIP3    H175544   5.511   6.338   1.715  0.5507  2.6465  0.7987
18043TIP3    H275545   5.656   6.363   1.752  1.2170 -0.9546  0.9862
18044TIP3   OH275546   0.505   0.010  12.443 -0.1575 -0.1013 -0.7891
18044TIP3    H175547   0.540  -0.001  12.531 -0.0864  0.7323 -0.7079
18044TIP3    H275548   0.582   0.009  12.386  0.0208  1.5142 -0.6296
18045TIP3   OH275549   4.895   1.899  14.990  0.3397  0.7192  0.1077
18045TIP3    H175550   4.984   1.863  14.988  1.7897  3.9565 -1.8411
18045TIP3    H275551   4.901   1.974  15.050 -1.4902  0.2145  0.9903
18046TIP3   OH275552   1.516   1.766  13.669  0.1587  0.3031 -0.0970
18046TIP3    H175553   1.559   1.680  13.672 -1.1703 -0.3629  1.2299
18046TIP3    H275554   1.472   1.767  13.584 -1.8775 -1.4301  0.8535
18047TIP3   OH275555   3.079   2.863  12.174  0.0808  0.3377  0.2063
18047TIP3    H175556   3.040   2.880  12.260 -0.0446 -0.5123  0.3232
18047TIP3    H275557   3.005   2.844  12.117  0.2956 -1.8764  0.5638
18048TIP3   OH275558   3.096   4.033   1.258  0.2342 -0.2132 -0.6290
18048TIP3    H175559   3.070   4.062   1.171  0.5858  0.9673 -0.3534
18048TIP3    H275560   3.175   4.084   1.278  1.1538 -1.6930 -0.3080
18049TIP3   OH275561   1.935   5.352  17.257 -0.3280  0.0922  0.3375
18049TIP3    H175562   2.022   5.365  17.294 -0.4319 -0.9610  1.0028
18049TIP3    H275563   1.914   5.435  17.215 -0.0406  1.2130  2.3207
18050TIP3   OH275564   3.003   0.097  16.139  0.2047 -0.2673  0.3978
18050TIP3    H175565   2.910   0.100  16.160  0.2120  0.6958  0.3767
18050TIP3    H275566   3.039   0.030  16.197 -0.5539 -0.8995  0.1572
18051TIP3   OH275567   0.980   3.098   1.925  0.1237  0.1868 -0.2581
18051TIP3    H175568   0.988   3.099   2.020  1.7853 -1.5893 -0.3045
18051TIP3    H275569   1.006   3.009   1.900  1.4726  1.1364 -2.5024
18052TIP3   OH275570   0.744   2.823   6.375 -0.1652  0.1440 -0.1774
18052TIP3    H175571   0.801   2.875   6.430 -0.9499 -0.5700  1.3670
18052TIP3    H275572   0.658   2.865   6.384 -0.7366 -1.1824  0.8341
18053TIP3   OH275573   6.571   5.048   2.667  0.0698  0.3756 -0.5793
18053TIP3    H175574   6.570   5.133   2.624  0.9221  0.6209 -0.1482
18053TIP3    H275575   6.587   5.068   2.759  0.4567 -0.2536 -0.5026
18054TIP3   OH275576   6.132   0.220  15.751 -0.5210  0.1939  0.7195
18054TIP3    H175577   6.056   0.165  15.733  0.7323 -1.2610 -0.4150
18054TIP3    H275578   6.152   0.262  15.667 -0.8266  1.6130  1.3230
18055TIP3   OH275579   3.152   5.414   5.574  0.0013  0.5614  0.2145
18055TIP3    H175580   3.227   5.393   5.630 -0.3013 -2.0483 -0.2234
18055TIP3    H275581   3.084   5.444   5.634  0.6763  0.8537  0.8516
18056TIP3   OH275582   2.430   4.183   4.116  0.1849 -0.4094 -0.8180
18056TIP3    H175583   2.396   4.210   4.030  1.1144 -0.6317 -1.2602
18056TIP3    H275584   2.407   4.090   4.123 -1.0050 -0.1040 -0.2637
18057TIP3   OH275585   3.582   3.373   2.199 -0.5655 -0.7134  0.0924
18057TIP3    H175586   3.526   3.333   2.266 -0.4519 -1.6504 -0.3545
18057TIP3    H275587   3.622   3.298   2.154 -0.3560 -0.0881 -0.7768
18058TIP3   OH275588   5.105   6.061  14.894  0.1239  0.5261 -0.3441
18058TIP3    H175589   5.056   6.132  14.937  0.1708  0.5628 -0.3514
18058TIP3    H275590   5.047   5.985  14.899  0.2525  0.4503  0.0592
18059TIP3   OH275591   6.027   5.070  11.835 -0.1625  0.0619 -0.1935
18059TIP3    H175592   5.987   5.048  11.919  2.4657  1.0230  1.4699
18059TIP3    H275593   5.972   5.139  11.799 -1.9390 -1.1041  0.1691
18060TIP3   OH275594   1.044   0.942  15.933  0.7515  0.1147 -0.0992
18060TIP3    H175595   0.990   1.013  15.900  2.8341  1.2477 -1.3085
18060TIP3    H275596   1.042   0.876  15.863  3.0845  1.4022 -1.5360
18061TIP3   OH275597   3.388   6.283  14.088  0.5002  0.4061 -0.7708
18061TIP3    H175598   3.475   6.246  14.074  0.3617 -0.7442  1.0408
18061TIP3    H275599   3.389   6.367  14.042  3.1053  1.1525  0.4477
18062TIP3   OH275600   3.983   2.497   2.668 -0.4096  0.3395 -0.5220
18062TIP3    H175601   3.932   2.561   2.717 -0.7701 -0.6203  0.4158
18062TIP3    H275602   4.069   2.537   2.657 -0.4713  0.7786  0.4928
18063TIP3   OH275603   5.916   0.194  13.863 -0.6409 -0.2810  0.2740
18063TIP3    H175604   5.884   0.124  13.805 -0.6388  0.9822 -1.3203
18063TIP3    H275605   6.006   0.209  13.834 -0.3200 -0.2535  1.2516
18064TIP3   OH275606   2.485   1.132   6.189  0.1753 -0.2001  0.4436
18064TIP3    H175607   2.508   1.209   6.240 -0.5293 -0.5321  1.2929
18064TIP3    H275608   2.399   1.153   6.152  0.0001 -0.5519  0.6455
18065TIP3   OH275609   1.807   0.067  12.877  0.6205  0.5869 -0.2075
18065TIP3    H175610   1.805   0.154  12.918  0.3997  0.6388 -0.3291
18065TIP3    H275611   1.735   0.068  12.814  0.9908  0.5257 -0.6380
18066TIP3   OH275612   2.435   2.185  13.629 -0.0506 -0.4254  0.1102
18066TIP3    H175613   2.395   2.165  13.544 -1.1147  1.9132 -0.0170
18066TIP3    H275614   2.361   2.208  13.685  0.8328  0.6561  0.8734
18067TIP3   OH275615   5.693   2.516  17.191 -0.4245 -0.4551 -0.2030
18067TIP3    H175616   5.709   2.611  17.189 -0.4950 -0.4514 -1.5049
18067TIP3    H275617   5.629   2.504  17.262  0.3659  0.3316  0.6644
18068TIP3   OH275618   2.109   6.775  15.253  0.2629 -0.3638 -0.4719
18068TIP3    H175619   2.097   6.780  15.158  0.0734 -1.3822 -0.5178
18068TIP3    H275620   2.182   6.714  15.265  0.9394  0.5148  0.0178
18069TIP3   OH275621   3.981   2.088  15.612 -0.6111 -0.6120 -0.4545
18069TIP3    H175622   3.958   2.011  15.560 -0.9334 -1.6300  1.0916
18069TIP3    H275623   4.062   2.062  15.657 -1.7518 -0.8721  1.5824
18070TIP3   OH275624   2.009   4.555   2.942  0.1216  0.6320 -0.5016
18070TIP3    H175625   2.065   4.575   3.017  1.6054 -1.7456 -0.8735
18070TIP3    H275626   1.936   4.507   2.978  0.6159 -0.1339 -0.4953
18071TIP3   OH275627   0.001   4.557   4.750  0.3048 -0.2784  0.2102
18071TIP3    H175628   0.097   4.554   4.757  0.4397  1.3482 -0.4975
18071TIP3    H275629  -0.017   4.637   4.699 -1.3610 -1.3928 -1.0548
18072TIP3   OH275630   2.367   0.548  16.129 -0.3747 -0.6668  0.2406
18072TIP3    H175631   2.390   0.641  16.134 -1.1608 -0.5096  1.0523
18072TIP3    H275632   2.428   0.513  16.064 -0.4508  0.5304 -0.5179
18073TIP3   OH275633   0.210   5.891   1.756 -0.1859 -0.4262 -0.1015
18073TIP3    H175634   0.254   5.842   1.826 -0.9179 -0.3570  0.4246
18073TIP3    H275635   0.226   5.840   1.677  0.9242 -0.3406  0.0459
18074TIP3   OH275636   1.424   3.621   4.926 -0.8398  0.4331 -0.1185
18074TIP3    H175637   1.447   3.565   4.851 -1.0581  0.7619 -0.4306
18074TIP3    H275638   1.498   3.681   4.933 -0.5484  0.0358  0.2916
18075TIP3   OH275639   3.385   0.214   2.577  0.5864  0.6349  0.1173
18075TIP3    H175640   3.401   0.121   2.595  0.6914  0.6906  0.3135
18075TIP3    H275641   3.331   0.244   2.650 -0.1509  0.5271 -0.3752
18076TIP3   OH275642   5.637   5.376   1.250 -0.1656  0.0218 -0.5066
18076TIP3    H175643   5.548   5.400   1.223 -0.6415  1.3543  1.9034
18076TIP3    H275644   5.694   5.431   1.196 -0.6928 -1.2061 -2.4335
18077TIP3   OH275645   1.199   2.711  17.035  0.4168  0.3742 -0.4168
18077TIP3    H175646   1.154   2.628  17.045 -0.9229  0.9173 -1.6447
18077TIP3    H275647   1.220   2.738  17.125 -0.6732 -0.4555  0.1029
18078TIP3   OH275648   0.565   0.601   2.252  0.3586  0.2443  0.3399
18078TIP3    H175649   0.499   0.628   2.316  2.8882  3.9698  1.7286
18078TIP3    H275650   0.528   0.623   2.167 -1.2015 -0.3838  0.8264
18079TIP3   OH275651   2.820   4.615  16.305 -1.1181  0.0343  0.1195
18079TIP3    H175652   2.789   4.525  16.301 -1.5709  0.1282  1.0962
18079TIP3    H275653   2.825   4.644  16.214 -0.2714 -1.2031 -0.2463
18080TIP3   OH275654   5.944   5.321   4.209  0.1725 -0.0693  0.3169
18080TIP3    H175655   6.013   5.258   4.228 -0.1893 -0.8266 -0.7554
18080TIP3    H275656   5.988   5.391   4.161  0.2389 -0.4690 -0.2177
18081TIP3   OH275657   6.624   0.103   1.329  0.1360  0.4449  0.2773
18081TIP3    H175658   6.667   0.028   1.370 -0.0181  0.0705 -0.2340
18081TIP3    H275659   6.547   0.120   1.383  1.2050  1.4817  1.5366
18082TIP3   OH275660   6.310   6.462  12.464 -0.2139 -0.3584  0.7412
18082TIP3    H175661   6.397   6.425  12.450  0.4198  0.8751  1.2480
18082TIP3    H275662   6.319   6.517  12.542 -1.0863  0.8643  0.0331
18083TIP3   OH275663   4.323   1.661  13.481  0.1407  0.3605  0.1502
18083TIP3    H175664   4.307   1.667  13.575  0.6066  1.4603  0.1734
18083TIP3    H275665   4.413   1.631  13.473 -0.0553 -0.2129  0.0452
18084TIP3   OH275666   1.756   4.864  17.206 -0.1603  0.4354  0.0394
18084TIP3    H175667   1.716   4.824  17.128  0.4883 -0.5186  0.1762
18084TIP3    H275668   1.683   4.879  17.266 -0.5247  0.2128 -0.3444
18085TIP3   OH275669   4.689   4.793   1.076 -0.0310 -0.3457  0.2655
18085TIP3    H175670   4.679   4.704   1.111  0.9821 -1.3076 -1.7583
18085TIP3    H275671   4.679   4.783   0.982  0.6969  1.6155 -0.0569
18086TIP3   OH275672   1.607   4.397   2.940 -0.2922  0.4558 -0.1700
18086TIP3    H175673   1.582   4.426   2.852  0.7187 -0.4760 -0.8002
18086TIP3    H275674   1.537   4.338   2.966  0.1288 -0.4655 -1.0253
18087TIP3   OH275675   5.192   4.527   5.233 -0.1323  0.3371 -0.0500
18087TIP3    H175676   5.193   4.609   5.283 -1.6083  0.5314 -0.2994
18087TIP3    H275677   5.181   4.553   5.142  1.3550 -0.0746 -0.3709
18088TIP3   OH275678   1.758   0.083  15.997  0.0965 -0.3424 -0.4358
18088TIP3    H175679   1.785   0.167  16.033  0.4248 -0.1145 -1.1844
18088TIP3    H275680   1.794   0.083  15.908 -2.9808  0.3250 -1.8038
18089TIP3   OH275681   5.087   1.170  15.798  0.4135 -0.1556 -0.1666
18089TIP3    H175682   5.061   1.095  15.851  0.9477 -0.1646  0.0864
18089TIP3    H275683   5.008   1.192  15.748 -0.8135  1.2103  2.1960
18090TIP3   OH275684   5.866   3.579  15.690  0.0826 -0.1897  0.2537
18090TIP3    H175685   5.940   3.606  15.637  0.6392 -1.2517  0.4405
18090TIP3    H275686   5.876   3.628  15.772  1.5002 -1.4346  0.8863
18091TIP3   OH275687   1.537   0.094   3.683 -0.3887  0.2365  0.2119
18091TIP3    H175688   1.578   0.081   3.597 -0.0514 -0.0667  0.4173
18091TIP3    H275689   1.568   0.180   3.712 -0.4538  0.3118  0.0608
18092TIP3   OH275690   2.998   5.347  11.695 -0.4957  0.6425 -0.0951
18092TIP3    H175691   2.976   5.355  11.602 -0.8288 -0.1465 -0.0946
18092TIP3    H275692   2.914   5.331  11.738 -0.2682  0.3701  0.2547
18093TIP3   OH275693   0.044   3.577  15.400 -0.1483 -0.5053 -0.3244
18093TIP3    H175694   0.036   3.522  15.478 -0.8519  1.4281  1.0393
18093TIP3    H275695  -0.046   3.596  15.374  0.0622  0.5350 -0.3577
18094TIP3   OH275696   6.087   1.225  10.756  0.4604  0.1025  0.1835
18094TIP3    H175697   6.000   1.191  10.736  1.0033 -1.2618 -0.0072
18094TIP3    H275698   6.076   1.271  10.839 -0.3742 -0.3684  0.3476
18095TIP3   OH275699   5.567   4.942   4.374  0.1638 -0.0188  0.0331
18095TIP3    H175700   5.493   4.983   4.330 -0.2755 -0.2918  0.5020
18095TIP3    H275701   5.527   4.881   4.436  0.7899 -0.6183 -0.1389
18096TIP3   OH275702   3.610   2.511  15.078 -0.2968  0.0232 -0.2001
18096TIP3    H175703   3.687   2.564  15.056 -0.8924 -0.1553 -3.1340
18096TIP3    H275704   3.547   2.531  15.009 -2.6062 -0.4963  1.6344
18097TIP3   OH275705   6.006   3.688  13.904  0.2892  0.5819  0.4402
18097TIP3    H175706   6.026   3.596  13.917 -0.8619  0.4718  1.6741
18097TIP3    H275707   6.070   3.734  13.959  0.6618  0.5107  0.0692
18098TIP3   OH275708   4.624   6.684  16.072 -0.3032  0.1950 -0.2231
18098TIP3    H175709   4.695   6.636  16.031 -1.6199 -1.4634 -0.6862
18098TIP3    H275710   4.574   6.618  16.119  0.2550  1.7881  2.8682
18099TIP3   OH275711   0.508   3.383   2.870  0.2099 -0.1856 -0.1826
18099TIP3    H175712   0.568   3.428   2.810 -3.0341  4.9952 -0.1475
18099TIP3    H275713   0.461   3.320   2.815  1.6168 -0.1523 -1.4923
18100TIP3   OH275714   2.293   2.001   4.797  0.7052 -0.3625 -0.2490
18100TIP3    H175715   2.197   2.001   4.803  0.6251 -1.4937 -1.1685
18100TIP3    H275716   2.321   2.055   4.871 -0.5884 -1.7437  1.3364
18101TIP3   OH275717   4.329   3.540   3.176  0.3096  0.1545 -0.3327
18101TIP3    H175718   4.341   3.624   3.220  0.3309 -0.3895  0.7169
18101TIP3    H275719   4.236   3.520   3.186  0.4342 -0.2636 -0.0077
18102TIP3   OH275720   4.087   6.502   5.619  0.0404 -0.2292  0.1688
18102TIP3    H175721   4.141   6.573   5.654  0.6569 -0.5733 -0.0730
18102TIP3    H275722   4.144   6.425   5.620 -0.1007 -0.3764 -1.0287
18103TIP3   OH275723   2.782   0.111   2.354 -0.0319  0.0165  0.0183
18103TIP3    H175724   2.765   0.090   2.262  0.0663  1.0409 -0.2421
18103TIP3    H275725   2.876   0.096   2.366  0.2053  1.0688 -0.3913
18104TIP3   OH275726   6.428   1.836   4.249  0.3926  0.3879 -0.4350
18104TIP3    H175727   6.384   1.848   4.334 -0.5804  1.2056 -1.0258
18104TIP3    H275728   6.454   1.744   4.248 -1.4269 -0.1659 -0.0869
18105TIP3   OH275729   6.733   1.696   1.974  0.0159  0.8492  0.1646
18105TIP3    H175730   6.817   1.651   1.989 -0.1389  0.5331  0.0857
18105TIP3    H275731   6.667   1.628   1.982 -0.1161  0.7342 -1.5356
18106TIP3   OH275732   4.201   0.660   0.837 -0.0157  0.4315  0.3349
18106TIP3    H175733   4.290   0.691   0.821 -0.1205  0.3247 -0.4897
18106TIP3    H275734   4.213   0.572   0.874  0.2251  0.5436  0.5292
18107TIP3   OH275735   1.351   3.096  11.395  0.0470 -0.0701 -0.2438
18107TIP3    H175736   1.348   3.049  11.312  1.7597 -1.6507  0.5044
18107TIP3    H275737   1.275   3.064  11.444  0.8091 -1.6121 -0.0153
18108TIP3   OH275738   6.062   6.089   1.072 -0.3525  0.4814 -0.8678
18108TIP3    H175739   6.143   6.040   1.054  0.3498  1.0025  0.6403
18108TIP3    H275740   6.082   6.179   1.044 -0.3594  0.6289 -0.4155
18109TIP3   OH275741   6.345   5.984   0.933 -0.0799  0.4570 -0.1980
18109TIP3    H175742   6.429   6.010   0.895  0.8433 -1.5337  0.3268
18109TIP3    H275743   6.312   5.915   0.875 -0.1232 -0.4969  0.9014
18110TIP3   OH275744   3.453   2.021   5.817  0.3645 -0.2286  0.4272
18110TIP3    H175745   3.414   1.974   5.743  0.3642  0.1439  0.1931
18110TIP3    H275746   3.470   1.952   5.882  2.6049 -0.9655 -0.8259
18111TIP3   OH275747   6.548   2.102   3.232  0.4110 -0.0880  0.3317
18111TIP3    H175748   6.560   2.033   3.297  0.0459  0.4395  0.9743
18111TIP3    H275749   6.597   2.177   3.267  0.6417  0.0467 -0.2579
18112TIP3   OH275750   4.924   6.680  11.770  0.2098  0.4203 -0.2032
18112TIP3    H175751   4.952   6.733  11.695  0.0999  3.1964  1.5863
18112TIP3    H275752   4.996   6.689  11.833  0.2019 -1.6865  0.1828
18113TIP3   OH275753   2.515   1.699  13.571  0.5086 -0.2676 -0.1659
18113TIP3    H175754   2.480   1.703  13.482 -0.3669 -0.2974  0.1697
18113TIP3    H275755   2.455   1.642  13.618  2.4193 -2.4850 -0.1995
18114TIP3   OH275756   5.141   3.383  13.441 -0.1591  0.3454  0.6117
18114TIP3    H175757   5.202   3.382  13.515  1.2059  0.9746 -0.4542
18114TIP3    H275758   5.175   3.451  13.383  0.1104 -1.5537 -1.6239
18115TIP3   OH275759   0.109   1.506   4.690  0.1337  0.2838 -0.2013
18115TIP3    H175760   0.135   1.568   4.621  0.3352  2.0018  1.3473
18115TIP3    H275761   0.168   1.431   4.678  0.0123  0.4381 -2.0118
18116TIP3   OH275762   4.565   6.170   5.248 -0.7644  0.5079 -0.4733
18116TIP3    H175763   4.499   6.111   5.212  1.2582 -2.2540  0.0138
18116TIP3    H275764   4.524   6.257   5.246 -4.1245 -0.9454 -0.7615
18117TIP3   OH275765   1.844   3.355  12.291 -0.2206  0.0621 -0.8906
18117TIP3    H175766   1.756   3.393  12.296 -0.4566 -0.3558 -1.7095
18117TIP3    H275767   1.903   3.429  12.309 -0.7168  0.5116 -1.0865
18118TIP3   OH275768   3.501   0.767   6.389 -0.2018 -0.2020  0.3484
18118TIP3    H175769   3.456   0.832   6.336 -2.5751 -1.3953  0.7904
18118TIP3    H275770   3.486   0.684   6.344  0.6616 -0.7946  1.1065
18119TIP3   OH275771   2.365   0.151   4.329  0.3691 -0.0889  0.6487
18119TIP3    H175772   2.406   0.212   4.268  0.4514 -0.8991 -0.1402
18119TIP3    H275773   2.400   0.175   4.414 -0.3808  1.5988  0.5251
18120TIP3   OH275774   5.928   0.674  13.308  1.0454 -0.2372 -0.1230
18120TIP3    H175775   6.005   0.725  13.283 -0.1665  1.1027 -1.3362
18120TIP3    H275776   5.859   0.739  13.318 -0.1133 -1.4748  0.1946
18121TIP3   OH275777   4.147   2.920  12.002  0.0807 -0.5434  0.3075
18121TIP3    H175778   4.096   2.848  12.040 -0.7968 -0.9816 -1.5882
18121TIP3    H275779   4.086   2.994  12.002 -0.6472 -1.0631 -1.9469
18122TIP3   OH275780   6.600   1.895   5.519  0.6275  0.2758 -0.0170
18122TIP3    H175781   6.605   1.885   5.614  0.4687  0.4806  0.0146
18122TIP3    H275782   6.679   1.945   5.496  1.0116 -0.3580 -0.0776
18123TIP3   OH275783   3.006   2.339  16.322 -0.4832 -0.3180  0.4109
18123TIP3    H175784   3.003   2.433  16.302 -2.9701 -0.6565 -1.2975
18123TIP3    H275785   3.091   2.310  16.289  0.0602  1.1989  0.4003
18124TIP3   OH275786   4.464   4.993   4.718  0.1161  0.8065  0.0656
18124TIP3    H175787   4.539   5.041   4.751  0.5225  1.3570 -1.5375
18124TIP3    H275788   4.501   4.913   4.681 -0.0575  1.1076 -0.7824
18125TIP3   OH275789   5.364   1.960  16.830 -0.4247 -0.5135 -0.1238
18125TIP3    H175790   5.268   1.954  16.834 -0.5765  1.4900  0.0045
18125TIP3    H275791   5.388   1.906  16.754 -1.9637  1.3171 -2.0459
18126TIP3   OH275792   2.034   3.732  11.317 -0.0508 -0.0661 -0.5879
18126TIP3    H175793   1.956   3.676  11.326 -0.5667  0.6762 -0.3761
18126TIP3    H275794   2.076   3.727  11.403  0.6018 -1.1178 -0.9411
18127TIP3   OH275795   2.540   3.010   0.423  0.2673 -0.2246  0.4678
18127TIP3    H175796   2.566   3.086   0.475 -1.0766 -0.5329  1.6397
18127TIP3    H275797   2.518   3.046   0.337  4.3103  0.0848 -0.6730
18128TIP3   OH275798   5.618   1.059  16.576 -0.0015  0.0824  0.4182
18128TIP3    H175799   5.535   1.103  16.595  0.7952  1.6698  0.3512
18128TIP3    H275800   5.677   1.090  16.644  0.7977 -0.2831 -0.0991
18129TIP3   OH275801   4.978   3.520   5.612 -0.1828  0.0168 -0.4379
18129TIP3    H175802   5.045   3.475   5.560  2.2013  1.3226  1.3476
18129TIP3    H275803   4.948   3.591   5.555  0.6538 -0.0022 -0.9253
18130TIP3   OH275804   5.078   2.741  12.326 -0.1960 -0.3002 -0.4731
18130TIP3    H175805   5.158   2.694  12.348  0.0388  0.2145 -0.2084
18130TIP3    H275806   5.031   2.747  12.409  1.0665  2.3707  0.1580
18131TIP3   OH275807   5.003   4.581   6.576 -0.0506 -0.1076 -0.0044
18131TIP3    H175808   4.930   4.522   6.560  1.1323 -1.9770  1.1265
18131TIP3    H275809   5.053   4.539   6.646  1.7544  1.4224 -0.2947
18132TIP3   OH275810   1.313   5.314  14.392  0.5511 -0.0300  0.2221
18132TIP3    H175811   1.355   5.398  14.414 -0.0324 -0.3066  2.6460
18132TIP3    H275812   1.278   5.283  14.475  0.6555 -2.6493 -0.6427
18133TIP3   OH275813   6.554   4.007  14.570  0.1075 -0.2864 -0.5732
18133TIP3    H175814   6.503   3.958  14.506  1.3467 -0.0983 -1.7754
18133TIP3    H275815   6.490   4.038  14.634 -1.3641  0.3982 -2.2879
18134TIP3   OH275816   6.361   5.715  14.897  0.1610 -0.2522 -0.1379
18134TIP3    H175817   6.266   5.722  14.892  0.0817 -1.5716 -0.9572
18134TIP3    H275818   6.392   5.805  14.895 -1.0860  0.2165  0.6788
18135TIP3   OH275819   6.285   1.825  12.600  0.2211  0.1741  0.0197
18135TIP3    H175820   6.266   1.761  12.668  0.7286 -0.6764 -0.6109
18135TIP3    H275821   6.374   1.854  12.618 -0.4340  1.6755  1.0356
18136TIP3   OH275822   3.135   1.995  16.687 -0.3062  0.0526  0.1007
18136TIP3    H175823   3.068   1.994  16.618 -0.9898 -1.1837  0.7573
18136TIP3    H275824   3.129   2.083  16.725 -1.9575 -0.2093  0.5196
18137TIP3   OH275825   1.347   6.051   5.582 -0.2289  0.2597 -0.6069
18137TIP3    H175826   1.314   6.081   5.498  0.4869  2.3474 -0.2181
18137TIP3    H275827   1.395   6.127   5.617  1.0993 -1.1651  0.8271
18138TIP3   OH275828   5.899   0.873   0.188 -0.0050 -0.1461 -0.6909
18138TIP3    H175829   5.949   0.834   0.117  1.8518  0.6511  0.1085
18138TIP3    H275830   5.840   0.935   0.145  0.3613 -0.4198 -1.6041
18139TIP3   OH275831   1.205   1.807   5.459  0.7534 -0.3861 -0.4386
18139TIP3    H175832   1.123   1.854   5.448  0.8628 -0.0909 -0.0118
18139TIP3    H275833   1.208   1.746   5.385  0.1446 -0.4143 -0.4427
18140TIP3   OH275834   1.578   5.817  17.016 -0.1491  0.0174 -0.0327
18140TIP3    H175835   1.521   5.801  16.941 -0.8097  1.1486  0.1951
18140TIP3    H275836   1.522   5.801  17.092  0.5429 -1.2203  0.2398
18141TIP3   OH275837   5.837   1.494   4.138  0.3177 -0.0079 -0.5976
18141TIP3    H175838   5.752   1.514   4.097 -0.1971 -0.2583  0.3116
18141TIP3    H275839   5.840   1.399   4.140  1.0869 -0.0178 -1.5286
18142TIP3   OH275840   4.270   1.903   0.408  0.1787  0.8316  0.0660
18142TIP3    H175841   4.269   1.841   0.335 -0.3378  0.8837  0.0254
18142TIP3    H275842   4.312   1.981   0.372  2.0947  0.0603  0.5015
18143TIP3   OH275843   4.127   4.419  13.584  0.7403  0.6306 -0.1038
18143TIP3    H175844   4.179   4.372  13.518  0.7466  0.8459 -0.2546
18143TIP3    H275845   4.106   4.353  13.650 -0.2517  0.1380 -0.9021
18144TIP3   OH275846   5.591   3.489  16.792  0.4973 -0.2486  0.0961
18144TIP3    H175847   5.519   3.525  16.844  0.9170  1.8303 -0.6590
18144TIP3    H275848   5.587   3.395  16.807 -0.1312  0.1354  2.9660
18145TIP3   OH275849   6.214   2.192   2.232  0.2134 -0.0551  0.1793
18145TIP3    H175850   6.207   2.132   2.158  1.1007  1.6064 -1.3393
18145TIP3    H275851   6.306   2.186   2.258  0.1370  0.0850  0.4813
18146TIP3   OH275852   1.730   5.506   0.139  0.0106  0.0392 -0.3982
18146TIP3    H175853   1.663   5.563   0.178  0.6282  0.2824  0.3266
18146TIP3    H275854   1.801   5.566   0.114 -0.0988 -0.1956 -1.3117
18147TIP3   OH275855   2.455   5.406  12.707 -0.5539 -0.1773 -0.0302
18147TIP3    H175856   2.381   5.452  12.747 -0.4655 -0.4724  0.4766
18147TIP3    H275857   2.432   5.313  12.713 -1.0101 -0.1919 -1.5956
18148TIP3   OH275858   5.493   0.304   4.834  0.1028  0.1275  0.2110
18148TIP3    H175859   5.421   0.350   4.792 -0.2746 -1.2323 -0.6904
18148TIP3    H275860   5.452   0.248   4.899  0.4377  0.1758  0.4670
18149TIP3   OH275861   0.783   4.978  13.483 -0.3494 -0.3072 -0.2351
18149TIP3    H175862   0.757   4.911  13.420  0.4145 -1.0154  0.1810
18149TIP3    H275863   0.823   5.046  13.431  1.2731 -1.3748 -0.4514
18150TIP3   OH275864   2.125   4.731  13.896  0.0122 -0.0138  0.1733
18150TIP3    H175865   2.051   4.772  13.851 -2.1449 -1.4084  2.2182
18150TIP3    H275866   2.126   4.641  13.864  1.2560  0.1291 -0.2621
18151TIP3   OH275867   6.506   5.565  15.086 -0.2827  0.1202 -0.3944
18151TIP3    H175868   6.454   5.596  15.012 -2.3595  1.4287  1.4782
18151TIP3    H275869   6.457   5.491  15.120  1.0017 -0.8942 -0.6530
18152TIP3   OH275870   5.318   4.872  16.509 -0.8008  0.1205 -0.0107
18152TIP3    H175871   5.347   4.868  16.600 -0.2155 -0.8185 -0.2191
18152TIP3    H275872   5.279   4.786  16.493  1.7252 -0.8405 -1.4808
18153TIP3   OH275873   4.566   3.141  11.736  0.4086 -0.1834  0.0360
18153TIP3    H175874   4.518   3.073  11.689 -0.3804 -0.0871  0.6795
18153TIP3    H275875   4.564   3.112  11.827  0.7742  0.2996  0.2024
18154TIP3   OH275876   1.787   3.870  14.449 -0.7317  0.0052 -0.5518
18154TIP3    H175877   1.736   3.814  14.508  1.3186 -0.6824  0.6994
18154TIP3    H275878   1.833   3.931  14.507  1.0134 -0.3941 -1.4340
18155TIP3   OH275879   5.531   3.463  15.688  0.2599 -0.2467 -0.0020
18155TIP3    H175880   5.531   3.545  15.639  0.3174  0.0690  0.5110
18155TIP3    H275881   5.518   3.490  15.779 -1.2990 -0.9101  0.0173
18156TIP3   OH275882   2.756   5.041  14.291 -0.4524  0.3603 -0.1592
18156TIP3    H175883   2.806   5.121  14.277  0.7123 -0.0839  1.1885
18156TIP3    H275884   2.665   5.071  14.296 -0.1973  1.3840 -1.1829
18157TIP3   OH275885   6.008   4.630   6.011  0.7560 -0.4666 -0.4436
18157TIP3    H175886   5.914   4.649   6.008  1.0176  0.9080 -0.5233
18157TIP3    H275887   6.016   4.557   6.072 -0.7177 -2.9914 -3.0034
18158TIP3   OH275888   5.766   1.838  15.168 -0.5426 -0.3816  0.5662
18158TIP3    H175889   5.823   1.914  15.154  0.9478 -1.4865  0.3992
18158TIP3    H275890   5.765   1.825  15.262 -2.7375  1.2177  0.8488
18159TIP3   OH275891   0.027   3.847  12.864  0.8004 -0.7655 -0.2914
18159TIP3    H175892   0.096   3.785  12.840  1.5551 -1.4079  3.0398
18159TIP3    H275893  -0.027   3.800  12.928 -0.7408  0.8535 -0.3195
18160TIP3   OH275894   2.374   0.717  15.259  0.2327  0.0132  0.1800
18160TIP3    H175895   2.333   0.742  15.342 -1.4177  1.2094 -0.9162
18160TIP3    H275896   2.464   0.749  15.266  0.5637 -1.1956  2.0323
18161TIP3   OH275897   6.555   2.856  16.621 -0.7537 -0.4090  0.3533
18161TIP3    H175898   6.572   2.934  16.674 -0.8200 -0.2967  0.2093
18161TIP3    H275899   6.579   2.783  16.678  0.5837 -0.2542  0.0371
18162TIP3   OH275900   4.026   0.253  16.447 -0.8253  0.4653  0.5924
18162TIP3    H175901   3.960   0.305  16.402 -0.2314  0.8414  0.1433
18162TIP3    H275902   4.084   0.222  16.377  0.0690  0.9977  1.0852
18163TIP3   OH275903   5.966   4.508  17.301 -0.1640 -0.2109  0.1602
18163TIP3    H175904   5.966   4.562  17.222  2.9515 -0.5229 -0.1701
18163TIP3    H275905   6.052   4.523  17.340 -1.0581 -1.2309  2.7180
18164TIP3   OH275906   1.395   1.649   4.690 -0.0407 -0.6780 -0.4357
18164TIP3    H175907   1.321   1.649   4.630  0.0145  1.3866 -0.5722
18164TIP3    H275908   1.449   1.576   4.661 -1.2489 -1.2658 -1.3004
18165TIP3   OH275909   3.837   0.214  17.111  0.2352  0.5230  0.4622
18165TIP3    H175910   3.888   0.183  17.185  0.0223 -0.2055  0.3080
18165TIP3    H275911   3.901   0.247  17.049  0.4851  0.1386  0.5139
18166TIP3   OH275912   0.880   4.206   5.140  0.0185 -0.0679  0.6877
18166TIP3    H175913   0.804   4.149   5.127 -0.9124  0.8724  1.7592
18166TIP3    H275914   0.884   4.259   5.061 -0.7973  0.2534  0.8495
18167TIP3   OH275915   2.913   0.925   4.387 -0.2551 -0.3519 -0.4060
18167TIP3    H175916   2.999   0.954   4.417 -0.2995 -0.8608  0.2331
18167TIP3    H275917   2.902   0.968   4.302  0.2604  0.3941 -0.1109
18168TIP3   OH275918   6.104   4.113   2.460 -0.4110 -0.0700 -0.2301
18168TIP3    H175919   6.068   4.091   2.546 -0.0646  0.0914 -0.0417
18168TIP3    H275920   6.040   4.078   2.398 -0.7229 -0.0889  0.0939
18169TIP3   OH275921   5.316   1.788   3.145  0.2748 -0.3619  0.2485
18169TIP3    H175922   5.334   1.821   3.233  2.0251 -1.4129  0.3195
18169TIP3    H275923   5.350   1.855   3.086  1.6714 -0.9283  0.3899
18170TIP3   OH275924   0.169   2.139  12.122  0.1548 -0.3948 -0.0608
18170TIP3    H175925   0.190   2.092  12.203  0.9421  1.8793  1.1573
18170TIP3    H275926   0.128   2.221  12.152  0.1625  0.3637 -1.9862
18171TIP3   OH275927   6.692   0.988   4.106  0.0183 -0.0232 -0.2185
18171TIP3    H175928   6.783   1.005   4.130 -0.0499  0.5955 -0.3959
18171TIP3    H275929   6.643   1.063   4.140 -0.2078  0.4339 -1.4949
18172TIP3   OH275930   3.490   1.326   3.023 -0.4307  0.0601  0.3610
18172TIP3    H175931   3.422   1.259   3.016 -1.6610  1.2973  0.1718
18172TIP3    H275932   3.489   1.370   2.939  0.6087  0.1133  0.3641
18173TIP3   OH275933   1.816   2.747  13.581  0.8237  0.1494 -0.7050
18173TIP3    H175934   1.838   2.785  13.496  0.1186  0.2621 -0.8421
18173TIP3    H275935   1.859   2.662  13.580 -1.2056 -0.9795 -2.2515
18174TIP3   OH275936   3.205   2.308  12.633  0.3566 -0.1230 -0.5750
18174TIP3    H175937   3.213   2.360  12.554  2.2215 -0.7478 -0.8528
18174TIP3    H275938   3.279   2.336  12.688  1.1882 -2.1402 -0.5806
18175TIP3   OH275939   5.381   0.689   0.965 -0.6491  0.2175  0.2060
18175TIP3    H175940   5.356   0.686   0.872 -1.3564 -1.5169  0.4156
18175TIP3    H275941   5.452   0.754   0.968  1.1207 -1.4319 -2.0049
18176TIP3   OH275942   3.871   3.043  12.564  0.1452 -0.0706 -0.3683
18176TIP3    H175943   3.830   3.120  12.603  2.0985  0.2252  1.2442
18176TIP3    H275944   3.953   3.075  12.528  0.6050 -1.2564 -0.4227
18177TIP3   OH275945   2.190   1.861   3.931  0.0129 -0.1381 -0.5903
18177TIP3    H175946   2.252   1.850   3.859 -0.7439  0.5686 -1.3823
18177TIP3    H275947   2.204   1.951   3.961  0.3263 -0.4312  0.1576
18178TIP3   OH275948   5.948   1.686  15.696  0.4535  0.2256  0.0677
18178TIP3    H175949   6.031   1.651  15.664  1.3082  1.7830  0.4786
18178TIP3    H275950   5.971   1.734  15.775 -0.7958  0.9554  0.0109
18179TIP3   OH275951   0.082   4.391  15.943 -0.5804  0.1301  0.0636
18179TIP3    H175952   0.086   4.471  15.890  0.7840  1.1717  1.5931
18179TIP3    H275953   0.114   4.419  16.029  0.9489 -2.2857  0.3792
18180TIP3   OH275954   0.231   3.990  16.459  0.2316  0.0101 -0.7293
18180TIP3    H175955   0.184   4.023  16.383  1.0535  1.4217 -0.6574
18180TIP3    H275956   0.227   4.062  16.523  1.1808 -0.4260 -0.1593
18181TIP3   OH275957   0.174   0.760  14.002  0.2000  0.2276  0.1170
18181TIP3    H175958   0.148   0.799  14.085  1.9028  1.5873  0.0506
18181TIP3    H275959   0.091   0.746  13.956 -0.7153  0.1591  1.6979
18182TIP3   OH275960   2.179   5.117  16.981  0.4470  0.0834  0.5399
18182TIP3    H175961   2.142   5.049  17.037 -1.2550  1.7507  1.5647
18182TIP3    H275962   2.116   5.125  16.909  0.5390  0.6593  0.5171
18183TIP3   OH275963   4.211   4.130  15.050  0.2837 -0.3203 -0.0461
18183TIP3    H175964   4.244   4.096  14.966 -0.6750  1.0975 -1.0239
18183TIP3    H275965   4.261   4.210  15.065 -1.3816  0.8715 -0.6331
18184TIP3   OH275966   2.540   2.086  15.250  0.4633  0.0460  0.1373
18184TIP3    H175967   2.555   2.180  15.251  0.6212  0.0556 -1.1045
18184TIP3    H275968   2.550   2.058  15.341  3.0978  0.8300  0.1675
18185TIP3   OH275969   3.665   4.146  14.095 -0.0042 -0.1171  0.0706
18185TIP3    H175970   3.686   4.160  14.003  0.9519  0.1869  0.3233
18185TIP3    H275971   3.598   4.077  14.094  0.4922 -0.6038 -0.8114
18186TIP3   OH275972   0.023   1.558   3.276 -0.4916  0.4009 -0.3326
18186TIP3    H175973   0.113   1.570   3.247 -0.6601  0.1647 -0.9854
18186TIP3    H275974   0.020   1.468   3.309 -1.0322 -0.4940 -2.5680
18187TIP3   OH275975   0.422   5.896  12.105 -0.3948 -0.0283 -0.1270
18187TIP3    H175976   0.443   5.844  12.182 -0.0007  0.4177  0.0703
18187TIP3    H275977   0.406   5.832  12.036 -4.1429 -0.6208  1.0948
18188TIP3   OH275978   1.117   2.401   0.045  0.0418  0.5697 -0.1950
18188TIP3    H175979   1.065   2.382   0.123 -1.2423  0.3921 -1.0617
18188TIP3    H275980   1.058   2.452  -0.011  1.4587  2.0647 -0.4054
18189TIP3   OH275981   5.394   5.009   0.844  0.1628 -0.2107 -0.0188
18189TIP3    H175982   5.452   4.940   0.812  0.2068  0.4903 -1.5621
18189TIP3    H275983   5.404   5.081   0.780  1.0259  1.7210  2.1562
18190TIP3   OH275984   3.167   5.804   3.455  0.1174 -0.2239  0.9575
18190TIP3    H175985   3.241   5.744   3.444  0.1430 -0.1981  0.9844
18190TIP3    H275986   3.199   5.868   3.519  1.1287  1.4618 -1.1214
18191TIP3   OH275987   5.664   4.864  14.634  0.2867  0.3303 -0.4314
18191TIP3    H175988   5.643   4.848  14.542  1.3334 -0.0724 -0.6172
18191TIP3    H275989   5.648   4.780  14.676  1.2384  0.0833 -0.5339
18192TIP3   OH275990   1.215   1.285  12.000 -0.3353  0.0101 -0.6808
18192TIP3    H175991   1.211   1.357  11.937 -1.2341 -0.0390 -0.6918
18192TIP3    H275992   1.309   1.274  12.018 -0.2045  1.9682  0.1972
18193TIP3   OH275993   1.011   6.560   0.192  0.3146  0.1092 -0.0004
18193TIP3    H175994   0.933   6.579   0.140  0.2600 -0.8001 -0.2633
18193TIP3    H275995   1.080   6.613   0.152 -0.5238  2.3970  1.3686
18194TIP3   OH275996   3.811   4.997  11.741 -0.1657  0.1265  0.5139
18194TIP3    H175997   3.849   5.084  11.744 -0.4824  0.3090 -0.3946
18194TIP3    H275998   3.816   4.965  11.831 -1.2960  1.6202  1.1462
18195TIP3   OH275999   5.875   1.159   2.253  0.3978  0.7117 -0.1122
18195TIP3    H176000   5.861   1.241   2.301 -0.9087 -0.3169  1.3588
18195TIP3    H276001   5.929   1.106   2.311  0.0784  0.0185 -0.4386
18196TIP3   OH276002   5.900   5.827   4.833  0.3671  0.0452  0.0914
18196TIP3    H176003   5.863   5.875   4.759 -1.4996 -0.0312  0.9358
18196TIP3    H276004   5.853   5.859   4.909  0.9434 -1.2307  1.0212
18197TIP3   OH276005   6.706   0.795  12.395 -0.1033  0.1506  0.2128
18197TIP3    H176006   6.767   0.859  12.432 -0.2143 -0.3392  1.2525
18197TIP3    H276007   6.648   0.771  12.467 -1.4616  0.5062 -0.7327
18198TIP3   OH276008   2.902   5.259   0.929 -0.0509 -0.1691  0.0956
18198TIP3    H176009   2.897   5.348   0.964 -0.5816 -0.3742  0.5446
18198TIP3    H276010   2.927   5.204   1.003 -2.5066 -0.8013  0.5312
18199TIP3   OH276011   2.938   5.157   1.711 -0.0189  0.4387  0.2512
18199TIP3    H176012   2.905   5.121   1.793 -1.6684 -1.1069 -1.0163
18199TIP3    H276013   2.955   5.249   1.731 -2.7128  0.7355  1.7300
18200TIP3   OH276014   1.344   5.503  11.189  0.3571 -0.6038  0.2604
18200TIP3    H176015   1.426   5.534  11.152  0.0210  3.6337  2.4116
18200TIP3    H276016   1.283   5.503  11.115  1.4483 -0.2303 -0.6646
18201TIP3   OH276017   0.780   3.395  15.894  0.1887 -0.0679  0.2993
18201TIP3    H176018   0.690   3.394  15.927  0.1436 -2.9774  0.3291
18201TIP3    H276019   0.828   3.340  15.955  2.0195  1.3465  0.2147
18202TIP3   OH276020   5.185   1.561   1.421  0.0770  0.1297 -0.1599
18202TIP3    H176021   5.266   1.601   1.454 -0.5363  1.0005  0.3627
18202TIP3    H276022   5.193   1.565   1.326  0.8490 -0.2354 -0.1195
18203TIP3   OH276023   3.421   5.910   1.302  0.2129 -0.2046 -0.3688
18203TIP3    H176024   3.453   5.983   1.356  0.5332  0.8934 -1.9506
18203TIP3    H276025   3.329   5.931   1.286  0.1013 -0.5604 -0.1947
18204TIP3   OH276026   2.222   5.275  13.468  0.5682  0.0549 -0.4643
18204TIP3    H176027   2.232   5.233  13.553  1.0697  0.2463 -0.4231
18204TIP3    H276028   2.253   5.210  13.405 -1.4936 -0.7907 -0.6820
18205TIP3   OH276029   1.691   5.435   2.892 -0.5143 -0.3104  0.3868
18205TIP3    H176030   1.660   5.352   2.928  2.2252 -1.1396  1.1089
18205TIP3    H276031   1.786   5.423   2.883 -0.1170  2.5077 -0.1269
18206TIP3   OH276032   4.213   0.964  12.611 -0.1567 -0.0227 -0.0656
18206TIP3    H176033   4.199   0.870  12.603  4.2042 -0.7599 -1.2852
18206TIP3    H276034   4.188   1.000  12.526  1.4375 -0.7057 -0.8694
18207TIP3   OH276035   5.272   1.468  11.580 -0.3139 -0.0655 -0.0498
18207TIP3    H176036   5.210   1.521  11.630  2.2396  1.1943  2.0338
18207TIP3    H276037   5.320   1.532  11.527 -0.0957 -0.8856 -0.8595
18208TIP3   OH276038   4.644   2.399   3.138  0.3732  0.0992  0.2235
18208TIP3    H176039   4.715   2.376   3.197 -0.0870  0.9534  1.1334
18208TIP3    H276040   4.612   2.483   3.170 -1.4048 -0.5124  0.1681
18209TIP3   OH276041   5.641   4.172  13.742  0.1268  0.9706  0.0396
18209TIP3    H176042   5.609   4.246  13.794 -3.4810 -1.1831  1.2396
18209TIP3    H276043   5.615   4.194  13.652 -0.8484  1.2556  0.3718
18210TIP3   OH276044   1.686   0.961   2.354  0.6276  0.2223 -0.0743
18210TIP3    H176045   1.605   0.965   2.405  1.4028  2.3128  1.1200
18210TIP3    H276046   1.749   0.919   2.412  0.7923  0.0235 -0.3960
18211TIP3   OH276047   4.262   1.765  15.613 -0.1211 -0.1025  0.3946
18211TIP3    H176048   4.212   1.749  15.693  0.2454  0.7946  0.8194
18211TIP3    H276049   4.291   1.856  15.621 -1.6032  0.6079 -1.5915
18212TIP3   OH276050   3.700   0.122  15.240 -0.3730 -0.2765  0.0086
18212TIP3    H176051   3.623   0.171  15.215 -0.1109  0.7795  1.1559
18212TIP3    H276052   3.738   0.172  15.312  0.6627 -1.4547  0.3243
18213TIP3   OH276053   1.324   3.370  11.417 -0.1610 -0.0428 -0.2753
18213TIP3    H176054   1.321   3.276  11.398  1.5081 -0.2029  0.0891
18213TIP3    H276055   1.320   3.375  11.512 -1.0525  0.3120 -0.3280
18214TIP3   OH276056   0.965   2.874  12.279  0.1180 -0.7663 -0.8397
18214TIP3    H176057   0.880   2.877  12.324  0.0964  0.8797 -0.9489
18214TIP3    H276058   1.010   2.953  12.308  0.9491 -0.7597 -2.1018
18215TIP3   OH276059   0.318   1.832   3.084 -0.0797  0.8548  0.2856
18215TIP3    H176060   0.354   1.921   3.076 -0.7905  1.1304  0.0983
18215TIP3    H276061   0.230   1.838   3.047 -0.2829  0.1623  0.6357
18216TIP3   OH276062   6.368   5.816   1.384 -0.1905  0.1187 -0.3666
18216TIP3    H176063   6.372   5.898   1.433  0.1486  0.0300 -0.2473
18216TIP3    H276064   6.331   5.842   1.299 -1.8370  0.0893  0.3045
18217TIP3   OH276065   5.837   2.830  10.827 -0.3426  0.1877 -0.7831
18217TIP3    H176066   5.906   2.764  10.835  0.4653  0.9944 -1.0214
18217TIP3    H276067   5.786   2.802  10.751 -0.6942 -0.7696 -0.2252
18218TIP3   OH276068   2.032   4.006  11.588 -0.6877  0.0979 -0.1107
18218TIP3    H176069   1.949   3.997  11.634 -0.6188  0.8483  0.1709
18218TIP3    H276070   2.053   4.099  11.593  1.0882 -0.3177  1.4316
18219TIP3   OH276071   1.408   2.711   2.806 -0.3074  0.3429 -0.2651
18219TIP3    H176072   1.502   2.703   2.787  0.0733  0.8492  1.2588
18219TIP3    H276073   1.374   2.766   2.736  0.8837  1.5816  0.0970
18220TIP3   OH276074   0.802   0.551   4.432 -0.0322  0.0512 -0.0409
18220TIP3    H176075   0.874   0.514   4.381  0.5947  1.3139 -0.0937
18220TIP3    H276076   0.731   0.486   4.424  2.0870 -2.9601  2.7305
18221TIP3   OH276077   5.565   2.052  12.903  0.3820  0.1442  0.2616
18221TIP3    H176078   5.601   1.967  12.876  4.4360  1.0559  1.9908
18221TIP3    H276079   5.497   2.030  12.966  0.0943 -1.7832 -0.6326
18222TIP3   OH276080   4.718   3.732  10.867  0.2344  0.5984 -0.5530
18222TIP3    H176081   4.718   3.765  10.778  0.6069 -1.7570 -1.4875
18222TIP3    H276082   4.807   3.750  10.900 -0.0558  1.9074 -0.4549
18223TIP3   OH276083   2.553   3.366  11.094  0.0301 -0.2325  0.1976
18223TIP3    H176084   2.561   3.446  11.147 -1.1139  1.7974 -2.4179
18223TIP3    H276085   2.641   3.349  11.062  0.3330 -0.2078  0.9860
18224TIP3   OH276086   0.781   5.792  12.465 -0.0740 -0.2479 -0.6046
18224TIP3    H176087   0.726   5.858  12.507 -1.5760 -2.5805  1.4332
18224TIP3    H276088   0.866   5.800  12.509  0.2054  1.1893 -1.3725
18225TIP3   OH276089   3.327   1.751   4.418  0.0850  0.0420  0.2979
18225TIP3    H176090   3.396   1.746   4.352  0.0712  0.8164  0.2159
18225TIP3    H276091   3.362   1.809   4.485 -2.2107  4.5867 -1.9592
18226TIP3   OH276092   2.645   2.763  13.073 -0.1247  0.5306  0.4335
18226TIP3    H176093   2.693   2.735  12.996 -0.1645  0.6224  0.3760
18226TIP3    H276094   2.689   2.844  13.101  0.6610 -0.1434  1.2218
18227TIP3   OH276095   4.698   4.300  15.026  0.2132 -0.1528 -0.2680
18227TIP3    H176096   4.634   4.334  15.089  0.1385 -0.0405 -0.4057
18227TIP3    H276097   4.650   4.233  14.978  0.7736 -1.5279  1.0059
18228TIP3   OH276098   5.971   2.042  13.720 -0.0811 -0.1302  0.1242
18228TIP3    H176099   6.032   2.018  13.790 -1.5558 -1.5624  0.9890
18228TIP3    H276100   5.885   2.043  13.763 -0.7679  1.2446 -1.1870
18229TIP3   OH276101   2.915   2.818  12.908 -0.4549 -0.1134  0.0085
18229TIP3    H176102   2.860   2.750  12.869  0.0928 -0.6266  0.1080
18229TIP3    H276103   3.005   2.794  12.883 -0.2135  0.2906  0.4598
18230TIP3   OH276104   0.753   4.978   5.889 -0.0220  0.1774 -0.1797
18230TIP3    H176105   0.765   4.932   5.972  0.1470  0.5367 -0.0040
18230TIP3    H276106   0.799   4.923   5.825  1.1298  0.6622  0.2103
18231TIP3   OH276107   1.666   3.326   4.054  0.5093  0.2995 -0.4419
18231TIP3    H176108   1.675   3.264   3.982  3.0538 -1.2264  1.0631
18231TIP3    H276109   1.575   3.355   4.049 -0.7078 -3.2583 -1.4704
18232TIP3   OH276110   1.760   5.245   0.715  0.2710  0.1270  0.2215
18232TIP3    H176111   1.852   5.271   0.703  0.3000  0.4196  1.0358
18232TIP3    H276112   1.747   5.246   0.810 -0.7103  0.5830  0.0909
18233TIP3   OH276113   6.720   4.281   1.344  0.2362 -0.2922  0.9404
18233TIP3    H176114   6.699   4.370   1.316  0.8895 -0.1673  0.8359
18233TIP3    H276115   6.635   4.238   1.353 -0.0888  0.3727  1.0954
18234TIP3   OH276116   4.749   5.735   3.896 -0.2039  0.0100 -0.0425
18234TIP3    H176117   4.769   5.654   3.943  2.0143  2.0498  2.9280
18234TIP3    H276118   4.823   5.747   3.837 -2.3517 -1.8538 -3.4480
18235TIP3   OH276119   5.762   5.930  13.006  0.3694  0.6138  0.7672
18235TIP3    H176120   5.687   5.980  12.973 -0.1251 -0.1600  0.7102
18235TIP3    H276121   5.811   5.905  12.927  0.8632  1.3614  0.8185
18236TIP3   OH276122   0.301   4.355  14.773 -0.6256  0.0392 -0.7125
18236TIP3    H176123   0.272   4.376  14.684 -1.6688  0.4848 -0.2774
18236TIP3    H276124   0.293   4.260  14.779 -2.3271  0.1738 -0.5112
18237TIP3   OH276125   6.347   4.078   1.798 -0.2116  0.1257  0.0572
18237TIP3    H176126   6.344   3.989   1.763 -1.4221  0.2568 -0.2028
18237TIP3    H276127   6.387   4.068   1.884  0.7104 -0.5065 -0.4220
18238TIP3   OH276128   3.786   5.105  17.290  0.3599  0.5277 -0.3766
18238TIP3    H176129   3.732   5.068  17.360  2.2175 -1.1712  0.2671
18238TIP3    H276130   3.871   5.062  17.301  1.0815  1.1536 -2.9277
18239TIP3   OH276131   3.092   4.631   2.512 -0.6428 -0.6098  1.0244
18239TIP3    H176132   3.157   4.700   2.518 -0.8060 -0.3845  0.3853
18239TIP3    H276133   3.017   4.673   2.469 -0.2970 -1.4682 -0.5198
18240TIP3   OH276134   3.834   3.006   3.976  0.2310  0.5963  0.0214
18240TIP3    H176135   3.821   3.031   3.884 -0.0559  1.6330  0.3327
18240TIP3    H276136   3.752   2.965   4.002  0.2809  0.3808 -0.1609
18241TIP3   OH276137   3.155   2.238  16.843 -0.5655 -0.5306  0.0837
18241TIP3    H176138   3.191   2.309  16.791 -0.7388 -0.4483  0.0768
18241TIP3    H276139   3.089   2.279  16.898  0.1043 -0.4912  0.8801
18242TIP3   OH276140   2.567   0.088   0.741  0.0935  0.0315  0.1434
18242TIP3    H176141   2.533   0.156   0.682 -1.8528  0.5986  1.7823
18242TIP3    H276142   2.652   0.121   0.770  0.9122 -0.0916 -2.0045
18243TIP3   OH276143   5.203   2.178  16.305  0.1207 -0.1176  0.0278
18243TIP3    H176144   5.167   2.098  16.269  0.0638  0.2901 -0.8378
18243TIP3    H276145   5.209   2.238  16.231  1.6814  0.1455  0.3243
18244TIP3   OH276146   3.387   3.133   1.126  0.3238 -0.6821 -0.0580
18244TIP3    H176147   3.414   3.137   1.218 -0.5705  1.0947  0.1757
18244TIP3    H276148   3.305   3.182   1.123  0.2973 -0.7732 -1.8009
18245TIP3   OH276149   3.975   4.215  16.802  0.6868 -1.1880 -0.1081
18245TIP3    H176150   4.063   4.219  16.841  0.3605 -1.6078  0.6855
18245TIP3    H276151   3.987   4.164  16.722  1.3594 -0.3334 -0.5785
18246TIP3   OH276152   5.041   5.799   1.729  0.1019  0.3969 -0.4371
18246TIP3    H176153   5.098   5.765   1.659  0.3702 -0.2499  0.0837
18246TIP3    H276154   5.092   5.786   1.809  0.2103  2.0404 -0.2095
18247TIP3   OH276155   2.047   6.395  14.250  0.4132  0.1129 -0.3932
18247TIP3    H176156   2.123   6.344  14.277  1.2310  1.1053 -0.7826
18247TIP3    H276157   1.972   6.338  14.267  1.3485 -1.4951 -1.5260
18248TIP3   OH276158   3.130   1.450   1.193  0.4399  0.2169 -0.4670
18248TIP3    H176159   3.039   1.442   1.163 -0.0954  1.9864  0.5466
18248TIP3    H276160   3.182   1.441   1.114 -0.4228 -2.9436 -0.8233
18249TIP3   OH276161   3.225   2.374   2.684 -0.6900 -0.0146  0.2019
18249TIP3    H176162   3.268   2.426   2.616 -1.4717 -0.3579 -0.5745
18249TIP3    H276163   3.275   2.392   2.763 -0.7512  1.7060 -0.0954
18250TIP3   OH276164   4.923   5.991  12.265 -0.4844 -0.2029  0.0556
18250TIP3    H176165   4.959   6.080  12.264 -2.1777  0.5508  1.0409
18250TIP3    H276166   4.837   6.001  12.306 -2.0075 -1.8257 -2.4752
18251TIP3   OH276167   5.336   4.760  11.941 -0.5319  0.2274 -0.5188
18251TIP3    H176168   5.371   4.737  11.855  0.4523  1.0770 -0.3636
18251TIP3    H276169   5.354   4.684  11.996  0.4747  0.3927 -0.6114
18252TIP3   OH276170   6.549   0.173  14.651 -0.4698  0.1901  0.2211
18252TIP3    H176171   6.617   0.199  14.712  1.6853 -0.4157 -1.7556
18252TIP3    H276172   6.524   0.085  14.678  0.5542 -0.1209  0.2040
18253TIP3   OH276173   0.098   2.481  13.084  0.4230 -0.4197  0.0080
18253TIP3    H176174   0.143   2.458  13.166 -1.3862 -0.0060  1.1656
18253TIP3    H276175   0.072   2.572  13.097 -0.3743 -0.5309 -0.8014
18254TIP3   OH276176   3.429   2.448   0.883 -0.4552  0.0391 -0.5620
18254TIP3    H176177   3.360   2.408   0.936 -1.4459  1.6142 -0.5877
18254TIP3    H276178   3.491   2.483   0.948 -0.8433  0.5689 -0.4702
18255TIP3   OH276179   2.211   1.330  14.939 -0.2106 -0.2402 -0.4080
18255TIP3    H176180   2.266   1.296  14.869  2.2760  1.4303  0.5587
18255TIP3    H276181   2.165   1.253  14.974 -0.1969 -1.3567 -2.7001
18256TIP3   OH276182   6.307   5.207   0.997 -0.0321 -0.0041  0.0606
18256TIP3    H176183   6.353   5.178   0.918  0.2983  0.1353  0.1968
18256TIP3    H276184   6.237   5.143   1.010 -1.5038  1.2012 -1.5903
18257TIP3   OH276185   0.703   5.649  15.279 -0.6601  0.6618 -0.3792
18257TIP3    H176186   0.694   5.556  15.259  1.8248 -0.2292  2.0157
18257TIP3    H276187   0.656   5.660  15.362  0.1610  1.1937  0.0341
18258TIP3   OH276188   5.630   4.905   2.275  0.0969 -0.0237  0.5474
18258TIP3    H176189   5.724   4.895   2.286  0.4159  1.9368 -0.0146
18258TIP3    H276190   5.593   4.821   2.302  2.1362 -1.5841 -1.1609
18259TIP3   OH276191   6.637   5.109   4.581 -0.1253  0.1840 -0.1919
18259TIP3    H176192   6.555   5.124   4.629  0.4257 -0.7880  1.0973
18259TIP3    H276193   6.706   5.129   4.644  0.6323  0.5475 -1.1269
18260TIP3   OH276194   1.779   4.688   6.219 -0.1944  0.0524  0.4592
18260TIP3    H176195   1.695   4.642   6.227  0.4403 -2.0696 -3.1526
18260TIP3    H276196   1.845   4.624   6.243  0.5398  0.9538  0.9379
18261TIP3   OH276197   0.051   5.343  13.144  0.3048  0.3728  0.3420
18261TIP3    H176198   0.074   5.271  13.085 -0.5279 -0.7654  1.3409
18261TIP3    H276199   0.119   5.341  13.212  0.0926  0.3122  0.5531
18262TIP3   OH276200   3.601   4.196  13.564 -0.8634  0.3385  0.0801
18262TIP3    H176201   3.656   4.120  13.542 -2.3752 -1.3966  1.8087
18262TIP3    H276202   3.643   4.234  13.641 -1.9524 -0.9550  1.3683
18263TIP3   OH276203   1.527   4.553   4.263  0.3807  0.1937  0.2871
18263TIP3    H176204   1.514   4.606   4.184 -0.4619  0.6028  0.6822
18263TIP3    H276205   1.525   4.463   4.231  1.0067  0.3708 -0.2826
18264TIP3   OH276206   4.829   3.246  16.021  0.0274 -0.0604  0.1089
18264TIP3    H176207   4.797   3.256  16.111 -2.4979  0.0397 -0.7233
18264TIP3    H276208   4.796   3.324  15.975  0.9701 -0.2858 -0.9939
18265TIP3   OH276209   1.405   3.413  13.875  0.0043  0.2837  0.2310
18265TIP3    H176210   1.479   3.365  13.837  0.7936  1.7293 -0.1780
18265TIP3    H276211   1.402   3.494  13.824 -1.7120  0.3767  0.4302
18266TIP3   OH276212   0.616   5.652   2.799 -0.1068 -0.0146  0.0546
18266TIP3    H176213   0.690   5.660   2.738  0.3025  0.5463  0.6104
18266TIP3    H276214   0.595   5.558   2.798  2.4986 -0.7293  2.0449
18267TIP3   OH276215   0.005   6.194   2.142  0.3430  0.3452 -0.0341
18267TIP3    H176216   0.036   6.119   2.191 -0.9189 -0.7532 -0.8650
18267TIP3    H276217   0.048   6.187   2.057  0.3967  0.6971 -0.0403
18268TIP3   OH276218   0.195   4.599   5.524 -0.3222 -0.0152  0.3012
18268TIP3    H176219   0.185   4.510   5.491 -0.0037  0.3129 -0.7093
18268TIP3    H276220   0.288   4.608   5.543  0.0137  0.6938 -1.4387
18269TIP3   OH276221   0.538   4.288  13.885 -0.1819 -1.0308 -0.1450
18269TIP3    H176222   0.536   4.372  13.839  1.7652 -1.6420 -1.4885
18269TIP3    H276223   0.490   4.228  13.828 -1.3648 -0.9116  0.6967
18270TIP3   OH276224   3.545   3.458  12.572  0.0602 -0.5860  0.8678
18270TIP3    H176225   3.513   3.368  12.571  0.9407 -0.9181 -0.4814
18270TIP3    H276226   3.506   3.497  12.494  1.0712 -0.3201  0.4890
18271TIP3   OH276227   4.308   1.952   2.175  0.1128  0.3242 -0.1940
18271TIP3    H176228   4.351   2.013   2.234 -0.6977  0.8669 -0.1464
18271TIP3    H276229   4.234   2.001   2.138 -1.0050 -0.8353  0.4123
18272TIP3   OH276230   3.695   2.443  12.954  0.2449  0.2825  0.8256
18272TIP3    H176231   3.654   2.514  13.003 -1.8124 -0.8867  0.9179
18272TIP3    H276232   3.718   2.378  13.020  0.0748 -0.0892  0.5254
18273TIP3   OH276233   5.266   4.275   4.738 -0.3860  0.1914  0.1019
18273TIP3    H176234   5.292   4.261   4.829 -1.3749 -1.9838  0.1233
18273TIP3    H276235   5.170   4.277   4.740 -0.4340 -0.2061 -0.9234
18274TIP3   OH276236   1.239   5.041   3.421 -0.1365  0.1165 -0.6944
18274TIP3    H176237   1.268   5.127   3.389 -0.5350  0.7750  0.6569
18274TIP3    H276238   1.186   5.006   3.349 -1.0721  1.5931 -0.7711
18275TIP3   OH276239   0.533   1.288  15.311 -0.6228  0.8142 -0.6079
18275TIP3    H176240   0.499   1.378  15.315 -2.1600  0.2357 -0.1431
18275TIP3    H276241   0.464   1.239  15.267 -0.9122 -0.6322  1.3385
18276TIP3   OH276242   3.542   3.271   2.682 -0.3881 -0.0512  0.1017
18276TIP3    H176243   3.628   3.285   2.642 -0.7099 -0.2719 -0.6925
18276TIP3    H276244   3.508   3.359   2.699 -1.0018  0.1198 -1.8001
18277TIP3   OH276245   1.574   4.970   5.304  0.5649 -0.0925 -0.3997
18277TIP3    H176246   1.590   4.973   5.210  1.2226  1.9047 -0.2653
18277TIP3    H276247   1.497   5.025   5.318  0.3440 -0.5392  0.2331
18278TIP3   OH276248   6.496   5.115  15.135 -0.2592 -0.3302  0.2303
18278TIP3    H176249   6.566   5.178  15.152  1.3525 -1.5863 -1.3065
18278TIP3    H276250   6.500   5.101  15.040 -1.7824 -1.3843  0.2922
18279TIP3   OH276251   1.935   4.075   4.226  0.6883  0.3196  0.6357
18279TIP3    H176252   2.020   4.032   4.229  0.5441 -0.1354 -0.8029
18279TIP3    H276253   1.955   4.168   4.234  1.3997  0.2693 -0.3612
18280TIP3   OH276254   5.273   6.613   0.279  0.2919  0.2598  0.1514
18280TIP3    H176255   5.194   6.593   0.227  0.9399  0.2721 -0.8770
18280TIP3    H276256   5.272   6.548   0.349  0.4938 -1.1742 -1.1104
18281TIP3   OH276257   3.066   4.932  16.641  0.2016  0.1690 -0.8542
18281TIP3    H176258   3.028   5.003  16.692  1.0511 -0.2753  0.4767
18281TIP3    H276259   2.993   4.874  16.621  0.1508 -1.2885  2.6506
18282TIP3   OH276260   3.929   0.690  11.430 -0.4444  0.5759  0.3636
18282TIP3    H176261   3.940   0.635  11.353  0.3366  2.3866 -0.8873
18282TIP3    H276262   3.936   0.630  11.504 -0.0051 -1.0324 -0.9352
18283TIP3   OH276263   4.962   2.793   2.352  0.0744 -0.3475 -0.1034
18283TIP3    H176264   4.903   2.866   2.339  0.5659  0.0876  0.0749
18283TIP3    H276265   4.905   2.720   2.376 -0.6890 -0.7083 -2.7480
18284TIP3   OH276266   4.541   0.989  14.448  0.3103 -0.2381  0.2796
18284TIP3    H176267   4.502   0.929  14.384 -0.8297 -0.5812  1.2792
18284TIP3    H276268   4.589   0.933  14.508 -1.0687 -0.2110  1.4386
18285TIP3   OH276269   3.048   0.697   5.640  0.1392  0.1876 -0.4073
18285TIP3    H176270   3.053   0.635   5.713  0.7602  0.1052 -0.5159
18285TIP3    H276271   3.113   0.764   5.661 -0.8976  1.1188 -0.0149
18286TIP3   OH276272   1.555   3.798   2.589 -0.1535  0.1361 -0.0481
18286TIP3    H176273   1.480   3.798   2.649 -0.8174  0.4957 -0.8439
18286TIP3    H276274   1.611   3.728   2.620  0.7352  1.8084  2.4420
18287TIP3   OH276275   1.972   6.209   2.718 -0.2687 -0.2282  0.3667
18287TIP3    H176276   2.006   6.249   2.637 -1.0611  1.7119  0.9277
18287TIP3    H276277   1.877   6.216   2.710 -0.3533  0.2403  1.5569
18288TIP3   OH276278   5.983   3.475   4.557 -0.2036 -0.1999 -0.1693
18288TIP3    H176279   5.984   3.382   4.582 -0.5416  0.2518  1.6558
18288TIP3    H276280   5.924   3.516   4.619  0.2155  1.3249 -0.7295
18289TIP3   OH276281   1.011   6.407   3.889 -0.2913  0.3623  0.3733
18289TIP3    H176282   1.089   6.425   3.941 -0.7892  2.1814  0.5631
18289TIP3    H276283   0.949   6.369   3.952  0.2460 -0.5796  0.3409
18290TIP3   OH276284   1.932   4.213   3.398 -0.2237  1.0424 -0.5354
18290TIP3    H176285   1.855   4.261   3.429 -0.5871 -0.4114  0.9927
18290TIP3    H276286   2.007   4.260   3.435 -0.5665  0.5599  0.8435
18291TIP3   OH276287   4.375   4.523   1.412 -0.4756 -0.2776 -0.1169
18291TIP3    H176288   4.447   4.550   1.468  1.1646 -0.7669 -1.8563
18291TIP3    H276289   4.334   4.604   1.382  0.2250  0.0626 -0.1570
18292TIP3   OH276290   0.779   1.783  16.731  0.1491  0.3026  0.3775
18292TIP3    H176291   0.814   1.739  16.809  0.6386  0.1106  0.0560
18292TIP3    H276292   0.746   1.711  16.677 -1.8793  0.5542  1.1980
18293TIP3   OH276293   5.026   3.414  12.981 -0.0393  0.2007  0.3435
18293TIP3    H176294   5.091   3.477  12.950 -1.1769  0.0580 -2.6681
18293TIP3    H276295   5.069   3.369  13.053  1.5479  3.0285  1.2999
18294TIP3   OH276296   2.275   6.247   5.952  0.4141 -0.6322  0.0595
18294TIP3    H176297   2.299   6.295   5.873 -1.4509 -1.7428 -1.2601
18294TIP3    H276298   2.236   6.313   6.009  2.0584  0.2415  0.2498
18295TIP3   OH276299   6.597   0.015   0.280  0.1793 -0.4420  0.0375
18295TIP3    H176300   6.687   0.043   0.296  0.1538 -1.2582  1.7743
18295TIP3    H276301   6.544   0.074   0.334 -0.1180 -1.6133  1.0575
18296TIP3   OH276302   1.307   6.337   1.334  0.0682 -0.2477  0.3396
18296TIP3    H176303   1.279   6.426   1.312  0.6334  0.0466  0.7837
18296TIP3    H276304   1.239   6.304   1.393  1.0768  0.8207  2.2067
18297TIP3   OH276305   1.386   4.345  12.096  1.0189  0.5140  0.0941
18297TIP3    H176306   1.424   4.317  12.180 -0.1304  0.8661  0.7557
18297TIP3    H276307   1.459   4.341  12.034  2.2677  1.6422  1.4183
18298TIP3   OH276308   0.321   1.673   4.873  0.2054  0.2791  0.1649
18298TIP3    H176309   0.242   1.624   4.896 -0.7845  1.5498 -0.3810
18298TIP3    H276310   0.298   1.764   4.890  1.2334  0.7587 -0.8824
18299TIP3   OH276311   0.602   0.759   4.815  0.5790 -0.7117  0.4351
18299TIP3    H176312   0.605   0.743   4.910  1.0045 -2.8140  0.1174
18299TIP3    H276313   0.693   0.761   4.788  0.5343  1.7569  0.2903
18300TIP3   OH276314   5.113   6.299  16.398 -0.0931 -0.3117  0.9780
18300TIP3    H176315   5.094   6.349  16.318  0.9021 -0.6200  0.5353
18300TIP3    H276316   5.066   6.346  16.467 -0.4143  0.3550  0.3194
18301TIP3   OH276317   2.998   1.189  13.974  0.2622  0.2895 -0.1611
18301TIP3    H176318   3.002   1.102  13.935 -0.9534 -0.1883  0.7306
18301TIP3    H276319   3.080   1.197  14.024  1.4135  0.5592 -2.0039
18302TIP3   OH276320   1.468   1.013   4.482 -0.0658  1.0240 -0.1979
18302TIP3    H176321   1.516   0.959   4.545 -1.8774 -0.0436  0.3584
18302TIP3    H276322   1.437   1.088   4.533  0.4202  1.3774 -0.4068
18303TIP3   OH276323   6.083   6.359   1.862 -0.6169 -0.5512  0.1051
18303TIP3    H176324   6.129   6.435   1.827 -0.9545 -0.5961 -0.4437
18303TIP3    H276325   6.153   6.302   1.894 -0.4045  1.1772  3.1459
18304TIP3   OH276326   1.066   5.667  16.378 -0.5480 -0.8028 -0.0787
18304TIP3    H176327   1.080   5.636  16.468 -0.0990  2.1216  0.9767
18304TIP3    H276328   0.971   5.665  16.366 -0.7069 -0.0738  0.9380
18305TIP3   OH276329   4.925   5.864  16.162 -0.0607 -0.0856  0.4522
18305TIP3    H176330   4.999   5.893  16.215 -0.8958  1.7111  0.7140
18305TIP3    H276331   4.964   5.837  16.079  1.0505 -0.9046  1.2144
18306TIP3   OH276332   1.650   3.270  15.686  0.0856 -0.5369 -0.6462
18306TIP3    H176333   1.582   3.334  15.667 -0.2494 -0.6252  0.2164
18306TIP3    H276334   1.700   3.309  15.757  1.6393  0.0244 -1.9771
18307TIP3   OH276335   3.971   3.992  15.413  0.3343  0.4290  0.4667
18307TIP3    H176336   3.971   3.977  15.319  0.2277 -0.6097  0.6118
18307TIP3    H276337   3.894   4.046  15.430 -1.6358 -2.1491  0.3175
18308TIP3   OH276338   5.401   1.235  11.112  0.1016 -0.0611  0.2316
18308TIP3    H176339   5.457   1.242  11.189  2.2070  2.2898 -1.3681
18308TIP3    H276340   5.363   1.322  11.101  0.9356  0.0750 -2.1098
18309TIP3   OH276341   3.693   5.270  14.849  0.9021  0.8932  0.4369
18309TIP3    H176342   3.704   5.345  14.908  0.7230  0.2273  1.3528
18309TIP3    H276343   3.742   5.293  14.770  2.5928  1.1314  1.4891
18310TIP3   OH276344   5.363   3.806   2.348  0.3407  0.1015  0.0442
18310TIP3    H176345   5.418   3.744   2.300 -0.2646 -0.2711 -0.1736
18310TIP3    H276346   5.390   3.892   2.316  2.7549  0.1545  1.9233
18311TIP3   OH276347   3.074   0.478  13.831  0.1479 -0.5269  0.1777
18311TIP3    H176348   3.001   0.498  13.890  1.0041  0.0097  1.0666
18311TIP3    H276349   3.063   0.538  13.758 -0.8332 -1.0920 -0.1670
18312TIP3   OH276350   5.847   0.789   1.011 -0.3278  0.2807 -0.0797
18312TIP3    H176351   5.806   0.760   1.093 -0.9193 -0.2807 -0.5690
18312TIP3    H276352   5.810   0.732   0.944  0.6703  0.2838 -0.6459
18313TIP3   OH276353   1.762   3.174   6.607  0.0018 -0.0072  0.3420
18313TIP3    H176354   1.799   3.087   6.597 -1.4293 -0.6998  0.8491
18313TIP3    H276355   1.836   3.233   6.594  0.8378 -1.2552 -0.7989
18314TIP3   OH276356   1.529   2.776  11.604 -0.3663  0.1843 -0.3777
18314TIP3    H176357   1.598   2.716  11.634  0.4797  0.5968 -1.4725
18314TIP3    H276358   1.485   2.729  11.533 -0.0404  0.6546 -0.8900
18315TIP3   OH276359   2.428   2.899  11.637  0.1639 -0.1551  0.4951
18315TIP3    H176360   2.336   2.893  11.659 -0.1874  0.7964 -0.5876
18315TIP3    H276361   2.463   2.811  11.653 -0.8367 -0.4317  1.2505
18316TIP3   OH276362   4.961   2.666  15.931  0.0030  0.6550  0.6233
18316TIP3    H176363   5.003   2.605  15.991 -1.0521  1.1048  1.8796
18316TIP3    H276364   4.947   2.745  15.984  3.4697  2.9776 -1.5594
18317TIP3   OH276365   5.223   6.761  13.474 -0.6222  0.0382 -0.3746
18317TIP3    H176366   5.240   6.692  13.409  1.0863  0.9497 -0.9449
18317TIP3    H276367   5.285   6.830  13.453 -2.6316  2.0339 -0.1515
18318TIP3   OH276368   0.257   1.522   1.188 -0.0781 -0.0286 -0.4630
18318TIP3    H176369   0.221   1.459   1.250 -1.3175  2.6455  1.7450
18318TIP3    H276370   0.346   1.538   1.218 -0.0216 -0.1579 -0.5610
18319TIP3   OH276371   3.356   4.557  16.179  0.2276  0.3779 -0.0180
18319TIP3    H176372   3.333   4.561  16.086  1.9160  0.2269 -0.4801
18319TIP3    H276373   3.275   4.579  16.225 -0.5702  0.7375 -1.5241
18320TIP3   OH276374   2.254   1.399  16.741 -0.0751 -0.7999  0.1832
18320TIP3    H176375   2.227   1.461  16.808 -0.3547 -0.1361 -0.5300
18320TIP3    H276376   2.172   1.365  16.706  0.0394 -0.3396 -0.5529
18321TIP3   OH276377   5.121   3.459   0.639 -0.4292  0.3060  0.1783
18321TIP3    H176378   5.198   3.511   0.663 -0.8259  0.6057  0.8287
18321TIP3    H276379   5.049   3.522   0.636 -0.4824  0.1972 -1.3845
18322TIP3   OH276380   0.873   1.690  11.399 -0.0758  0.1377  0.5063
18322TIP3    H176381   0.905   1.733  11.479  0.2943  0.2674  0.2918
18322TIP3    H276382   0.913   1.740  11.328  0.5641 -0.7149  0.2489
18323TIP3   OH276383   4.948   2.769  14.995 -0.2862  0.3128 -0.3088
18323TIP3    H176384   4.920   2.850  14.952 -2.2253 -0.5300 -0.7459
18323TIP3    H276385   4.870   2.712  14.992  1.2036 -1.8308 -0.6646
18324TIP3   OH276386   6.572   3.080  14.304 -0.6327  1.0076 -0.1541
18324TIP3    H176387   6.493   3.056  14.352 -1.8124 -1.6395 -3.0938
18324TIP3    H276388   6.546   3.080  14.212  3.0229 -1.8545 -1.4596
18325TIP3   OH276389   6.346   3.338  10.896  0.1921 -0.0234 -0.5011
18325TIP3    H176390   6.390   3.423  10.894  0.0988  0.0227 -0.7309
18325TIP3    H276391   6.257   3.357  10.866 -0.3736  0.0997  1.1730
18326TIP3   OH276392   2.741   2.349  14.107 -0.2506  0.2112 -0.7673
18326TIP3    H176393   2.732   2.403  14.029  1.3116 -0.5958 -1.5418
18326TIP3    H276394   2.833   2.326  14.111 -0.9693 -3.4201 -1.1924
18327TIP3   OH276395   2.424   0.095   4.862 -0.0045 -0.4236  0.1133
18327TIP3    H176396   2.465   0.037   4.926 -1.9915  0.1082  1.9772
18327TIP3    H276397   2.488   0.102   4.792  1.8778 -1.8087  1.5898
18328TIP3   OH276398   2.593   0.153  12.979 -0.6343 -0.6528 -0.2877
18328TIP3    H176399   2.653   0.079  12.989  0.5831  0.5729  2.1971
18328TIP3    H276400   2.507   0.116  13.001 -0.3583 -1.7150 -0.8880
18329TIP3   OH276401   2.720   0.295  13.208  0.1709  0.2413 -0.3915
18329TIP3    H176402   2.731   0.390  13.210  1.3997  0.1201 -0.3998
18329TIP3    H276403   2.654   0.280  13.140  0.5558  1.0417 -0.9545
18330TIP3   OH276404   1.275   4.128  15.644  0.3046  0.1730  0.2733
18330TIP3    H176405   1.348   4.074  15.613 -0.8262 -0.8438 -0.7094
18330TIP3    H276406   1.214   4.065  15.683  0.0126  1.0321  1.2661
18331TIP3   OH276407   2.675   4.274   5.041 -0.1166  0.0037 -0.0851
18331TIP3    H176408   2.598   4.250   5.093 -0.7994  1.1523 -0.5449
18331TIP3    H276409   2.746   4.278   5.106  0.1259 -3.2781  0.0313
18332TIP3   OH276410   5.151   4.226   2.602  0.0213  0.5479  0.1150
18332TIP3    H176411   5.224   4.288   2.597 -0.7644  1.5876  0.9520
18332TIP3    H276412   5.179   4.151   2.551  2.0899  0.5184  1.2015
18333TIP3   OH276413   5.516   6.638  16.558 -0.1888 -0.1860 -0.2729
18333TIP3    H176414   5.512   6.697  16.484  0.2224  0.6128  0.3232
18333TIP3    H276415   5.438   6.583  16.550 -0.5499  0.4044 -0.8622
18334TIP3   OH276416   6.699   2.731   2.400  0.2074 -0.2259 -0.4519
18334TIP3    H176417   6.706   2.696   2.488 -1.0606 -0.7245 -0.5276
18334TIP3    H276418   6.723   2.824   2.408  2.3931 -0.7876 -0.0284
18335TIP3   OH276419   2.707   4.752   1.032 -0.3730 -0.1823 -0.2123
18335TIP3    H176420   2.688   4.816   0.964 -3.3780  1.7610  2.2168
18335TIP3    H276421   2.645   4.681   1.016  0.6673 -0.9592 -0.9238
18336TIP3   OH276422   3.432   1.602  14.839  0.2256 -0.4444  0.6647
18336TIP3    H176423   3.421   1.635  14.928 -1.6597 -0.3586  0.4446
18336TIP3    H276424   3.471   1.674  14.791 -1.8478  0.7623  0.6812
18337TIP3   OH276425   0.701   4.562  13.333  0.4212  0.0807 -0.2688
18337TIP3    H176426   0.718   4.492  13.397  0.5811  0.6620  0.3445
18337TIP3    H276427   0.615   4.542  13.297  0.0909  0.0287  0.5295
18338TIP3   OH276428   5.833   6.221  12.915  0.0970 -0.3197 -0.4810
18338TIP3    H176429   5.821   6.216  13.010 -3.5309 -0.4711 -0.8032
18338TIP3    H276430   5.861   6.133  12.890 -0.4905 -0.7473  0.3060
18339TIP3   OH276431   1.456   2.927   1.409 -0.0313  0.3943  0.6027
18339TIP3    H176432   1.470   2.875   1.488 -0.3598  2.1163  1.8286
18339TIP3    H276433   1.363   2.914   1.389 -0.0869  0.4409  0.8337
18340TIP3   OH276434   4.313   5.960  11.791  0.0053 -0.4196  0.0468
18340TIP3    H176435   4.325   5.865  11.796  0.5045 -0.4044 -0.7102
18340TIP3    H276436   4.315   5.989  11.883  0.2911 -1.0876  0.2631
18341TIP3   OH276437   0.170   3.240  16.950 -0.0951  0.2899  0.1168
18341TIP3    H176438   0.142   3.327  16.977  3.1764  1.4782  0.1994
18341TIP3    H276439   0.186   3.248  16.856 -0.7264 -0.5450 -0.0758
18342TIP3   OH276440   0.417   1.987   0.406  0.8186 -0.0410  0.0421
18342TIP3    H176441   0.390   1.941   0.486  1.6945 -1.5728 -0.4931
18342TIP3    H276442   0.418   1.919   0.339  2.0165  0.8074 -0.8409
18343TIP3   OH276443   6.671   1.168  16.687  0.2157 -0.5885  0.3971
18343TIP3    H176444   6.708   1.104  16.627  1.3877 -0.8397  1.3519
18343TIP3    H276445   6.656   1.120  16.769 -0.3552 -0.0054  0.6520
18344TIP3   OH276446   4.799   1.278   0.507 -0.2479  0.1878 -0.5788
18344TIP3    H176447   4.886   1.266   0.471  0.5039  1.6125  0.6604
18344TIP3    H276448   4.784   1.373   0.503 -1.9226 -0.0519 -1.1465
18345TIP3   OH276449   3.745   1.319   5.617 -0.3228  0.4759 -0.3318
18345TIP3    H176450   3.677   1.383   5.598  0.2169  0.7824 -1.3255
18345TIP3    H276451   3.698   1.244   5.653 -1.2583  0.4780 -1.4803
18346TIP3   OH276452   5.731   2.210   4.532 -0.3637  0.4369 -0.1182
18346TIP3    H176453   5.723   2.141   4.598 -1.6595 -1.0372 -1.7216
18346TIP3    H276454   5.809   2.187   4.482 -0.1891  0.7478  0.0101
18347TIP3   OH276455   4.567   2.125  15.513  1.0856  0.1965 -0.6635
18347TIP3    H176456   4.599   2.057  15.572  1.6339  0.1700 -0.9808
18347TIP3    H276457   4.638   2.137  15.449  0.5986  0.3885 -1.1787
18348TIP3   OH276458   1.809   0.765  13.663 -0.0230 -0.0549  0.6261
18348TIP3    H176459   1.895   0.733  13.691 -0.2569  0.0752  1.4994
18348TIP3    H276460   1.830   0.829  13.594  0.4376 -2.2038 -1.3761
18349TIP3   OH276461   2.342   4.231   3.616 -0.0153  0.1714  0.0568
18349TIP3    H176462   2.310   4.319   3.594  0.2013  0.5193  1.0581
18349TIP3    H276463   2.374   4.240   3.706  0.7325 -0.7442 -0.1075
18350TIP3   OH276464   5.409   2.962  14.461  0.0132  0.1722  0.3596
18350TIP3    H176465   5.493   2.916  14.463 -0.1558 -0.1196  0.8284
18350TIP3    H276466   5.394   2.980  14.368  0.3820 -0.1679  0.2334
18351TIP3   OH276467   0.766   5.788  10.869 -0.0750  0.1270 -0.2029
18351TIP3    H176468   0.759   5.780  10.964 -1.8967 -0.5238 -0.3513
18351TIP3    H276469   0.829   5.858  10.855 -0.2680  0.6714  1.4981
18352TIP3   OH276470   5.581   0.633   6.133 -0.6561  0.1858  0.0770
18352TIP3    H176471   5.519   0.636   6.205 -0.8409  2.2362 -0.0822
18352TIP3    H276472   5.605   0.541   6.124 -2.8843 -0.5265  0.8056
18353TIP3   OH276473   6.525   4.691   3.902 -0.2048  0.8227  0.1341
18353TIP3    H176474   6.467   4.766   3.911 -1.7270 -0.2569 -0.2179
18353TIP3    H276475   6.609   4.728   3.877 -0.6243  2.4730  1.0127
18354TIP3   OH276476   3.463   5.478   4.795 -0.4896  0.1064  0.9329
18354TIP3    H176477   3.544   5.529   4.791  0.4017 -1.3079 -2.9305
18354TIP3    H276478   3.393   5.544   4.788  0.0914  1.3665  4.5372
18355TIP3   OH276479   0.029   0.611  12.776 -0.4722 -0.4890 -0.3490
18355TIP3    H176480  -0.058   0.613  12.735  0.5033 -1.6638 -2.6372
18355TIP3    H276481   0.075   0.686  12.738 -0.6767  0.6854  1.5414
18356TIP3   OH276482   4.042   1.578   5.134  0.5675  0.2680  0.4339
18356TIP3    H176483   3.978   1.584   5.063 -0.8620 -0.3442  1.6353
18356TIP3    H276484   4.093   1.500   5.114 -1.5567 -1.4521  1.4053
18357TIP3   OH276485   1.379   1.607   0.653  0.0282  0.2379  0.2230
18357TIP3    H176486   1.357   1.660   0.730  0.6244  0.7803  0.0254
18357TIP3    H276487   1.303   1.615   0.596 -0.2505  0.1639  0.5770
18358TIP3   OH276488   4.176   1.438  11.029  0.2267  0.2910 -0.0415
18358TIP3    H176489   4.210   1.495  10.960 -1.2397 -0.7325 -1.7156
18358TIP3    H276490   4.097   1.482  11.060  0.4856  0.3925  0.4816
18359TIP3   OH276491   2.529   5.813   5.102 -0.1016  0.3583 -0.1670
18359TIP3    H176492   2.615   5.770   5.096 -0.2030 -0.3948  2.3828
18359TIP3    H276493   2.548   5.905   5.086  1.0493  0.0956 -0.4686
18360TIP3   OH276494   4.646   0.403   3.484 -0.0895  0.9472  0.3611
18360TIP3    H176495   4.551   0.408   3.494 -0.0319  1.0307  0.9053
18360TIP3    H276496   4.660   0.363   3.399 -0.6144  0.2097  0.6205
18361TIP3   OH276497   6.215   5.433   5.557 -0.4576 -0.2275 -0.0513
18361TIP3    H176498   6.190   5.406   5.645 -0.9096 -2.6023 -0.8341
18361TIP3    H276499   6.310   5.444   5.562 -0.3439 -1.3122  0.5213
18362TIP3   OH276500   1.061   1.525   2.528 -0.3959  0.4320  0.4844
18362TIP3    H176501   1.148   1.563   2.513 -0.6436  1.0094  0.4671
18362TIP3    H276502   1.025   1.577   2.601 -0.6998  0.1523  0.5343
18363TIP3   OH276503   4.291   5.022  12.386 -0.4314 -0.2253 -0.5457
18363TIP3    H176504   4.266   4.991  12.473  0.5224  3.0745  1.0371
18363TIP3    H276505   4.366   5.079  12.401 -0.2383  0.4762 -3.5467
18364TIP3   OH276506   5.644   5.996   3.977  0.6094 -0.5811 -0.3830
18364TIP3    H176507   5.728   5.985   4.021  0.8224  0.5350 -0.4693
18364TIP3    H276508   5.659   5.964   3.889  1.0213 -0.1837 -0.4639
18365TIP3   OH276509   4.128   4.633   6.016  0.2421 -0.3182  0.2404
18365TIP3    H176510   4.037   4.638   6.046 -0.1919 -0.5579 -0.9617
18365TIP3    H276511   4.177   4.601   6.091 -0.5189  0.6785  1.1813
18366TIP3   OH276512   0.890   2.180  12.057  0.1086 -0.3632 -0.3427
18366TIP3    H176513   0.957   2.194  11.991  1.4913 -1.4194  0.7504
18366TIP3    H276514   0.854   2.267  12.074  0.2511  0.0257 -1.9101
18367TIP3   OH276515   1.582   6.091  12.227  0.5606  0.5083  0.3221
18367TIP3    H176516   1.534   6.098  12.310  1.1057 -1.6024  0.8894
18367TIP3    H276517   1.637   6.169  12.224  0.4504  0.6782  1.9163
18368TIP3   OH276518   2.320   1.904   4.542  0.0228  0.1234  0.2989
18368TIP3    H176519   2.314   1.989   4.499 -1.7802  0.2545  0.7250
18368TIP3    H276520   2.302   1.922   4.634 -0.9943 -0.7625  0.2989
18369TIP3   OH276521   3.660   6.041   5.135  0.4566 -0.7058 -0.5582
18369TIP3    H176522   3.591   5.989   5.093 -0.4420 -0.5685  0.6936
18369TIP3    H276523   3.614   6.116   5.172  1.6365  0.6818 -1.7486
18370TIP3   OH276524   1.826   5.918  11.942 -0.5299  0.1835 -0.2522
18370TIP3    H176525   1.875   5.956  12.016  1.3173  2.8323 -2.6107
18370TIP3    H276526   1.782   5.842  11.979  2.2786 -0.1005  2.9991
18371TIP3   OH276527   6.590   5.521   5.172 -0.0364 -0.0819  0.3075
18371TIP3    H176528   6.515   5.462   5.177 -1.0343  0.8156 -2.3091
18371TIP3    H276529   6.563   5.598   5.221 -0.8723  0.2248 -0.5958
18372TIP3   OH276530   0.810   5.271  13.910 -0.4403 -0.4806  0.3061
18372TIP3    H176531   0.856   5.355  13.904  0.9125 -0.9664  2.8447
18372TIP3    H276532   0.799   5.244  13.819  0.7625  1.5396 -0.5111
18373TIP3   OH276533   3.307   3.768  10.597  0.2420 -0.2616 -0.1932
18373TIP3    H176534   3.334   3.811  10.678  0.2221  1.0822 -0.8622
18373TIP3    H276535   3.373   3.700  10.583  1.3770  0.7676 -0.0467
18374TIP3   OH276536   2.152   4.311   2.379  0.2040 -0.0953  0.2418
18374TIP3    H176537   2.246   4.317   2.394  0.4693 -2.0936 -0.3032
18374TIP3    H276538   2.140   4.345   2.290  0.7892 -1.9133 -0.5844
18375TIP3   OH276539   4.647   0.059   4.608  0.3784 -0.1355 -0.1655
18375TIP3    H176540   4.576   0.006   4.571 -0.1185  0.0959  0.4419
18375TIP3    H276541   4.718  -0.002   4.623  0.8011 -0.1597 -1.9954
18376TIP3   OH276542   3.626   3.810  17.262 -1.0643 -0.3806  0.0485
18376TIP3    H176543   3.675   3.730  17.243 -2.1803 -1.3313  1.0460
18376TIP3    H276544   3.693   3.878  17.268 -0.1599 -1.0758 -1.5114
18377TIP3   OH276545   6.758   1.877   2.208 -0.5509  0.0364  0.4783
18377TIP3    H176546   6.714   1.822   2.143  1.1731 -1.0896  0.1926
18377TIP3    H276547   6.789   1.815   2.274 -0.2381  0.9133  1.1728
18378TIP3   OH276548   1.604   4.363  17.217  0.2262 -0.4100  0.4369
18378TIP3    H176549   1.670   4.362  17.286 -0.3139  1.1608  1.0167
18378TIP3    H276550   1.535   4.420  17.250  0.0151  0.5282 -1.4511
18379TIP3   OH276551   5.280   4.319   0.350 -0.3348 -0.6595 -0.4890
18379TIP3    H176552   5.354   4.363   0.307  0.3822 -1.7612 -0.4162
18379TIP3    H276553   5.283   4.229   0.317 -1.3899 -0.8351 -0.1508
18380TIP3   OH276554   1.131   0.485  12.849  0.3103  0.0710  0.3025
18380TIP3    H176555   1.181   0.425  12.795  1.6666 -0.2944  1.8562
18380TIP3    H276556   1.055   0.435  12.879  1.1081 -0.6993  1.0845
18381TIP3   OH276557   3.607   0.387  15.726  0.1040  0.5272  0.0150
18381TIP3    H176558   3.696   0.395  15.760  0.8080 -2.9341 -0.7035
18381TIP3    H276559   3.619   0.378  15.631 -0.9928 -0.0362 -0.0789
18382TIP3   OH276560   1.036   2.840   4.679  0.0955  0.9737 -0.3065
18382TIP3    H176561   1.007   2.764   4.729 -1.3414  2.0750  0.5836
18382TIP3    H276562   1.046   2.807   4.589 -0.5553 -0.2466  0.0484
18383TIP3   OH276563   6.222   6.469   3.359 -0.3139  0.2561 -0.1417
18383TIP3    H176564   6.305   6.501   3.395  0.3370 -0.5067 -0.9170
18383TIP3    H276565   6.190   6.542   3.306 -0.1334  0.5527  0.1506
18384TIP3   OH276566   5.947   4.438   4.460  0.0871  0.0386  0.5495
18384TIP3    H176567   6.035   4.408   4.436  0.0826  0.9035 -0.6604
18384TIP3    H276568   5.898   4.433   4.378 -0.8873 -0.0647  1.1356
18385TIP3   OH276569   1.615   5.779   4.770  0.2607  0.2175  0.2980
18385TIP3    H176570   1.677   5.764   4.841  2.5134  2.2060 -1.0942
18385TIP3    H276571   1.545   5.831   4.809  0.1494 -0.8681  1.5961
18386TIP3   OH276572   1.135   0.420   1.875  0.2179 -0.3950 -0.0215
18386TIP3    H176573   1.084   0.494   1.909 -1.5663 -2.1107  1.2368
18386TIP3    H276574   1.124   0.425   1.780 -0.2005  0.7176  0.0709
18387TIP3   OH276575   3.699   2.772   1.158 -0.1365  0.1553  0.8457
18387TIP3    H176576   3.770   2.732   1.210  0.1933  0.9684  1.0346
18387TIP3    H276577   3.695   2.862   1.189 -0.0400  0.6149 -0.4391
18388TIP3   OH276578   4.144   5.891  12.211 -0.0183 -0.4136  0.3125
18388TIP3    H176579   4.193   5.949  12.153 -0.1032 -1.3561 -0.7246
18388TIP3    H276580   4.055   5.892  12.178 -0.3624  0.0126  1.2053
18389TIP3   OH276581   0.681   5.475  11.242  0.4530 -0.2001 -0.0822
18389TIP3    H176582   0.764   5.479  11.194  1.4293 -0.1146  1.5595
18389TIP3    H276583   0.661   5.381  11.246 -0.1212 -0.1626 -1.3942
18390TIP3   OH276584   4.100   0.509  15.415  0.1058  0.1196 -0.7668
18390TIP3    H176585   4.173   0.561  15.381 -0.1768  1.3311  0.4167
18390TIP3    H276586   4.136   0.421  15.423  1.5024  0.7241 -0.0565
18391TIP3   OH276587   6.226   2.854  10.674  0.7298 -0.8145  0.1329
18391TIP3    H176588   6.226   2.789  10.745 -0.7655  0.1372  1.0596
18391TIP3    H276589   6.267   2.932  10.713 -1.1682  0.1072  0.3921
18392TIP3   OH276590   6.497   3.591  16.752  0.3601 -0.3192 -0.0441
18392TIP3    H176591   6.571   3.651  16.739  0.0485 -0.3161 -2.0771
18392TIP3    H276592   6.453   3.624  16.831  0.2711  2.0944 -1.0154
18393TIP3   OH276593   3.727   5.987   4.567  0.2193 -0.1994 -0.2387
18393TIP3    H176594   3.742   6.059   4.627  2.0668 -2.0730  1.7160
18393TIP3    H276595   3.657   5.936   4.607 -0.7393  0.1889 -1.3589
18394TIP3   OH276596   6.102   5.158  14.580 -0.2530 -1.2839  0.0225
18394TIP3    H176597   6.052   5.220  14.528 -0.1593 -0.5593  0.7671
18394TIP3    H276598   6.152   5.213  14.641  0.4720 -2.0516  0.1429
18395TIP3   OH276599   3.929   2.525  15.708 -0.3679 -0.2704  0.0651
18395TIP3    H176600   3.865   2.584  15.670 -0.9179 -0.3391  0.8665
18395TIP3    H276601   3.977   2.490  15.633 -1.0319  0.0412 -0.5131
18396TIP3   OH276602   0.538   5.437   3.777  0.2834 -0.6232  0.3406
18396TIP3    H176603   0.546   5.392   3.693 -2.4599 -0.3087 -0.1874
18396TIP3    H276604   0.495   5.520   3.755  0.3918 -0.1146  1.9482
18397TIP3   OH276605   2.070   1.395   4.667 -0.0680  0.1665  0.4309
18397TIP3    H176606   2.084   1.490   4.662 -0.9548  0.2780 -0.2297
18397TIP3    H276607   2.120   1.368   4.744 -0.3277  1.2749  1.0206
18398TIP3   OH276608   3.090   1.772   5.901 -0.2094 -0.1644 -0.1267
18398TIP3    H176609   3.155   1.752   5.833 -1.7322  0.7718 -1.9608
18398TIP3    H276610   3.006   1.744   5.862 -1.1697  0.6654  1.2690
18399TIP3   OH276611   2.813   5.068  12.506  0.1764  0.0574  0.4327
18399TIP3    H176612   2.806   5.057  12.411  0.1764  2.7953  0.0430
18399TIP3    H276613   2.722   5.066  12.536 -0.2392  3.1152 -0.2556
18400TIP3   OH276614   4.971   5.323  16.017  0.0124  0.5306  0.0151
18400TIP3    H176615   5.060   5.288  16.027  0.1707  1.0270  0.4233
18400TIP3    H276616   4.960   5.381  16.093 -0.6476  0.4992 -0.0566
18401TIP3   OH276617   3.545   5.259  13.264  0.3148  0.5306  0.5023
18401TIP3    H176618   3.619   5.294  13.314  1.0976  0.8289 -0.8158
18401TIP3    H276619   3.471   5.314  13.289  0.6356  0.5322  1.4842
18402TIP3   OH276620   2.483   3.927   4.944 -0.6870  0.3349  0.4321
18402TIP3    H176621   2.534   3.997   4.904  1.3604 -0.8534  0.7901
18402TIP3    H276622   2.473   3.953   5.035  0.3945  0.0430  0.6544
18403TIP3   OH276623   5.963   6.028   5.980  0.1272  0.0718  0.0865
18403TIP3    H176624   5.899   6.021   6.050  0.4332 -1.3856  0.2540
18403TIP3    H276625   6.047   6.035   6.026  0.2186  0.5169 -0.1410
18404TIP3   OH276626   2.258   6.661   3.836 -0.7063 -0.4128  0.0427
18404TIP3    H176627   2.165   6.680   3.826 -0.7552 -0.2138  0.7531
18404TIP3    H276628   2.274   6.674   3.930  0.4448  1.4262 -0.3595
18405TIP3   OH276629   2.608   1.163  13.474 -0.0765  0.1014 -0.2294
18405TIP3    H176630   2.625   1.172  13.380 -0.4850 -0.2497 -0.3375
18405TIP3    H276631   2.695   1.151  13.512  0.0355 -0.4859 -0.6486
18406TIP3   OH276632   1.270   2.897  14.046  0.2386 -0.7222 -0.0156
18406TIP3    H176633   1.303   2.929  13.962 -1.1699 -2.8100 -1.4743
18406TIP3    H276634   1.322   2.818  14.064 -0.7813 -1.4023  0.0347
18407TIP3   OH276635   2.708   3.594  16.214  0.9822 -0.2970 -0.4096
18407TIP3    H176636   2.715   3.653  16.139 -0.1956  0.5379  0.1120
18407TIP3    H276637   2.698   3.507  16.175 -0.7049  0.2464 -1.2600
18408TIP3   OH276638   0.424   0.137   5.787 -0.3680 -0.0759 -0.2236
18408TIP3    H176639   0.405   0.057   5.739 -0.2059  0.5129 -1.3075
18408TIP3    H276640   0.499   0.115   5.843 -0.4581 -0.7265 -0.3548
18409TIP3   OH276641   3.058   4.284   4.688 -0.4155 -0.4888  0.4703
18409TIP3    H176642   3.016   4.298   4.773 -1.5753  0.5610 -0.2360
18409TIP3    H276643   3.142   4.244   4.709 -1.2820 -1.6157  2.0111
18410TIP3   OH276644   3.274   6.699   2.566 -0.2088 -0.2603 -0.1776
18410TIP3    H176645   3.231   6.763   2.622 -0.3670  0.9374 -1.5873
18410TIP3    H276646   3.203   6.664   2.511 -0.2197 -2.0701  0.9082
18411TIP3   OH276647   2.686   2.452  13.670 -0.1314  0.4238 -0.1197
18411TIP3    H176648   2.647   2.436  13.583  0.9360  0.6339 -0.6536
18411TIP3    H276649   2.707   2.364  13.703  0.9195  0.4079 -0.7803
18412TIP3   OH276650   4.601   3.256  10.563 -0.3409 -0.4466  0.6053
18412TIP3    H176651   4.550   3.251  10.644  0.7125 -2.0154  1.2357
18412TIP3    H276652   4.646   3.340  10.567 -0.8113 -0.2284  1.3408
18413TIP3   OH276653   2.104   1.982   5.736  0.7741 -0.4716 -0.4280
18413TIP3    H176654   2.097   1.960   5.828  0.7089 -0.0315 -0.3226
18413TIP3    H276655   2.013   1.982   5.704  0.7690 -0.3086 -0.4142
18414TIP3   OH276656   6.535   5.523   0.032 -0.5750  0.3881  0.0463
18414TIP3    H176657   6.560   5.450   0.089  2.2812  1.8077  0.8395
18414TIP3    H276658   6.455   5.494  -0.011 -0.1412 -2.7701  1.0870
18415TIP3   OH276659   5.687   0.023   6.450 -0.4439 -0.4840  0.0579
18415TIP3    H176660   5.708   0.100   6.503  1.4741 -1.1795  0.3857
18415TIP3    H276661   5.764   0.011   6.395 -1.3409 -1.3125 -1.0404
18416TIP3   OH276662   4.022   4.030   0.201 -0.2220  0.1105  0.0010
18416TIP3    H176663   3.988   3.981   0.276 -1.3332  2.4106  1.0916
18416TIP3    H276664   4.103   3.985   0.179 -1.2496 -2.3029  0.7903
18417TIP3   OH276665   0.746   4.444   4.903 -0.1348  0.0131 -0.0093
18417TIP3    H176666   0.685   4.386   4.858 -0.9713  0.7995  0.0751
18417TIP3    H276667   0.700   4.468   4.983 -0.0894  1.2967 -0.3521
18418TIP3   OH276668   1.888   0.797  12.167 -0.6201 -0.0767  0.0018
18418TIP3    H176669   1.866   0.720  12.219  1.3511 -0.7781 -0.1346
18418TIP3    H276670   1.966   0.771  12.118 -0.2600  1.8231 -0.4882
18419TIP3   OH276671   3.686   2.034   2.410  0.1029  0.2438  0.5191
18419TIP3    H176672   3.707   1.956   2.358  0.9079  0.7912  0.0018
18419TIP3    H276673   3.591   2.031   2.421  0.0042 -0.2510 -0.3918
18420TIP3   OH276674   2.876   0.572  14.024  0.3592  0.9347 -0.2124
18420TIP3    H176675   2.859   0.485  14.062  3.0645  0.0334 -0.8265
18420TIP3    H276676   2.815   0.630  14.068 -1.3251 -1.2107  0.4698
18421TIP3   OH276677   2.275   3.691  11.851 -0.5121 -0.1824  0.2348
18421TIP3    H176678   2.313   3.619  11.801 -0.1887  1.3000 -1.7781
18421TIP3    H276679   2.345   3.756  11.857 -1.7723  1.3715 -1.0058
18422TIP3   OH276680   2.735   3.256   6.608  0.1377 -0.2507  0.1244
18422TIP3    H176681   2.755   3.308   6.529  2.0910 -2.4321 -0.9492
18422TIP3    H276682   2.805   3.278   6.669 -1.3092  1.3429  1.2956
18423TIP3   OH276683   3.554   2.157   5.116  0.4723 -0.1808 -0.2838
18423TIP3    H176684   3.483   2.220   5.131  0.6493  0.3877 -1.6738
18423TIP3    H276685   3.551   2.140   5.022  1.1958 -1.3546 -0.1105
18424TIP3   OH276686   2.846   2.045  12.131 -0.2150 -0.0105  0.7358
18424TIP3    H176687   2.912   2.055  12.062  0.5471  0.5490  1.5199
18424TIP3    H276688   2.891   1.998  12.201 -0.7724  0.0119  1.1192
18425TIP3   OH276689   1.463   0.710   0.186 -0.0073 -0.6940 -0.6233
18425TIP3    H176690   1.544   0.666   0.162 -0.1318 -1.3283  0.0769
18425TIP3    H276691   1.480   0.803   0.171  1.3510 -0.6580  0.8806
18426TIP3   OH276692   5.896   1.556  15.423 -0.0026  0.1597  0.3832
18426TIP3    H176693   5.878   1.588  15.334 -0.4742 -0.0382  0.4051
18426TIP3    H276694   5.891   1.461  15.415  0.2897  0.1312  0.5534
18427TIP3   OH276695   5.092   3.790  16.683 -0.6578 -0.0402  0.8090
18427TIP3    H176696   5.072   3.724  16.749 -0.6360  0.3633  1.2247
18427TIP3    H276697   5.146   3.855  16.728 -0.7923  0.3346  0.4470
18428TIP3   OH276698   3.047   3.411  11.235  0.2125 -0.5583 -0.6345
18428TIP3    H176699   3.121   3.350  11.244  1.1256  0.6349  0.2724
18428TIP3    H276700   3.084   3.496  11.257 -1.2614  0.1902 -0.9781
18429TIP3   OH276701   3.175   6.246   1.323 -0.5277 -0.6265 -1.2042
18429TIP3    H176702   3.177   6.306   1.249  1.1730 -0.0235 -0.7288
18429TIP3    H276703   3.266   6.243   1.354 -1.3018 -0.2125  1.3633
18430TIP3   OH276704   2.974   2.998  11.402  0.1877 -0.0631 -0.0895
18430TIP3    H176705   2.949   3.007  11.310 -0.2511 -1.2811 -0.1070
18430TIP3    H276706   3.045   2.934  11.401 -0.4780 -0.8372  0.4942
18431TIP3   OH276707   1.468   5.830  15.271 -0.4894  0.2558  0.2902
18431TIP3    H176708   1.500   5.886  15.341 -1.7536  3.0247 -1.1949
18431TIP3    H276709   1.403   5.774  15.314  0.8141 -0.1479  1.8283
18432TIP3   OH276710   3.547   1.860  10.463  0.3617 -0.5909  0.2835
18432TIP3    H176711   3.487   1.804  10.513  2.2934 -1.9851  1.1673
18432TIP3    H276712   3.576   1.805  10.390 -0.7751  0.7033 -1.2209
18433TIP3   OH276713   5.828   1.239   4.951 -0.2741  0.0894 -0.0039
18433TIP3    H176714   5.859   1.165   4.898 -0.0427  0.9678 -1.1271
18433TIP3    H276715   5.752   1.272   4.903 -1.0435 -0.0832  1.0696
18434TIP3   OH276716   0.639   3.978   0.036 -0.2124  0.1587 -0.2930
18434TIP3    H176717   0.728   3.948   0.049 -0.8545 -1.0458  1.7554
18434TIP3    H276718   0.645   4.074   0.037  1.0494  0.0967 -0.3817
18435TIP3   OH276719   1.568   1.997  14.989 -0.3054 -0.4235 -0.6805
18435TIP3    H176720   1.478   1.999  14.957 -0.1207 -0.3264 -1.1960
18435TIP3    H276721   1.615   1.943  14.925 -0.1414 -1.0639 -0.0339
18436TIP3   OH276722   4.556   0.980  13.407 -0.7779  0.2731  0.2559
18436TIP3    H176723   4.521   0.897  13.375 -1.3328  0.3817  0.5610
18436TIP3    H276724   4.485   1.017  13.460 -0.2740  0.6074  0.7063
18437TIP3   OH276725   5.096   2.404  14.851 -0.0001  0.3001 -0.0768
18437TIP3    H176726   5.105   2.333  14.915 -1.0918 -0.3977 -0.6710
18437TIP3    H276727   5.177   2.455  14.861  1.3345 -1.6434 -0.3720
18438TIP3   OH276728   6.575   5.408  13.212  0.4542 -0.1961  0.3837
18438TIP3    H176729   6.541   5.441  13.129  0.1950 -4.0455 -1.2638
18438TIP3    H276730   6.667   5.386  13.194  1.1981  1.3514  1.9805
18439TIP3   OH276731   4.796   2.740   1.213  0.1786 -0.1623 -0.4604
18439TIP3    H176732   4.720   2.755   1.156  0.6713  0.1128 -1.0682
18439TIP3    H276733   4.759   2.712   1.296 -0.6204  0.5042 -0.5721
18440TIP3   OH276734   6.096   2.637   0.582  0.3503  0.5839 -0.0266
18440TIP3    H176735   6.107   2.711   0.642 -1.2785  0.6976  0.1731
18440TIP3    H276736   6.046   2.572   0.632 -1.2149  0.7563 -1.2838
18441TIP3   OH276737   2.974   0.334   4.929 -0.2212 -0.6086  0.3215
18441TIP3    H176738   2.946   0.340   4.838 -0.4898 -2.1654  0.2733
18441TIP3    H276739   3.062   0.370   4.930 -1.1757  2.0123 -0.0055
18442TIP3   OH276740   5.885   0.112  17.150 -0.2617  0.4540 -0.2342
18442TIP3    H176741   5.808   0.143  17.102  0.1594  1.9769  0.0023
18442TIP3    H276742   5.936   0.063  17.086 -0.3106  1.4068 -1.0380
18443TIP3   OH276743   2.726   5.308   1.919 -0.3802 -0.2108  0.2121
18443TIP3    H176744   2.757   5.388   1.876 -1.4175  0.9759  1.5563
18443TIP3    H276745   2.801   5.277   1.970  0.2381 -0.4958 -0.8622
18444TIP3   OH276746   0.027   3.440  15.132  0.0493 -0.7895 -0.1680
18444TIP3    H176747   0.026   3.531  15.162 -0.8349 -1.2518  1.3699
18444TIP3    H276748   0.068   3.392  15.204 -0.2599 -1.7100 -0.5911
18445TIP3   OH276749   3.189   6.111  14.848  0.0961 -0.3451  0.7476
18445TIP3    H176750   3.226   6.147  14.929 -0.7838  0.0191  0.9934
18445TIP3    H276751   3.177   6.187  14.791  1.4067 -0.6844 -0.0329
18446TIP3   OH276752   6.142   4.007  13.878  0.2568  0.2735  0.5315
18446TIP3    H176753   6.168   3.993  13.787  1.4644  1.5080  0.6538
18446TIP3    H276754   6.198   3.948  13.928  0.3666  0.3889  0.5458
18447TIP3   OH276755   2.093   0.259   3.037  0.0522  0.0310 -0.1810
18447TIP3    H176756   2.153   0.330   3.061  0.1120 -0.1299  0.1447
18447TIP3    H276757   2.050   0.235   3.119 -0.7949  0.4574 -0.4842
18448TIP3   OH276758   3.788   3.960   5.246 -0.1933 -0.1700 -0.0501
18448TIP3    H176759   3.696   3.937   5.251 -0.1069 -0.2883  3.0174
18448TIP3    H276760   3.832   3.878   5.221 -0.8669 -0.1946 -1.1845
18449TIP3   OH276761   5.067   2.839  13.717  0.6155  0.0462 -1.0071
18449TIP3    H176762   5.146   2.893  13.710  1.4925 -1.2189 -1.1543
18449TIP3    H276763   5.004   2.895  13.763  2.5584  0.1051  1.8537
18450TIP3   OH276764   2.294   0.195  15.474 -0.0617  0.2133  0.0470
18450TIP3    H176765   2.296   0.237  15.560 -1.0393 -0.5356  0.4553
18450TIP3    H276766   2.281   0.102  15.493 -3.7037  0.3734 -0.8978
18451TIP3   OH276767   1.889   0.003  16.995  0.2753 -0.1280 -0.7426
18451TIP3    H176768   1.973  -0.028  17.028  0.5803  1.5653  0.1565
18451TIP3    H276769   1.866   0.076  17.052 -3.5293 -2.6372  1.3760
18452TIP3   OH276770   0.383   4.219   4.910 -0.6803 -0.2659  0.4849
18452TIP3    H176771   0.378   4.293   4.849 -2.8207 -0.2080  0.6728
18452TIP3    H276772   0.427   4.150   4.861 -0.0326  0.6186 -0.2084
18453TIP3   OH276773   2.611   1.065   3.124  0.0298 -0.2816  0.0439
18453TIP3    H176774   2.540   1.077   3.061 -0.0467 -0.1790  0.1480
18453TIP3    H276775   2.676   1.012   3.078  0.3751  0.5303 -0.4281
18454TIP3   OH276776   5.714   1.333   0.270 -0.2072  0.1285  0.1259
18454TIP3    H176777   5.750   1.313   0.357 -0.8139 -1.6430  0.0232
18454TIP3    H276778   5.746   1.420   0.250  0.4984  0.3111  1.8495
18455TIP3   OH276779   6.729   3.126   3.784 -0.4435  0.0913 -0.5463
18455TIP3    H176780   6.791   3.158   3.719 -0.7615  1.7035 -0.0938
18455TIP3    H276781   6.752   3.033   3.796  1.5514  0.5280 -0.7412
18456TIP3   OH276782   6.349   0.931  15.684 -0.1555  0.1178 -0.2983
18456TIP3    H176783   6.323   0.915  15.593  0.0941 -1.1323 -0.1689
18456TIP3    H276784   6.421   0.993  15.678 -0.3252  0.2613 -0.9293
18457TIP3   OH276785   5.242   0.382   0.575  0.5025 -0.2421  0.1848
18457TIP3    H176786   5.163   0.430   0.549  1.1683  1.3239  0.8849
18457TIP3    H276787   5.210   0.304   0.618 -0.6812  0.4965  0.6972
18458TIP3   OH276788   1.024   4.026   0.475  0.9364  0.1453 -0.0113
18458TIP3    H176789   1.059   4.091   0.536  0.8937  1.2417 -1.1177
18458TIP3    H276790   1.094   4.011   0.412  0.5495 -0.0374 -0.4105
18459TIP3   OH276791   3.919   2.681   0.496 -0.5866  0.1702 -0.3582
18459TIP3    H176792   3.876   2.608   0.453  0.9407 -1.7850  1.2570
18459TIP3    H276793   3.948   2.646   0.580  1.8463  2.0993 -0.2839
18460TIP3   OH276794   5.297   4.520   5.654 -0.0807 -0.6727  0.0595
18460TIP3    H176795   5.236   4.559   5.717 -0.7874  0.9995 -1.5698
18460TIP3    H276796   5.263   4.432   5.639 -0.9869 -0.4250  0.5874
18461TIP3   OH276797   3.103   0.735  13.593  0.2725 -0.1787  0.2566
18461TIP3    H176798   3.060   0.704  13.513  0.1908 -2.3789  1.0628
18461TIP3    H276799   3.031   0.749  13.655  0.5098 -3.3416  1.4357
18462TIP3   OH276800   4.741   2.098  12.238  0.3019 -0.2993 -0.6778
18462TIP3    H176801   4.724   2.123  12.329  1.4686  0.2785 -0.6030
18462TIP3    H276802   4.710   2.007  12.232 -2.4280  0.5197 -0.5022
18463TIP3   OH276803   3.202   5.518  14.478  0.1827 -0.0058 -0.1522
18463TIP3    H176804   3.186   5.613  14.482  0.9512  0.1458 -0.4706
18463TIP3    H276805   3.120   5.479  14.508 -0.2892  0.7531 -0.4130
18464TIP3   OH276806   3.848   2.257  13.170  0.1392 -0.3508 -0.1005
18464TIP3    H176807   3.782   2.289  13.231  0.5621  0.4460 -0.0379
18464TIP3    H276808   3.823   2.167  13.152  0.3047 -0.7873  1.6719
18465TIP3   OH276809   5.541   5.990   4.530 -0.0015  0.5164  0.2613
18465TIP3    H176810   5.591   6.009   4.451  0.2439 -1.9628 -0.2439
18465TIP3    H276811   5.453   5.967   4.498 -0.7135  2.1194  0.9472
18466TIP3   OH276812   4.557   1.738   3.936 -0.0220  0.1625  0.1612
18466TIP3    H176813   4.599   1.655   3.916 -1.0925 -0.5196  0.6546
18466TIP3    H276814   4.552   1.784   3.852  1.3164  0.0911  0.0267
18467TIP3   OH276815   4.735   3.001   4.909 -0.7676 -0.0915  0.1547
18467TIP3    H176816   4.828   2.989   4.927 -1.1704  0.7367  3.6268
18467TIP3    H276817   4.732   3.074   4.847  0.9322  1.2720  1.5431
18468TIP3   OH276818   0.441   2.632   0.979  0.2298 -0.1205 -0.6815
18468TIP3    H176819   0.531   2.638   0.948  0.1240 -0.6933 -1.1142
18468TIP3    H276820   0.415   2.542   0.960 -0.4200  0.0277 -0.5184
18469TIP3   OH276821   3.502   2.418   1.707 -0.3032 -0.3775  0.2008
18469TIP3    H176822   3.496   2.348   1.772  0.6848 -1.3797 -0.7645
18469TIP3    H276823   3.417   2.418   1.663  0.1428 -1.9082 -0.7141
18470TIP3   OH276824   1.657   2.557   1.582 -0.4630  0.2669 -0.1425
18470TIP3    H176825   1.723   2.618   1.551  0.4396  0.9664  2.8830
18470TIP3    H276826   1.574   2.601   1.566  0.0464  1.2796 -0.0571
18471TIP3   OH276827   0.189   4.240   0.293 -0.1523  0.4479  0.9342
18471TIP3    H176828   0.145   4.264   0.211 -0.0133  0.4753  0.8658
18471TIP3    H276829   0.119   4.225   0.355 -0.2872 -0.1011  0.6637
18472TIP3   OH276830   1.604   3.259  13.730 -0.1811  0.0356 -0.0357
18472TIP3    H176831   1.649   3.187  13.774 -1.6389 -0.3484  0.8979
18472TIP3    H276832   1.637   3.256  13.640  0.3272 -1.3399  0.1640
18473TIP3   OH276833   3.351   5.621  13.533 -1.4042  0.1477  0.3691
18473TIP3    H176834   3.412   5.558  13.495 -0.7701 -0.0868  1.7302
18473TIP3    H276835   3.275   5.569  13.559  0.9723 -1.2677  6.0701
18474TIP3   OH276836   4.281   5.630   0.555 -0.3263  0.0283 -0.5477
18474TIP3    H176837   4.360   5.684   0.562  0.2386 -0.7803 -0.5882
18474TIP3    H276838   4.300   5.567   0.486 -1.3936  0.4448 -1.2493
18475TIP3   OH276839   1.201   2.741   4.034  0.6445 -0.6965  0.0768
18475TIP3    H176840   1.177   2.701   3.950 -0.5530  0.1787 -0.0261
18475TIP3    H276841   1.208   2.834   4.015 -1.2380 -0.2502  1.2317
18476TIP3   OH276842   6.314   6.304  16.519  0.2017 -0.2155  0.2952
18476TIP3    H176843   6.317   6.376  16.583 -0.1579  0.2574 -0.1999
18476TIP3    H276844   6.404   6.274  16.512 -0.0753 -1.9499  2.8564
18477TIP3   OH276845   1.342   1.490  11.192  0.1116  0.2506  0.0908
18477TIP3    H176846   1.380   1.517  11.276 -0.2872 -0.4188  0.4974
18477TIP3    H276847   1.418   1.475  11.136  0.3596  1.3805  0.1108
18478TIP3   OH276848   1.011   2.663   0.961  0.1992  0.2754 -0.1681
18478TIP3    H176849   1.029   2.621   0.877  0.6689  1.5563 -0.7503
18478TIP3    H276850   0.946   2.608   1.004  0.4455 -0.7491 -1.0904
18479TIP3   OH276851   1.804   2.469   5.804  0.3555 -0.1505 -0.2955
18479TIP3    H176852   1.839   2.392   5.758  1.7793  0.0668  0.3590
18479TIP3    H276853   1.713   2.475   5.775  0.2509 -2.0000 -0.4719
18480TIP3   OH276854   0.398   3.237  16.421 -0.3059  0.1902  0.1198
18480TIP3    H176855   0.411   3.200  16.333 -1.1714 -0.9959  0.4681
18480TIP3    H276856   0.477   3.289  16.437  0.1658 -0.1177 -1.0921
18481TIP3   OH276857   3.449   0.182  13.453  0.4358 -0.5059 -0.2939
18481TIP3    H176858   3.499   0.102  13.438  0.6168 -0.6749  1.0616
18481TIP3    H276859   3.369   0.152  13.497  0.6605  0.0848  0.5273
18482TIP3   OH276860   6.539   1.680   2.366  0.5428 -0.1439 -0.1221
18482TIP3    H176861   6.597   1.605   2.357  1.5116  0.5080  0.4834
18482TIP3    H276862   6.452   1.645   2.351  1.1265 -1.0337 -1.7298
18483TIP3   OH276863   2.058   1.233   2.283  0.0482 -0.2477 -0.1822
18483TIP3    H176864   1.978   1.273   2.317  0.8354  1.2264  0.0633
18483TIP3    H276865   2.053   1.142   2.310 -1.3230 -0.0790  0.2287
18484TIP3   OH276866   3.316   1.777  11.374 -0.4413  0.0483  0.2867
18484TIP3    H176867   3.241   1.779  11.315 -0.8278 -1.7690  0.6535
18484TIP3    H276868   3.281   1.803  11.459 -0.3064  0.7383  0.1357
18485TIP3   OH276869   6.660   6.461   3.754  0.5116 -0.1507 -0.1743
18485TIP3    H176870   6.746   6.435   3.786  0.2019  0.9583  1.6882
18485TIP3    H276871   6.599   6.420   3.815 -0.2423  0.0459 -0.7842
18486TIP3   OH276872   5.672   6.202   2.596 -0.0601 -0.0680 -0.1095
18486TIP3    H176873   5.577   6.195   2.589 -0.3218  1.4315  1.2458
18486TIP3    H276874   5.694   6.148   2.672 -0.5800  3.5263  2.8552
18487TIP3   OH276875   1.277   6.111   2.987  0.0219  0.8531  0.2447
18487TIP3    H176876   1.227   6.183   3.027  1.4049  1.7131  0.4897
18487TIP3    H276877   1.284   6.136   2.895 -0.3692  0.4951  0.1110
18488TIP3   OH276878   1.951   2.608   4.123  0.2957 -0.4173  0.1047
18488TIP3    H176879   1.938   2.668   4.197  1.0772  0.5851 -0.5313
18488TIP3    H276880   1.863   2.590   4.091  0.0060 -0.0952  0.6890
18489TIP3   OH276881   3.516   3.638  15.508  0.4310  0.2824 -0.2546
18489TIP3    H176882   3.548   3.612  15.595  0.6695  0.3671 -0.3180
18489TIP3    H276883   3.594   3.644  15.454  0.1680 -1.2019 -0.8629
18490TIP3   OH276884   1.295   2.517   3.277 -0.6616  0.0039 -0.1975
18490TIP3    H176885   1.353   2.495   3.204 -1.7420 -1.3106 -0.7048
18490TIP3    H276886   1.344   2.582   3.328  0.1668  0.9155 -2.0297
18491TIP3   OH276887   0.178   4.330   1.914 -0.0696  0.0944 -0.0710
18491TIP3    H176888   0.132   4.292   1.839 -0.4109  0.8963 -0.2804
18491TIP3    H276889   0.206   4.255   1.966 -2.1278 -0.4294  0.3795
18492TIP3   OH276890   3.279   1.658   1.418 -0.6508  0.6807  0.1323
18492TIP3    H176891   3.302   1.690   1.331  0.7357 -0.3997  0.0699
18492TIP3    H276892   3.216   1.588   1.401  0.3427 -0.1874 -0.1036
18493TIP3   OH276893   1.738   3.196   3.425  0.9266 -0.4369  0.4101
18493TIP3    H176894   1.671   3.254   3.388 -0.2105 -3.0024 -1.8545
18493TIP3    H276895   1.820   3.230   3.388  0.4065  0.2716 -0.1385
18494TIP3   OH276896   0.493   6.002  14.318  0.3184  0.0593  0.0783
18494TIP3    H176897   0.499   5.981  14.225  0.0089 -0.6878  0.2184
18494TIP3    H276898   0.486   6.097  14.321 -3.8843 -0.0471 -0.8982
18495TIP3   OH276899   3.011   4.566   2.789 -0.1803 -0.4465 -0.2582
18495TIP3    H176900   2.915   4.562   2.782 -0.2367 -3.6349  0.6995
18495TIP3    H276901   3.041   4.588   2.701 -1.7577  1.1906 -0.4496
18496TIP3   OH276902   3.239   3.792  15.219  0.2008 -0.4161 -0.3727
18496TIP3    H176903   3.313   3.849  15.239 -0.6462  1.4875 -2.3051
18496TIP3    H276904   3.268   3.740  15.144  0.1670 -0.9355 -0.0345
18497TIP3   OH276905   0.446   6.168  10.757  0.3268 -0.1721  0.7852
18497TIP3    H176906   0.469   6.079  10.733 -1.1720 -0.9530  2.0624
18497TIP3    H276907   0.355   6.178  10.728  0.6187  1.1315  0.2226
18498TIP3   OH276908   4.624   6.297  11.139  0.3769  0.1092  0.9968
18498TIP3    H176909   4.631   6.338  11.225 -0.0324  0.5698  0.8135
18498TIP3    H276910   4.558   6.349  11.093  0.5674 -0.1553  0.4161
18499TIP3   OH276911   0.141   3.135  16.399 -0.0612  0.3841 -0.1624
18499TIP3    H176912   0.160   3.059  16.453 -0.0934 -0.2761 -1.0688
18499TIP3    H276913   0.225   3.182  16.394  0.2857 -0.2804 -0.6618
18500TIP3   OH276914   5.062   4.964   3.283  0.3994 -0.2209 -0.2105
18500TIP3    H176915   5.101   4.877   3.273 -1.7526 -1.2503 -0.2455
18500TIP3    H276916   4.972   4.947   3.310 -0.3183  2.0001 -0.9594
18501TIP3   OH276917   0.707   3.147  12.434  0.0563  0.2981 -0.9474
18501TIP3    H176918   0.693   3.233  12.472  1.1766  0.1325 -0.1137
18501TIP3    H276919   0.801   3.143  12.417  0.4353 -1.5887  1.1643
18502TIP3   OH276920   0.966   6.356   2.680  0.1254  0.2848  0.3431
18502TIP3    H176921   0.931   6.287   2.737  0.3257 -2.2035 -2.3097
18502TIP3    H276922   1.046   6.385   2.724  0.5232 -1.8633  1.1508
18503TIP3   OH276923   0.281   3.672  13.256  0.2085  0.2164  0.1066
18503TIP3    H176924   0.292   3.766  13.272 -0.2069  0.3812 -0.5175
18503TIP3    H276925   0.357   3.631  13.298  0.0464  0.7638  0.9688
18504TIP3   OH276926   5.779   4.400   0.946  0.0277  0.6665 -0.2569
18504TIP3    H176927   5.700   4.452   0.956  0.6732  1.4593  1.0074
18504TIP3    H276928   5.850   4.464   0.948  0.7871 -0.1655  0.3367
18505TIP3   OH276929   5.397   4.078  13.088 -0.0733  0.2317 -0.3046
18505TIP3    H176930   5.393   4.128  13.007  0.8418  2.8109  1.1109
18505TIP3    H276931   5.402   3.986  13.061 -0.8458  0.9413 -3.0845
18506TIP3   OH276932   2.601   3.944  11.102  1.0995 -0.0260 -0.3639
18506TIP3    H176933   2.637   3.981  11.022  3.1798  0.6884  0.8428
18506TIP3    H276934   2.519   3.991  11.115  0.4771 -0.4888 -2.2782
18507TIP3   OH276935   5.569   1.750   3.724  0.0891 -0.0261  0.1768
18507TIP3    H176936   5.556   1.768   3.631  0.9357 -0.1962  0.0221
18507TIP3    H276937   5.490   1.785   3.766  1.4688  4.0285 -0.1225
18508TIP3   OH276938   4.840   1.571  13.497  0.5046 -0.2877  0.0370
18508TIP3    H176939   4.906   1.597  13.432 -0.4577  0.3355 -0.7210
18508TIP3    H276940   4.888   1.567  13.580  1.0209  2.6551 -0.0126
18509TIP3   OH276941   2.330   0.766   1.678 -0.2271 -0.5100  0.3489
18509TIP3    H176942   2.361   0.690   1.629  0.3745  0.1666 -0.3404
18509TIP3    H276943   2.410   0.810   1.708 -0.5781 -0.5547  1.3917
18510TIP3   OH276944   4.020   3.654  16.529  0.3541  0.0443  0.3442
18510TIP3    H176945   4.053   3.586  16.587  1.3654 -1.7894 -2.2013
18510TIP3    H276946   4.097   3.709  16.511  0.1217  0.4210  0.4938
18511TIP3   OH276947   5.806   3.085   1.908  0.2888 -0.5412  0.7038
18511TIP3    H176948   5.769   3.094   1.996 -0.0302  1.3563  0.4148
18511TIP3    H276949   5.861   3.163   1.897  0.6434 -0.9524 -0.6296
18512TIP3   OH276950   1.931   6.658   3.259 -1.0445  0.8873 -0.4645
18512TIP3    H176951   1.908   6.568   3.280 -1.8631  0.7877 -1.6814
18512TIP3    H276952   1.929   6.662   3.164 -0.5835  2.0852 -0.4459
18513TIP3   OH276953   4.821   4.047   0.427 -0.2666  0.3216 -0.3587
18513TIP3    H176954   4.731   4.014   0.429 -0.3748  0.6361  0.1768
18513TIP3    H276955   4.819   4.126   0.481  0.6356 -0.4300  0.8150
18514TIP3   OH276956   3.060   3.525  10.710 -0.2399  0.0047  0.3561
18514TIP3    H176957   2.971   3.504  10.681 -1.5556  1.5139  2.9617
18514TIP3    H276958   3.066   3.485  10.797  1.4675  0.3328  0.4068
18515TIP3   OH276959   0.548   5.335   5.731 -0.0264  0.3027 -0.0341
18515TIP3    H176960   0.633   5.360   5.696 -0.7664  1.2765 -1.2016
18515TIP3    H276961   0.495   5.415   5.727 -1.3010 -0.5165 -0.2480
18516TIP3   OH276962   4.099   4.569  17.080  0.3897  0.0607  0.0270
18516TIP3    H176963   4.018   4.600  17.038  0.7782  0.3560 -0.5079
18516TIP3    H276964   4.092   4.474  17.076  0.3875  0.0803 -0.6619
18517TIP3   OH276965   5.311   2.303  12.386 -0.2783  0.6931 -0.1466
18517TIP3    H176966   5.381   2.310  12.450  0.1795  1.1550 -0.6882
18517TIP3    H276967   5.281   2.393  12.373  0.1085  0.7029 -1.0885
18518TIP3   OH276968   2.366   0.723   4.348 -0.6319  0.1545  0.7276
18518TIP3    H176969   2.296   0.760   4.402 -0.9705  1.8356 -0.7613
18518TIP3    H276970   2.337   0.739   4.258  0.2402 -1.9343  0.0182
18519TIP3   OH276971   0.039   1.361   2.645 -0.1150  0.3369  0.0099
18519TIP3    H176972  -0.023   1.399   2.707  0.7167  2.4483 -0.3924
18519TIP3    H276973   0.124   1.365   2.689 -0.1059 -2.1471  0.3901
18520TIP3   OH276974   6.533   0.249   2.192  0.2031  0.2154 -0.5976
18520TIP3    H176975   6.541   0.339   2.159 -0.8973  0.7241  0.4241
18520TIP3    H276976   6.552   0.257   2.286  1.4093 -0.8614 -0.7387
18521TIP3   OH276977   1.858   2.462   4.786 -0.2002  0.0478 -0.4438
18521TIP3    H176978   1.946   2.429   4.802  0.7367  1.4292 -2.2979
18521TIP3    H276979   1.822   2.404   4.719 -0.1665  0.2673 -0.6550
18522TIP3   OH276980   4.022   5.601  12.440  0.1346 -0.2852  0.3635
18522TIP3    H176981   3.992   5.521  12.484 -0.2700 -0.8626 -0.8873
18522TIP3    H276982   3.954   5.666  12.459  0.2682 -0.3424  1.0693
18523TIP3   OH276983   1.740   6.024  12.824 -0.1956  0.4189  0.1644
18523TIP3    H176984   1.723   5.965  12.750 -1.8879  0.1326  0.7321
18523TIP3    H276985   1.831   6.051  12.813  0.6229 -2.2040 -0.2049
18524TIP3   OH276986   0.922   4.181  16.878 -0.2141  0.7210 -0.0609
18524TIP3    H176987   0.918   4.176  16.782  0.8783 -1.8540 -0.0549
18524TIP3    H276988   1.011   4.155  16.900 -0.4686  1.1944  1.6672
18525TIP3   OH276989   1.797   3.594  11.471  0.2455  0.0118  0.0736
18525TIP3    H176990   1.785   3.646  11.550  0.9423  0.4202 -0.0838
18525TIP3    H276991   1.807   3.504  11.502  1.6505  0.3127  0.5406
18526TIP3   OH276992   3.360   3.837   4.878 -0.5341  0.1289 -0.0069
18526TIP3    H176993   3.348   3.771   4.810 -1.5991  0.3483 -0.0414
18526TIP3    H276994   3.313   3.914   4.846  0.6694  0.9142  0.0396
18527TIP3   OH276995   4.369   2.980  11.493  0.3407 -0.6881  0.1265
18527TIP3    H176996   4.405   3.045  11.433  2.0383 -0.7790  0.9866
18527TIP3    H276997   4.275   2.979  11.474  0.7115 -0.1769 -1.9759
18528TIP3   OH276998   1.901   1.402   1.135 -0.1471 -0.4433  0.0379
18528TIP3    H176999   1.891   1.498   1.137  1.3289 -0.2435 -0.8013
18528TIP3    H277000   1.904   1.377   1.227 -4.3867 -0.2032  0.4183
18529TIP3   OH277001   1.925   4.216   0.269  0.6730 -0.1783 -0.2162
18529TIP3    H177002   1.892   4.245   0.354  1.7041 -0.1903  0.2037
18529TIP3    H277003   2.020   4.212   0.280  0.7011 -2.0294 -0.7812
18530TIP3   OH277004   0.115   3.498  11.836 -0.3229  0.0693  0.4724
18530TIP3    H177005   0.104   3.416  11.787 -0.6910  1.2880 -1.6002
18530TIP3    H277006   0.025   3.525  11.857 -0.1570 -0.7694  2.5264
18531TIP3   OH277007   6.191   3.806  14.234 -0.3606 -1.0107  0.1549
18531TIP3    H177008   6.231   3.890  14.258 -1.9089  0.2760 -1.4685
18531TIP3    H277009   6.263   3.756  14.195  0.8544 -0.9516  2.1829
18532TIP3   OH277010   0.318   6.018  14.911  0.6103  0.3809 -0.5543
18532TIP3    H177011   0.263   6.093  14.937 -1.2377 -1.0771 -0.0691
18532TIP3    H277012   0.326   5.965  14.990 -0.0246 -1.0738 -1.4263
18533TIP3   OH277013   6.275   5.078  14.308  0.2887  0.4281 -0.0897
18533TIP3    H177014   6.205   5.123  14.354  0.2804 -0.5646  0.8832
18533TIP3    H277015   6.236   4.997  14.277  0.2860  1.0715 -1.9124
18534TIP3   OH277016   6.753   1.672   6.459  0.4890  0.0690 -0.3466
18534TIP3    H177017   6.693   1.637   6.524  0.1972 -0.5882 -0.9635
18534TIP3    H277018   6.834   1.623   6.472 -0.0329 -1.1507 -1.4563
18535TIP3   OH277019   5.684   3.376  16.088  0.4802 -0.1610  0.1984
18535TIP3    H177020   5.659   3.466  16.066  1.1438  0.5933  2.2434
18535TIP3    H277021   5.606   3.338  16.128  0.3307 -0.3623 -0.2786
18536TIP3   OH277022   4.514   2.484  14.913  0.1837  0.0710 -0.2505
18536TIP3    H177023   4.497   2.466  15.006 -2.2098 -2.2034 -0.9756
18536TIP3    H277024   4.589   2.429  14.891  0.1256 -0.1660  0.1349
18537TIP3   OH277025   5.127   1.753  11.069  0.0333  0.3653  0.5618
18537TIP3    H177026   5.141   1.827  11.011 -0.2636  0.4130  0.5488
18537TIP3    H277027   5.054   1.705  11.030  0.1503  0.1290  0.6309
18538TIP3   OH277028   1.093   0.702   6.495 -0.4305  0.8152 -0.6307
18538TIP3    H177029   1.047   0.625   6.461 -0.3252  0.1288  0.7320
18538TIP3    H277030   1.024   0.768   6.506 -0.5954  0.7704 -1.3598
18539TIP3   OH277031   1.680   6.155   4.839 -0.3250  0.3678  0.0421
18539TIP3    H177032   1.689   6.064   4.867 -1.2000  0.1444 -0.3775
18539TIP3    H277033   1.666   6.204   4.920 -0.9457 -0.0215  0.1772
18540TIP3   OH277034   0.608   4.015   3.959 -0.0152  0.3296  0.1583
18540TIP3    H177035   0.568   3.967   4.031 -0.0222  0.1768  0.0546
18540TIP3    H277036   0.547   4.086   3.939 -0.5189 -0.2409 -0.3794
18541TIP3   OH277037   5.634   5.393  12.793 -0.0838  0.3033 -0.0529
18541TIP3    H177038   5.701   5.325  12.801  0.6472  1.1303  1.3802
18541TIP3    H277039   5.605   5.389  12.702  0.7192 -1.1832 -0.2698
18542TIP3   OH277040   3.854   4.073  14.267 -0.1804 -0.2662  0.3709
18542TIP3    H177041   3.784   4.114  14.216 -0.5741 -2.2806 -0.8528
18542TIP3    H277042   3.934   4.119  14.241 -0.7981  0.8179  0.3482
18543TIP3   OH277043   1.956   1.070   1.260  0.4989  0.3406 -0.1622
18543TIP3    H177044   1.939   1.105   1.347 -1.2261 -0.7474 -0.0007
18543TIP3    H277045   2.016   1.132   1.219 -0.6991  2.2750  0.8725
18544TIP3   OH277046   5.848   6.007  15.476  0.4608  0.2836 -0.7131
18544TIP3    H177047   5.938   6.031  15.500  0.3748  0.4580 -0.5658
18544TIP3    H277048   5.793   6.052  15.539  0.3655 -1.7283  0.7495
18545TIP3   OH277049   4.521   2.148   0.774 -0.5980 -0.4697  0.4920
18545TIP3    H177050   4.614   2.153   0.795 -0.7912 -1.1547  1.5945
18545TIP3    H277051   4.498   2.236   0.745  0.6203 -0.5523 -0.8748
18546TIP3   OH277052   3.702   6.742   3.412  0.1025  0.2322  0.9992
18546TIP3    H177053   3.768   6.744   3.343 -0.6342  0.5461  0.2807
18546TIP3    H277054   3.663   6.829   3.410 -1.7247 -0.5410 -0.0138
18547TIP3   OH277055   5.389   2.649   5.755  0.1152  0.1258 -0.1451
18547TIP3    H177056   5.391   2.708   5.830 -0.3520 -0.6889  0.5288
18547TIP3    H277057   5.468   2.596   5.765  0.2718  0.3024 -0.4627
18548TIP3   OH277058   1.135   1.203   1.687  0.8773 -0.0941 -0.0642
18548TIP3    H177059   1.223   1.211   1.726  0.7956 -1.0255  0.3304
18548TIP3    H277060   1.083   1.158   1.753  1.0143 -2.7513 -1.5967
18549TIP3   OH277061   0.748   0.629   2.456 -0.0306  0.3262 -0.2940
18549TIP3    H177062   0.718   0.616   2.367  1.6742 -0.8313 -0.7390
18549TIP3    H277063   0.786   0.545   2.482  1.8509  1.3600  0.5493
18550TIP3   OH277064   5.440   6.137  14.694 -0.6068 -0.8334  0.2241
18550TIP3    H177065   5.474   6.048  14.685  2.7479  0.3781 -0.4687
18550TIP3    H277066   5.448   6.176  14.607 -2.0562  0.1480  0.4971
18551TIP3   OH277067   2.652   4.903  15.531  0.9267  0.6504  0.2392
18551TIP3    H177068   2.637   4.945  15.447  1.1114 -0.3333 -0.2989
18551TIP3    H277069   2.630   4.811  15.517 -0.3665  0.6975  1.6360
18552TIP3   OH277070   2.608   2.000   5.333  0.2911 -0.0254  0.4130
18552TIP3    H177071   2.675   1.936   5.308 -0.6723 -0.3272 -1.5636
18552TIP3    H277072   2.609   2.064   5.263  0.0429  1.2204  1.5052
18553TIP3   OH277073   2.130   2.673  16.687  0.1854  0.2532  0.3200
18553TIP3    H177074   2.226   2.670  16.690  0.1376 -0.6447  1.6059
18553TIP3    H277075   2.106   2.607  16.622  0.4333  0.9968 -0.5610
18554TIP3   OH277076   4.340   1.692  13.750  0.7636 -0.4761  0.1682
18554TIP3    H177077   4.389   1.770  13.776 -0.6033  0.2546  0.6457
18554TIP3    H277078   4.251   1.724  13.734  0.8276 -1.4079 -2.5306
18555TIP3   OH277079   2.038   2.388   3.994 -0.5034 -0.1587  0.0678
18555TIP3    H177080   2.028   2.448   4.068 -2.0415 -2.8947  2.2494
18555TIP3    H277081   1.949   2.378   3.959  0.0852  0.4985 -1.7385
18556TIP3   OH277082   2.198   3.940   5.354 -0.1003  0.8094  0.3654
18556TIP3    H177083   2.190   3.889   5.273 -0.3858 -1.8591  1.9484
18556TIP3    H277084   2.116   3.988   5.361 -0.7525 -0.2058 -0.1464
18557TIP3   OH277085   2.781   5.809   4.946 -0.2757 -0.1008  0.4632
18557TIP3    H177086   2.768   5.727   4.898  2.4968  0.9425 -2.4263
18557TIP3    H277087   2.846   5.789   5.013 -0.1150 -0.3973  0.2150
18558TIP3   OH277088   6.476   6.397   5.793 -0.2553 -0.5037  0.3573
18558TIP3    H177089   6.563   6.359   5.784 -0.4856 -0.8647 -0.4658
18558TIP3    H277090   6.416   6.325   5.775 -0.7903 -0.7276  2.7072
18559TIP3   OH277091   4.138   1.750  12.188 -0.5588  1.0539  0.5647
18559TIP3    H177092   4.149   1.810  12.262  0.9132  1.2429  0.2211
18559TIP3    H277093   4.155   1.663  12.225  1.7332  1.2790  0.1896
18560TIP3   OH277094   6.653   0.779   4.278 -0.1148 -0.3334  0.2755
18560TIP3    H177095   6.564   0.785   4.313  0.0351  2.4137  0.3910
18560TIP3    H277096   6.661   0.852   4.217  1.3977 -1.8313 -1.4528
18561TIP3   OH277097   2.597   2.205   2.843 -0.4702  0.0480  0.9029
18561TIP3    H177098   2.661   2.225   2.774 -1.0172 -0.9041  0.0937
18561TIP3    H277099   2.523   2.262   2.824 -0.2967  0.3712  1.1927
18562TIP3   OH277100   2.817   5.030   0.149 -0.0983  0.8807 -0.3367
18562TIP3    H177101   2.867   5.110   0.164 -2.1836  2.1853  0.0981
18562TIP3    H277102   2.733   5.060   0.114 -0.9467 -1.1278 -0.1896
18563TIP3   OH277103   4.061   0.213   6.524  0.3092  0.0327  0.0545
18563TIP3    H177104   4.090   0.256   6.443 -0.0853  0.6365  0.2352
18563TIP3    H277105   3.980   0.168   6.500 -1.5824  2.7813  0.8179
18564TIP3   OH277106   4.776   6.010  15.822 -0.3381 -0.0959 -0.3791
18564TIP3    H177107   4.703   6.067  15.801  1.3099  2.7322  0.9728
18564TIP3    H277108   4.743   5.951  15.890 -1.6501  0.3079 -0.6467
18565TIP3   OH277109   5.406   3.181  12.803  0.6486  0.4003  0.9132
18565TIP3    H177110   5.358   3.197  12.721  1.3919  0.2206  0.4317
18565TIP3    H277111   5.339   3.149  12.864  0.1627  0.0910  0.2384
18566TIP3   OH277112   3.873   6.486   0.061  0.1027 -0.4951 -0.4368
18566TIP3    H177113   3.929   6.465   0.136 -0.2319 -1.7347 -0.5004
18566TIP3    H277114   3.804   6.542   0.097  1.5194  1.3007 -0.4160
18567TIP3   OH277115   1.015   3.836  13.758  0.0911  0.1363  0.0733
18567TIP3    H177116   1.073   3.799  13.825  1.1238  0.0876 -0.8170
18567TIP3    H277117   0.937   3.781  13.762  0.7198 -0.7825  0.2747
18568TIP3   OH277118   5.847   6.038  15.780 -0.2190 -0.3952 -0.3076
18568TIP3    H177119   5.796   6.067  15.856 -1.2399  2.0994 -1.8413
18568TIP3    H277120   5.814   5.950  15.762 -0.5999 -0.6804  1.5721
18569TIP3   OH277121   1.480   6.488  15.850 -0.5963  0.2710  0.0257
18569TIP3    H177122   1.415   6.429  15.889 -1.5485  0.5718 -1.0547
18569TIP3    H277123   1.522   6.529  15.925 -1.2879 -0.3196  0.7665
18570TIP3   OH277124   4.861   6.300   3.035  0.1239 -0.1945 -0.0593
18570TIP3    H177125   4.773   6.276   3.063  0.4014  1.8081  3.0213
18570TIP3    H277126   4.919   6.242   3.084  0.5788 -0.6879 -1.1453
18571TIP3   OH277127   3.999   6.405  14.168 -0.1153  0.6285  0.0692
18571TIP3    H177128   4.021   6.365  14.252 -0.5686  0.0305 -0.0937
18571TIP3    H277129   3.909   6.437  14.180  0.0957  1.2360  0.0627
18572TIP3   OH277130   1.433   1.720  14.246 -0.8566  0.0967 -0.4853
18572TIP3    H177131   1.392   1.807  14.243 -0.9916  0.0256 -0.7770
18572TIP3    H277132   1.449   1.704  14.339 -0.6774  0.5061 -0.4444
18573TIP3   OH277133   2.467   3.556  16.608  0.0661 -0.0757 -0.5536
18573TIP3    H177134   2.399   3.529  16.670  1.0887  0.7266  0.9772
18573TIP3    H277135   2.426   3.626  16.557 -0.6826 -0.5185 -0.5695
18574TIP3   OH277136   0.389   6.367   5.359  0.0775 -0.2115  0.6383
18574TIP3    H177137   0.315   6.308   5.375 -1.0333  0.5424 -1.2987
18574TIP3    H277138   0.386   6.430   5.430 -0.4594 -0.8469  1.1892
18575TIP3   OH277139   3.433   1.089  13.272 -0.5354 -0.1914 -0.1658
18575TIP3    H177140   3.346   1.055  13.294 -0.3251  0.0775  1.1555
18575TIP3    H277141   3.492   1.015  13.287 -0.3494  0.0911  0.5221
18576TIP3   OH277142   3.337   1.126   0.874  0.6493 -0.5657 -0.3880
18576TIP3    H177143   3.368   1.214   0.895  1.0349  0.0090 -2.9745
18576TIP3    H277144   3.410   1.069   0.895  1.6949  0.1798 -1.8158
18577TIP3   OH277145   1.238   4.917   0.113  0.3777 -0.0297 -0.7676
18577TIP3    H177146   1.312   4.974   0.133  0.2087  0.6050 -1.8662
18577TIP3    H277147   1.250   4.840   0.170  1.2316  0.5827 -0.1040
18578TIP3   OH277148   0.246   6.297  16.092  0.4948  0.0028  0.2573
18578TIP3    H177149   0.258   6.219  16.039 -0.9206 -0.4368  0.5340
18578TIP3    H277150   0.244   6.265  16.182  1.5024  0.5655  0.4893
18579TIP3   OH277151   5.818   4.037  16.994  0.1740  0.2612  0.1595
18579TIP3    H177152   5.847   3.947  17.004  0.5116  0.3307 -0.1417
18579TIP3    H277153   5.891   4.090  17.026 -0.8650  0.4314  2.4418
18580TIP3   OH277154   5.793   3.260   1.668  0.4166 -0.1692 -0.2730
18580TIP3    H177155   5.741   3.180   1.670 -0.7457  0.5148  2.5558
18580TIP3    H277156   5.731   3.330   1.691  1.6065  1.4167 -1.6221
18581TIP3   OH277157   2.460   3.707  12.639 -0.1924 -0.0122  0.0425
18581TIP3    H177158   2.431   3.794  12.664  0.9731  0.5657 -0.5252
18581TIP3    H277159   2.514   3.721  12.562 -1.2276 -1.4148 -0.9939
18582TIP3   OH277160   4.240   6.257   5.544 -0.3476  0.1104 -0.7718
18582TIP3    H177161   4.235   6.211   5.460 -0.9398 -2.2494  0.4530
18582TIP3    H277162   4.313   6.215   5.590 -0.0317  1.3591 -0.0996
18583TIP3   OH277163   4.849   4.205   2.972  0.2888 -0.5831 -0.3066
18583TIP3    H177164   4.775   4.185   3.029  0.0563 -1.7510 -0.9871
18583TIP3    H277165   4.808   4.230   2.888  0.6471 -1.8832 -0.8918
18584TIP3   OH277166   0.540   2.963  16.685  0.0892  0.5567  0.3082
18584TIP3    H177167   0.613   2.979  16.626  0.7341  1.9301  1.4302
18584TIP3    H277168   0.579   2.918  16.761 -0.9518 -2.5008 -0.7974
18585TIP3   OH277169   2.124   4.902   3.382  0.4145  0.1526 -0.6018
18585TIP3    H177170   2.183   4.872   3.451 -0.3427  0.5968  0.2470
18585TIP3    H277171   2.057   4.952   3.427 -0.7744 -0.5567 -1.5167
18586TIP3   OH277172   2.049   3.266   3.393  0.8966  0.1696  0.3432
18586TIP3    H177173   2.111   3.333   3.367 -1.1157  1.5449 -1.2951
18586TIP3    H277174   2.061   3.197   3.327  1.0898  0.1645  0.3830
18587TIP3   OH277175   5.982   1.595   3.035  0.1069  0.0263 -0.0103
18587TIP3    H177176   5.916   1.595   2.966 -2.3707 -0.1418  2.2398
18587TIP3    H277177   5.995   1.688   3.056  1.4770  0.1389 -1.1471
18588TIP3   OH277178   6.516   1.225  11.735  0.2519  0.1453  0.1138
18588TIP3    H177179   6.498   1.135  11.708  1.2760 -0.3630  1.0121
18588TIP3    H277180   6.599   1.219  11.784 -0.5584  1.2668  1.7195
18589TIP3   OH277181   2.927   4.210  11.296 -0.3737  0.1050  0.1676
18589TIP3    H177182   2.959   4.152  11.227 -1.8386 -1.0775  0.4444
18589TIP3    H277183   2.833   4.217  11.280 -0.4761  1.1242  1.1004
18590TIP3   OH277184   2.816   3.898  14.089  0.0692 -0.8440 -0.3614
18590TIP3    H177185   2.872   3.885  14.166  1.2711 -2.3975 -1.4289
18590TIP3    H277186   2.846   3.981  14.052  0.2286 -0.6244  0.2505
18591TIP3   OH277187   0.074   5.119  13.970  0.6653 -0.0573  0.5288
18591TIP3    H177188  -0.001   5.112  13.911  0.2710  2.4427  0.6224
18591TIP3    H277189   0.134   5.051  13.940 -0.3431 -0.1434 -1.5086
18592TIP3   OH277190   4.337   2.099  12.045 -0.0476  0.0896  0.2000
18592TIP3    H177191   4.268   2.033  12.039  0.9414 -0.9647 -0.0125
18592TIP3    H277192   4.374   2.103  11.957  1.0108 -0.3354  0.6071
18593TIP3   OH277193   6.542   2.439   0.232  1.3745  0.7294 -0.0598
18593TIP3    H177194   6.597   2.516   0.246 -0.0420  1.9325 -0.7633
18593TIP3    H277195   6.468   2.451   0.292  0.9754  0.0958 -0.4150
18594TIP3   OH277196   0.230   5.118  11.623 -0.1699  0.0914 -0.1351
18594TIP3    H177197   0.247   5.208  11.594 -0.3828  0.7921  1.7804
18594TIP3    H277198   0.275   5.112  11.707 -1.0208 -1.2773  0.2364
18595TIP3   OH277199   3.434   4.208   0.586  0.2677 -0.0026  0.0697
18595TIP3    H177200   3.440   4.121   0.625  2.6440  0.4075  0.7547
18595TIP3    H277201   3.401   4.263   0.656 -4.3083 -0.7232 -1.1960
18596TIP3   OH277202   1.229   4.605   1.334  0.6980 -0.0892 -0.3168
18596TIP3    H177203   1.316   4.643   1.345  0.5195  0.8982 -1.9287
18596TIP3    H277204   1.243   4.511   1.342  1.9718  0.0326 -0.8433
18597TIP3   OH277205   6.203   3.323  15.033 -0.4958 -0.2212  0.1410
18597TIP3    H177206   6.240   3.235  15.024 -0.7786 -0.6775  2.7256
18597TIP3    H277207   6.274   3.382  15.008 -0.4648 -1.1296 -2.1394
18598TIP3   OH277208   3.469   4.043   3.885  0.4505 -0.2226  0.0364
18598TIP3    H177209   3.482   3.958   3.844 -1.1710 -0.9124  0.8662
18598TIP3    H277210   3.429   4.097   3.816  1.6597 -0.0407 -0.5497
18599TIP3   OH277211   5.513   2.339  16.663 -0.2457 -0.3119  0.2406
18599TIP3    H177212   5.566   2.262  16.645 -0.3083 -0.6841  1.5436
18599TIP3    H277213   5.539   2.367  16.751 -2.5676 -0.8634  1.1761
18600TIP3   OH277214   4.878   0.220  14.973 -0.2193  0.1636  0.2075
18600TIP3    H177215   4.953   0.258  14.927 -1.4332  0.8800 -1.2911
18600TIP3    H277216   4.827   0.177  14.905 -0.8962 -0.7927  1.2814
18601TIP3   OH277217   1.233   3.206  15.600  0.7656  0.1431 -0.3485
18601TIP3    H177218   1.169   3.211  15.671  0.4763  3.2787 -0.6924
18601TIP3    H277219   1.314   3.239  15.639  1.2115 -0.2572 -0.9159
18602TIP3   OH277220   0.789   3.966   3.109 -0.3600 -0.9756 -0.2307
18602TIP3    H177221   0.801   4.028   3.037 -0.8547 -2.0358 -1.2689
18602TIP3    H277222   0.858   3.987   3.171 -0.0525  0.1036 -0.9155
18603TIP3   OH277223   5.740   6.252  13.587 -0.0377  0.3002 -0.1747
18603TIP3    H177224   5.653   6.286  13.606  0.4237  1.9452 -0.8169
18603TIP3    H277225   5.735   6.158  13.606 -2.1733  0.1992 -1.0493
18604TIP3   OH277226   2.786   1.550   2.438 -0.2384  0.1968 -0.0650
18604TIP3    H177227   2.810   1.522   2.526  0.6984  0.1517 -0.3233
18604TIP3    H277228   2.716   1.491   2.412 -2.4571  1.8868  1.6710
18605TIP3   OH277229   0.454   4.946   6.073 -0.0736  0.0827  0.4401
18605TIP3    H177230   0.375   4.999   6.062 -1.7467 -2.4243 -0.8416
18605TIP3    H277231   0.479   4.922   5.984  0.8773 -0.8683  0.9487
18606TIP3   OH277232   3.892   4.893   1.780 -0.3769 -0.0897  0.1901
18606TIP3    H177233   3.855   4.975   1.749  0.1631  0.4894  1.0468
18606TIP3    H277234   3.834   4.825   1.744 -0.5258  0.6201 -0.9516
18607TIP3   OH277235   5.634   3.406  14.352 -0.5059  0.2705  0.3329
18607TIP3    H177236   5.579   3.327  14.353  0.2788 -0.3798 -1.6014
18607TIP3    H277237   5.615   3.450  14.434 -2.6503 -0.7878  0.4787
18608TIP3   OH277238   1.212   1.669  12.711  0.2402 -0.6755  0.1112
18608TIP3    H177239   1.230   1.762  12.697  1.6306 -1.1921 -2.0736
18608TIP3    H277240   1.211   1.632  12.623 -3.2496 -2.2979  0.6609
18609TIP3   OH277241   6.256   0.144  12.430 -0.0901 -0.5414  0.0316
18609TIP3    H177242   6.252   0.204  12.504  2.9565 -0.2960  0.1490
18609TIP3    H277243   6.183   0.084  12.443 -1.3925  1.2673  1.5817
18610TIP3   OH277244   6.023   4.215  15.265  0.2973 -0.0790  0.0127
18610TIP3    H177245   6.012   4.304  15.231 -0.0926 -0.1600 -0.0779
18610TIP3    H277246   5.935   4.178  15.265  0.4533 -0.4585  0.0729
18611TIP3   OH277247   0.283   4.364   6.533  0.1899  0.6343  0.9599
18611TIP3    H177248   0.331   4.307   6.593  1.7158  1.4181  0.5372
18611TIP3    H277249   0.337   4.443   6.526 -0.5327  1.0436 -0.5299
18612TIP3   OH277250   5.488   3.625  11.395  0.2383  0.1417 -0.0842
18612TIP3    H177251   5.541   3.597  11.321 -0.4346 -1.5310  0.0218
18612TIP3    H277252   5.505   3.559  11.463 -1.8997 -0.4365 -0.0321
18613TIP3   OH277253   4.489   3.117   2.434  0.3371  0.5972 -0.2875
18613TIP3    H177254   4.478   3.170   2.512  3.0819  0.9610 -0.0774
18613TIP3    H277255   4.490   3.180   2.362  0.2117  0.4832 -0.3907
18614TIP3   OH277256   6.351   3.697   4.217 -0.4658  0.7217  0.1307
18614TIP3    H177257   6.280   3.708   4.279  0.1584 -0.1031  1.0215
18614TIP3    H277258   6.425   3.667   4.270 -0.8775 -3.7002 -1.3549
18615TIP3   OH277259   3.981   0.149  14.196 -0.1521  0.3235  0.2218
18615TIP3    H177260   3.894   0.168  14.231 -0.3383  0.6387 -0.3955
18615TIP3    H277261   4.040   0.173  14.268 -0.6711 -3.3324  2.0969
18616TIP3   OH277262   1.775   4.950  15.013 -0.0805  0.1633  0.2702
18616TIP3    H177263   1.716   5.022  15.035 -1.5509 -0.5402 -1.1725
18616TIP3    H277264   1.852   4.992  14.976 -0.9697  1.0026 -0.6674
18617TIP3   OH277265   2.912   1.374  17.041 -0.1756  0.4403 -0.1053
18617TIP3    H177266   3.008   1.371  17.042 -0.1617  0.7365 -0.2311
18617TIP3    H277267   2.890   1.389  16.949 -0.3778 -0.5139 -0.2274
18618TIP3   OH277268   5.653   1.448   2.535  0.3914 -0.3619 -0.0919
18618TIP3    H177269   5.635   1.541   2.545  0.8922 -0.5004  4.2109
18618TIP3    H277270   5.586   1.405   2.590 -0.4120 -2.6926 -2.6677
18619TIP3   OH277271   3.004   0.135  15.309  0.1105 -0.1059  0.0321
18619TIP3    H177272   2.967   0.057  15.351  0.9177 -0.9994 -0.8678
18619TIP3    H277273   2.940   0.204  15.327 -1.8687 -1.5052 -1.1696
18620TIP3   OH277274   0.389   2.363  15.701  0.3708 -0.1193  0.4348
18620TIP3    H177275   0.345   2.347  15.784  0.7473 -0.7476  0.5163
18620TIP3    H277276   0.418   2.276  15.672 -1.2432 -0.1862 -1.1856
18621TIP3   OH277277   6.392   5.649   2.755 -0.5028 -0.1008  0.5058
18621TIP3    H177278   6.300   5.639   2.782  0.2243 -2.0941  2.5225
18621TIP3    H277279   6.433   5.693   2.829  0.7673 -2.1061  1.0616
18622TIP3   OH277280   6.706   2.642  16.991 -0.1388 -0.4719  0.6854
18622TIP3    H177281   6.727   2.553  16.962 -1.3079 -0.8951  1.0985
18622TIP3    H277282   6.696   2.635  17.085 -1.1768 -0.1109  0.6140
18623TIP3   OH277283   2.183   3.321  16.849  0.2571  0.3414  1.0674
18623TIP3    H177284   2.169   3.293  16.759  1.1922  1.0066  0.7039
18623TIP3    H277285   2.155   3.246  16.902 -1.6203  0.4563  0.2924
18624TIP3   OH277286   6.063   3.834  16.835 -0.1155  0.3070 -0.5597
18624TIP3    H177287   6.075   3.739  16.830  0.0198  0.1717  1.3028
18624TIP3    H277288   6.048   3.850  16.929 -0.5238  2.0802 -0.9025
18625TIP3   OH277289   1.268   0.922  16.101  0.1173 -0.2192  0.2979
18625TIP3    H177290   1.229   0.952  16.183 -0.3083 -1.3034  0.5040
18625TIP3    H277291   1.197   0.929  16.037  0.4572  0.6534 -0.0051
18626TIP3   OH277292   0.539   2.445   1.897  0.2206 -0.7023  0.4184
18626TIP3    H177293   0.509   2.520   1.845 -0.5291  0.0554  1.9026
18626TIP3    H277294   0.581   2.387   1.832  0.7073  0.9073 -0.7854
18627TIP3   OH277295   0.206   6.189  15.560  0.8004  0.9043 -0.4574
18627TIP3    H177296   0.147   6.263  15.541  0.3100  0.5713 -0.2388
18627TIP3    H277297   0.204   6.137  15.480 -0.8178 -0.1936  0.2464
18628TIP3   OH277298   3.840   6.566  12.092  0.0695 -0.3789 -0.0938
18628TIP3    H177299   3.863   6.615  12.171 -0.6325  1.6702 -1.0823
18628TIP3    H277300   3.891   6.485  12.099  2.2098  0.9511  1.0973
18629TIP3   OH277301   6.070   5.045  13.195 -0.3498  0.1509  0.2138
18629TIP3    H177302   6.117   5.120  13.233 -0.0187 -0.1280  0.3591
18629TIP3    H277303   6.117   5.026  13.115 -0.7899  0.4656 -0.1258
18630TIP3   OH277304   3.412   4.657  12.334  0.1071 -0.2443 -0.2351
18630TIP3    H177305   3.390   4.571  12.369 -0.1168  0.6811  2.0822
18630TIP3    H277306   3.348   4.672  12.264 -0.7253 -1.3791  0.2531
18631TIP3   OH277307   3.446   5.824   1.052  0.1516 -0.0943 -0.7873
18631TIP3    H177308   3.528   5.864   1.024  1.4605 -1.0672  1.4026
18631TIP3    H277309   3.439   5.846   1.144  0.2280 -3.5470  0.1994
18632TIP3   OH277310   4.275   0.965  16.377  0.3750  0.0405 -0.2605
18632TIP3    H177311   4.250   1.048  16.417  2.3134  1.2152 -1.3324
18632TIP3    H277312   4.241   0.898  16.436 -1.7300  1.5627  0.3414
18633TIP3   OH277313   1.545   6.703   5.627  0.1691 -0.0107 -0.4226
18633TIP3    H177314   1.477   6.751   5.673 -0.2783 -0.8844 -0.1534
18633TIP3    H277315   1.562   6.754   5.548  0.5086  1.1795  0.3946
18634TIP3   OH277316   6.164   3.077  15.730  0.0418 -0.0444 -0.5349
18634TIP3    H177317   6.229   3.009  15.751  1.5453  1.4010 -0.2683
18634TIP3    H277318   6.147   3.066  15.636  1.8718  0.4890 -0.9684
18635TIP3   OH277319   0.999   0.656   5.503 -0.0400  0.1097 -0.2049
18635TIP3    H177320   1.086   0.621   5.485  0.2786  1.0612 -0.5367
18635TIP3    H277321   0.947   0.579   5.526  1.0785 -0.3772  0.7895
18636TIP3   OH277322   3.791   0.547  13.155  0.1946 -1.0161 -0.3751
18636TIP3    H177323   3.839   0.543  13.238 -1.5795 -1.7344  0.6813
18636TIP3    H277324   3.795   0.458  13.121 -0.3400 -1.0704 -0.3009
18637TIP3   OH277325   4.850   1.677  11.591  0.0710 -0.3743 -0.3922
18637TIP3    H177326   4.899   1.603  11.556 -2.3550 -1.7954 -0.9999
18637TIP3    H277327   4.801   1.711  11.516 -1.3854 -0.2710  0.5695
18638TIP3   OH277328   3.596   4.388  14.364 -0.1170 -0.8334  0.6822
18638TIP3    H177329   3.568   4.397  14.273  0.9246  1.2903  0.5025
18638TIP3    H277330   3.631   4.299  14.370  0.3600 -0.8134 -1.1753
18639TIP3   OH277331   3.804   0.974  12.351  0.4376 -0.1537 -0.4665
18639TIP3    H177332   3.747   0.918  12.404  1.4325 -0.9492 -0.2025
18639TIP3    H277333   3.771   1.062  12.367  0.7257 -0.3559  1.5355
18640TIP3   OH277334   5.281   0.197  15.816 -0.0143 -0.0604 -0.4371
18640TIP3    H177335   5.208   0.192  15.877 -0.2766 -1.9582 -0.8534
18640TIP3    H277336   5.257   0.139  15.744  2.9086 -2.8407  0.5861
18641TIP3   OH277337   3.952   0.729  12.794  0.6680  1.0391 -0.5959
18641TIP3    H177338   3.874   0.747  12.846  0.8306 -1.1640  0.4940
18641TIP3    H277339   4.017   0.791  12.827  0.0798  1.2514  0.1815
18642TIP3   OH277340   3.987   5.213   3.922 -0.0631  0.6035  0.0281
18642TIP3    H177341   4.017   5.212   4.012  2.6358  0.5185 -0.7812
18642TIP3    H277342   4.007   5.125   3.889  2.5778  1.6740 -1.6013
18643TIP3   OH277343   5.928   4.951   4.808 -0.1254 -0.5956  0.1787
18643TIP3    H177344   5.857   4.998   4.850 -0.6399  0.2076 -1.5159
18643TIP3    H277345   5.928   4.865   4.850  0.8667  0.8105  3.3761
18644TIP3   OH277346   5.879   5.406  15.211  0.1389  0.2025  0.6909
18644TIP3    H177347   5.938   5.350  15.261  1.7603 -0.2089 -1.5131
18644TIP3    H277348   5.865   5.358  15.129  0.2669  2.2790 -0.6106
18645TIP3   OH277349   3.276   2.984  11.966 -0.4634  0.0538 -0.4344
18645TIP3    H177350   3.223   2.965  12.043 -1.2724  0.5909 -0.8470
18645TIP3    H277351   3.213   3.010  11.899  0.2840  0.2540 -1.0763
18646TIP3   OH277352   0.111   2.010  11.187  0.2034 -0.1394  0.2538
18646TIP3    H177353   0.093   1.937  11.246 -0.2261 -1.6096 -1.6056
18646TIP3    H277354   0.079   2.087  11.234  1.5689 -0.9563  2.6971
18647TIP3   OH277355   2.761   5.820  16.814 -0.5131 -0.2671  0.6019
18647TIP3    H177356   2.698   5.876  16.859 -0.2039 -0.1007  0.8341
18647TIP3    H277357   2.739   5.732  16.843 -1.2518 -0.3118 -0.0699
18648TIP3   OH277358   0.357   2.769  15.477 -0.3241  0.1735  0.1111
18648TIP3    H177359   0.383   2.680  15.454 -1.8775 -0.0432 -0.9752
18648TIP3    H277360   0.316   2.760  15.563  3.5852  0.6442  2.2315
18649TIP3   OH277361   5.531   2.535  11.261 -0.2384  0.1697 -0.1632
18649TIP3    H177362   5.549   2.623  11.226 -1.9842  0.6597  0.0449
18649TIP3    H277363   5.570   2.535  11.348 -1.7048  1.4281  0.5558
18650TIP3   OH277364   3.044   2.531  16.044  0.3282  0.2257  0.0946
18650TIP3    H177365   3.042   2.604  15.982  1.1817  2.0636  2.0694
18650TIP3    H277366   3.014   2.570  16.126 -2.1082 -2.4202  0.6192
18651TIP3   OH277367   0.790   2.504  11.263 -0.1375  0.0558 -0.0597
18651TIP3    H177368   0.838   2.457  11.331 -0.0359  1.1648  0.6655
18651TIP3    H277369   0.708   2.456  11.253  0.2980 -0.7326  0.0848
18652TIP3   OH277370   5.716   5.166   2.546  0.1598 -0.2339  0.5634
18652TIP3    H177371   5.676   5.089   2.587  0.0241 -0.8552 -0.7049
18652TIP3    H277372   5.643   5.225   2.530 -0.0086 -0.6326 -0.1602
18653TIP3   OH277373   6.545   0.456   1.431 -0.5699 -0.0880  0.5724
18653TIP3    H177374   6.635   0.468   1.402 -0.7919  0.1920  0.0014
18653TIP3    H277375   6.550   0.384   1.495 -0.2485 -1.5511 -1.0332
18654TIP3   OH277376   2.005   3.590   5.068  0.0082 -0.2871 -0.1233
18654TIP3    H177377   1.959   3.602   5.151 -2.4429  0.3385 -1.4727
18654TIP3    H277378   1.981   3.502   5.039  0.0286 -0.1308 -0.6344
18655TIP3   OH277379   2.946   4.599  12.080 -0.2246  0.2512  0.4242
18655TIP3    H177380   2.887   4.524  12.090 -0.4952  0.5139  0.8168
18655TIP3    H277381   3.034   4.561  12.082 -0.3569 -0.0424  0.7729
18656TIP3   OH277382   5.386   3.752  16.759  0.3276  0.4249  0.2678
18656TIP3    H177383   5.334   3.833  16.767 -1.6996 -0.9039  1.4454
18656TIP3    H277384   5.438   3.750  16.839 -1.3967 -0.5287  1.4401
18657TIP3   OH277385   6.310   0.256  16.455  0.3797 -0.0245  0.1207
18657TIP3    H177386   6.376   0.188  16.440  0.5017  0.2214 -0.4880
18657TIP3    H277387   6.232   0.208  16.480  1.1500 -0.2618  2.2830
18658TIP3   OH277388   2.403   5.747  13.093 -0.0706 -0.0397  0.1149
18658TIP3    H177389   2.413   5.654  13.115  1.5727  0.3173  0.9762
18658TIP3    H277390   2.308   5.761  13.094 -0.3061 -1.4525  1.0373
18659TIP3   OH277391   1.603   0.774   4.314 -0.1641 -0.8411  0.1115
18659TIP3    H177392   1.570   0.863   4.323  0.4681 -0.6184  0.2944
18659TIP3    H277393   1.537   0.729   4.261 -0.6063 -0.3336  0.2234
18660TIP3   OH277394   1.760   3.522   4.908  0.2843 -0.0209  0.1734
18660TIP3    H177395   1.728   3.518   4.998  0.6059 -0.3133  0.2754
18660TIP3    H277396   1.765   3.430   4.881  0.2344  0.0639 -0.1275
18661TIP3   OH277397   4.617   6.042   3.806 -0.2934 -0.4437 -0.2135
18661TIP3    H177398   4.540   6.082   3.765  0.2204  1.5111  0.6087
18661TIP3    H277399   4.592   6.033   3.898  0.3309 -0.1369 -0.0122
18662TIP3   OH277400   4.375   4.421   5.983 -0.0610 -0.1628  0.1220
18662TIP3    H177401   4.375   4.326   5.994  1.3750 -0.1309  0.6531
18662TIP3    H277402   4.333   4.454   6.063 -0.1942 -0.3308  0.1229
18663TIP3   OH277403   0.138   3.655  15.841 -0.2127  0.0403 -0.2141
18663TIP3    H177404   0.198   3.581  15.831  0.7590  1.0108 -2.1548
18663TIP3    H277405   0.078   3.647  15.766  0.2366  1.4842 -0.7472
18664TIP3   OH277406   2.562   4.592  16.067  0.1488 -0.1355 -0.9559
18664TIP3    H177407   2.534   4.571  16.156 -0.8404 -0.7682 -1.4089
18664TIP3    H277408   2.525   4.523  16.012 -0.9573  1.3166 -2.1365
18665TIP3   OH277409   6.421   4.008   4.365 -0.4523  0.0716 -0.3113
18665TIP3    H177410   6.376   3.992   4.282  1.3477 -1.2849 -1.0813
18665TIP3    H277411   6.421   4.103   4.374 -1.3381  0.2123 -1.4811
18666TIP3   OH277412   2.877   2.137   1.052  0.4723  0.0093 -0.2412
18666TIP3    H177413   2.855   2.078   1.125  2.2724  1.4901  1.6058
18666TIP3    H277414   2.960   2.104   1.018  1.9426  1.8192  1.3571
18667TIP3   OH277415   1.549   2.573   0.223  0.3178 -0.1362  0.7375
18667TIP3    H177416   1.544   2.666   0.246  0.1619  0.1212 -0.2862
18667TIP3    H277417   1.504   2.567   0.139 -0.1812 -1.2448  1.0748
18668TIP3   OH277418   4.099   1.105  16.678  0.1546  0.4131 -0.3761
18668TIP3    H177419   4.150   1.059  16.745 -0.2058 -0.0250 -0.3953
18668TIP3    H277420   4.164   1.152  16.626  0.3920  1.3155  0.6910
18669TIP3   OH277421   0.530   6.711  13.502  0.7336 -0.3558  0.1691
18669TIP3    H177422   0.489   6.717  13.588  0.6854  0.9489  0.0732
18669TIP3    H277423   0.623   6.695  13.520  1.0807  1.7799  0.5612
18670TIP3   OH277424   1.904   5.661   2.365  0.0376 -0.2146 -0.4309
18670TIP3    H177425   1.844   5.678   2.437 -1.2123  0.6472 -1.6258
18670TIP3    H277426   1.985   5.708   2.389  0.4759 -1.8316  1.4396
18671TIP3   OH277427   4.641   0.992   3.252 -0.5648 -0.4202 -0.3545
18671TIP3    H177428   4.567   0.955   3.203 -1.3598  1.3470 -0.5571
18671TIP3    H277429   4.675   1.061   3.195  2.2077 -2.0997 -0.8965
18672TIP3   OH277430   5.858   3.525  14.171 -0.3846  0.0895  0.1753
18672TIP3    H177431   5.941   3.549  14.213 -1.4653  0.6351  2.1261
18672TIP3    H277432   5.815   3.468  14.234 -1.6122  0.0119 -0.7030
18673TIP3   OH277433   4.094   6.306   5.167 -0.1954 -0.0272 -0.1998
18673TIP3    H177434   4.067   6.286   5.257  1.7814 -1.7176  0.0899
18673TIP3    H277435   4.035   6.254   5.112  0.1641 -0.9010  0.2367
18674TIP3   OH277436   4.075   2.459  15.478 -0.2336 -0.0017  0.3016
18674TIP3    H177437   4.058   2.546  15.442 -0.7642 -0.3335 -0.2750
18674TIP3    H277438   4.054   2.399  15.407 -0.9140 -0.6541  1.0234
18675TIP3   OH277439   2.709   3.671  12.427  0.1864  0.4803  0.5061
18675TIP3    H177440   2.705   3.660  12.332 -1.0007 -0.1009  0.6101
18675TIP3    H277441   2.727   3.583  12.461  3.2137  1.0728  0.7349
18676TIP3   OH277442   1.995   0.310   6.909 -0.4055 -0.0720  0.2102
18676TIP3    H177443   2.081   0.323   6.948 -0.6445  1.7694  0.2191
18676TIP3    H277444   1.945   0.263   6.976  0.3456 -0.4012  0.5454
18677TIP3   OH277445   0.283   4.744  14.200  0.0164 -0.1304 -0.1644
18677TIP3    H177446   0.330   4.735  14.283  0.7027  0.8734 -0.4365
18677TIP3    H277447   0.236   4.660  14.191  0.5566 -0.5675  0.8343
18678TIP3   OH277448   5.224   0.143  12.960 -0.1070 -0.3876 -0.5135
18678TIP3    H177449   5.241   0.068  13.018 -0.2808  1.6894  2.4286
18678TIP3    H277450   5.129   0.143  12.949 -0.4149  0.8105  1.6710
18679TIP3   OH277451   3.821   0.095  14.447 -0.4091  0.0483 -0.1562
18679TIP3    H177452   3.795   0.105  14.539  0.3769  0.3170  0.0428
18679TIP3    H277453   3.866   0.011  14.444 -2.3195 -1.0151 -0.7517
18680TIP3   OH277454   1.226   0.760   1.689 -0.6609 -0.3076  0.5726
18680TIP3    H177455   1.257   0.683   1.641 -0.9078 -0.4199  0.5896
18680TIP3    H277456   1.204   0.823   1.620  3.2202  1.3005  0.5258
18681TIP3   OH277457   2.646   3.627   4.400 -0.1510  0.3574  0.3722
18681TIP3    H177458   2.729   3.627   4.353 -0.3060  0.6851  0.0851
18681TIP3    H277459   2.668   3.602   4.489  0.4377  1.6635  0.6129
18682TIP3   OH277460   2.383   0.333  16.586  0.1982 -0.1444  0.1807
18682TIP3    H177461   2.410   0.241  16.585  1.0986  0.0675  1.6584
18682TIP3    H277462   2.395   0.363  16.495 -1.6426 -1.8716 -0.6922
18683TIP3   OH277463   5.147   4.963  12.037 -0.0313 -0.0071  0.6846
18683TIP3    H177464   5.215   4.906  12.003 -0.2296  0.3094 -0.2799
18683TIP3    H277465   5.156   5.044  11.987  0.3232  0.8691  2.1087
18684TIP3   OH277466   2.242   2.266   1.721 -0.4436  0.5201  0.0934
18684TIP3    H177467   2.280   2.280   1.807  0.3802 -1.4746  0.1042
18684TIP3    H277468   2.150   2.245   1.738 -0.6011  1.3727  0.3602
18685TIP3   OH277469   3.730   4.858   3.531 -0.1431  0.4650  0.7426
18685TIP3    H177470   3.800   4.923   3.539  0.0851  0.2223  0.7635
18685TIP3    H277471   3.777   4.775   3.524 -0.4199  0.3478  0.2683
18686TIP3   OH277472   3.959   0.304   5.756  0.2750  0.0254 -0.0144
18686TIP3    H177473   3.895   0.358   5.802  1.3535  0.1809  1.3653
18686TIP3    H277474   3.906   0.239   5.709 -0.8868 -0.0706  1.3710
18687TIP3   OH277475   0.894   2.426  11.709 -0.2998  0.0577  0.4296
18687TIP3    H177476   0.880   2.369  11.634  0.7885 -0.7781  0.8435
18687TIP3    H277477   0.985   2.455  11.701  0.9529 -2.6159  3.0890
18688TIP3   OH277478   2.200   3.805  12.928 -1.0025  0.4754 -0.3769
18688TIP3    H177479   2.260   3.733  12.945 -2.2443 -0.1828  1.4854
18688TIP3    H277480   2.243   3.881  12.968 -1.1880  0.1089  0.5232
18689TIP3   OH277481   1.526   0.736  15.828 -0.4679 -0.2357 -0.3920
18689TIP3    H177482   1.435   0.717  15.806 -0.3388 -0.5183 -0.6887
18689TIP3    H277483   1.521   0.800  15.899 -0.9066 -0.7337  0.0334
18690TIP3   OH277484   4.659   6.019   1.172  0.1066 -0.3453  0.6479
18690TIP3    H177485   4.719   5.961   1.126  2.7067  2.4956  0.1361
18690TIP3    H277486   4.714   6.066   1.235 -1.7871  1.6632  0.9483
18691TIP3   OH277487   3.252   0.474  13.280  0.5591 -0.2112  0.5469
18691TIP3    H177488   3.332   0.432  13.249  0.4945  0.4930 -0.6270
18691TIP3    H277489   3.216   0.413  13.344  1.6990 -0.8284  0.6224
18692TIP3   OH277490   6.706   6.439   1.612 -0.0002 -0.2162 -0.0305
18692TIP3    H177491   6.663   6.472   1.534 -0.3077  0.6823  0.5102
18692TIP3    H277492   6.797   6.428   1.586  0.0472  0.7652 -0.3251
18693TIP3   OH277493   4.976   3.800   0.118  0.3101  0.0591  0.6971
18693TIP3    H177494   4.968   3.706   0.102 -0.8233 -0.0470  1.7706
18693TIP3    H277495   4.913   3.840   0.058  0.8225  0.1577  0.2094
18694TIP3   OH277496   2.708   0.896   1.535 -0.2111  0.0925  0.5577
18694TIP3    H177497   2.788   0.854   1.504 -0.8283  0.0956 -1.1475
18694TIP3    H277498   2.727   0.990   1.529 -0.5384  0.1090 -0.5049
18695TIP3   OH277499   0.479   1.026   5.168  0.2849  0.1530 -0.1841
18695TIP3    H177500   0.521   1.070   5.094 -0.5084  2.4261  0.6334
18695TIP3    H277501   0.466   1.095   5.232 -0.1126 -1.5235  1.6359
18696TIP3   OH277502   6.319   5.847  11.836 -0.0769  0.3993 -0.3171
18696TIP3    H177503   6.407   5.845  11.798 -1.1020  0.9239 -2.9907
18696TIP3    H277504   6.290   5.756  11.834 -0.6483  0.5593 -2.4005
18697TIP3   OH277505   4.826   5.971   0.330  0.0558  0.2556  0.3203
18697TIP3    H177506   4.745   5.932   0.299 -0.6565  0.0226  2.3787
18697TIP3    H277507   4.801   6.022   0.407  1.4595  2.2753 -0.4453
18698TIP3   OH277508   1.380   6.481   2.733 -0.3038 -0.1988 -0.6915
18698TIP3    H177509   1.430   6.523   2.663 -0.3343  1.0239 -0.0072
18698TIP3    H277510   1.437   6.487   2.810 -0.7717 -0.4101 -0.3245
18699TIP3   OH277511   2.901   6.114  13.174 -0.1073  0.3953 -0.2851
18699TIP3    H177512   2.815   6.156  13.174 -0.5803 -0.5104 -1.2858
18699TIP3    H277513   2.885   6.026  13.142  1.3997  0.6839 -2.0429
18700TIP3   OH277514   1.744   4.680  13.107 -0.6447 -0.1583  0.7192
18700TIP3    H177515   1.659   4.724  13.102  0.0272  1.1036 -0.0613
18700TIP3    H277516   1.725   4.589  13.083 -1.3946  0.6932 -2.3725
18701TIP3   OH277517   4.325   6.061   4.909 -0.1832  0.4902 -0.4048
18701TIP3    H177518   4.416   6.044   4.885  0.4505  1.1861  1.3551
18701TIP3    H277519   4.275   6.034   4.832  1.5332  0.6312 -1.6355
18702TIP3   OH277520   5.083   5.870  12.493 -0.6745  0.3949 -0.5820
18702TIP3    H177521   5.035   5.890  12.574 -0.6776 -0.2641 -0.4136
18702TIP3    H277522   5.025   5.901  12.423  0.3937  3.2742 -0.3242
18703TIP3   OH277523   6.395   1.345  13.083 -0.0135  0.0826  0.1514
18703TIP3    H177524   6.332   1.348  13.155 -0.8212  2.8333 -0.5401
18703TIP3    H277525   6.478   1.374  13.122 -0.1609  0.3723  0.2556
18704TIP3   OH277526   4.794   4.030  16.818  0.3346  0.5417  0.2156
18704TIP3    H177527   4.739   3.955  16.837 -1.2542  1.7335  0.5679
18704TIP3    H277528   4.771   4.055  16.729  0.5015  0.8910  0.2669
18705TIP3   OH277529   6.371   0.199  12.188 -0.1054 -0.1064 -0.3915
18705TIP3    H177530   6.310   0.179  12.259  0.1650  1.5414  0.3486
18705TIP3    H277531   6.444   0.244  12.230 -0.2427  1.4900 -1.7685
18706TIP3   OH277532   5.464   0.596   2.775 -0.2057 -0.4819 -0.1656
18706TIP3    H177533   5.401   0.525   2.788 -2.3284  1.4762  1.2411
18706TIP3    H277534   5.411   0.676   2.782  2.1966  1.2757 -0.7021
18707TIP3   OH277535   3.385   5.618   1.566 -0.0072  0.0259 -0.0587
18707TIP3    H177536   3.385   5.698   1.618 -0.3304  1.4469 -2.1293
18707TIP3    H277537   3.301   5.577   1.586 -1.1461  1.7239 -1.0620
18708TIP3   OH277538   2.667   6.370   1.269  0.1707  0.7767 -0.1894
18708TIP3    H177539   2.645   6.357   1.362  0.6474  1.7333  0.0773
18708TIP3    H277540   2.649   6.463   1.253  0.1385  0.6286 -1.0429
18709TIP3   OH277541   4.840   0.424   5.790  0.4283  0.0418  0.0734
18709TIP3    H177542   4.877   0.372   5.861  2.4941  0.2664 -0.7586
18709TIP3    H277543   4.752   0.389   5.778  1.8756 -3.7715 -0.8360
18710TIP3   OH277544   5.166   1.219   1.758 -0.4047  0.3951  0.7142
18710TIP3    H177545   5.252   1.235   1.797 -0.0137  0.0618  0.0135
18710TIP3    H277546   5.160   1.282   1.686  0.7843 -1.8542 -1.5145
18711TIP3   OH277547   4.856   4.058  12.154 -0.0934 -0.1876 -0.1534
18711TIP3    H177548   4.774   4.105  12.172  0.1636  0.5863 -0.9771
18711TIP3    H277549   4.915   4.125  12.121  1.2807 -0.4886  1.5562
18712TIP3   OH277550   6.104   1.284  11.026 -0.0115 -0.3533 -0.0325
18712TIP3    H177551   6.019   1.291  11.070 -0.6675 -1.8201 -0.9842
18712TIP3    H277552   6.168   1.312  11.093 -1.2195  0.8344  0.6687
18713TIP3   OH277553   6.712   0.918  16.890  0.2477  0.2273 -0.1168
18713TIP3    H177554   6.807   0.928  16.882  0.2115  0.1536 -0.7226
18713TIP3    H277555   6.698   0.888  16.980  0.8674 -0.5696 -0.2741
18714TIP3   OH277556   6.285   4.356  16.367 -0.0582 -0.6864 -0.4882
18714TIP3    H177557   6.217   4.310  16.317 -2.5387  0.5109  1.4999
18714TIP3    H277558   6.262   4.339  16.459  1.7886  0.5672  0.2581
18715TIP3   OH277559   3.078   0.664   6.427  0.2891 -0.1833 -0.4263
18715TIP3    H177560   3.052   0.741   6.376 -0.3321  0.2332  0.4983
18715TIP3    H277561   3.162   0.688   6.466 -0.1021  0.1949  0.1970
18716TIP3   OH277562   2.985   0.320  13.211  0.3614 -0.8356  0.1252
18716TIP3    H177563   2.894   0.292  13.223  0.5947 -1.0419  1.5144
18716TIP3    H277564   3.026   0.307  13.296  1.3334  0.6146 -0.0857
18717TIP3   OH277565   6.692   5.707  12.680  0.3701  0.6934  1.0776
18717TIP3    H177566   6.743   5.705  12.599  0.4003 -3.0316  1.0130
18717TIP3    H277567   6.603   5.682  12.653  0.1698  0.3200  2.0315
18718TIP3   OH277568   4.678   2.634   3.305 -0.1510 -0.3213  0.4250
18718TIP3    H177569   4.684   2.569   3.375  3.2867 -1.0113 -0.3345
18718TIP3    H277570   4.728   2.708   3.336 -0.7334  0.4084 -0.3156
18719TIP3   OH277571   4.016   0.233   3.392  0.3265  0.2822 -0.4010
18719TIP3    H177572   4.048   0.236   3.301 -0.3340 -0.3153 -0.6569
18719TIP3    H277573   4.085   0.188   3.440 -0.3087 -1.4301 -1.0434
18720TIP3   OH277574   4.665   5.502   3.302  0.9060  0.2304 -0.3101
18720TIP3    H177575   4.690   5.588   3.269 -0.0497  0.8196  0.4695
18720TIP3    H277576   4.749   5.460   3.322  1.3764  1.7107  1.1013
18721TIP3   OH277577   1.063   0.790  13.602  0.3347 -0.1240  0.3314
18721TIP3    H177578   1.157   0.774  13.608  0.6207 -0.0651 -2.4709
18721TIP3    H277579   1.023   0.705  13.623  1.2457 -1.2356 -2.0333
18722TIP3   OH277580   0.478   2.215  13.670  0.1127 -0.2052  0.0888
18722TIP3    H177581   0.406   2.159  13.642 -0.2031  0.1148  0.2585
18722TIP3    H277582   0.437   2.298  13.693  0.4934 -0.1315  0.5244
18723TIP3   OH277583   4.539   0.251   0.071  0.0462  0.2957 -0.0076
18723TIP3    H177584   4.557   0.318   0.137 -1.5431 -1.5468  2.5047
18723TIP3    H277585   4.444   0.254   0.060  0.1757 -0.1556 -1.4576
18724TIP3   OH277586   4.222   0.647  11.530  0.2276  0.0276  0.2480
18724TIP3    H177587   4.301   0.664  11.479  0.6390 -0.0627  0.8448
18724TIP3    H277588   4.171   0.728  11.524  0.1950 -0.0454 -0.4430
18725TIP3   OH277589   5.517   5.527  13.039 -0.3142 -0.4261 -0.2328
18725TIP3    H177590   5.470   5.582  13.101  2.7800 -0.3770  2.3591
18725TIP3    H277591   5.570   5.589  12.988 -1.2827 -0.6342 -1.5353
18726TIP3   OH277592   5.689   3.469   2.298  0.2756  0.3311 -0.7967
18726TIP3    H177593   5.764   3.495   2.245  0.9814 -1.6918 -0.8799
18726TIP3    H277594   5.616   3.520   2.263  0.9215 -0.1566 -3.0434
18727TIP3   OH277595   3.812   5.844   2.991  0.1354 -0.3384  0.1494
18727TIP3    H177596   3.794   5.847   3.085 -1.1162  0.1266 -0.0997
18727TIP3    H277597   3.907   5.860   2.985 -0.1792  2.2945  1.1801
18728TIP3   OH277598   5.992   0.004  11.051 -0.0282  0.2629 -0.5727
18728TIP3    H177599   5.977   0.082  10.998 -0.2244  0.7228  0.1487
18728TIP3    H277600   6.063  -0.042  11.006  0.2393  0.9672 -0.8902
18729TIP3   OH277601   2.115   0.753   3.141 -0.3354 -0.1524  0.1003
18729TIP3    H177602   2.127   0.795   3.056 -1.9274 -0.9828 -0.5744
18729TIP3    H277603   2.149   0.816   3.204 -0.2938  1.0315 -1.0666
18730TIP3   OH277604   5.226   6.699   2.829 -0.0084  0.0683 -0.4229
18730TIP3    H177605   5.143   6.744   2.813 -0.7206 -1.2904 -0.7504
18730TIP3    H277606   5.218   6.665   2.919  0.6605  0.8653 -0.0513
18731TIP3   OH277607   5.445   0.799   3.052 -0.5252 -0.0040 -0.3876
18731TIP3    H177608   5.437   0.893   3.066 -1.0188 -0.0239 -0.4965
18731TIP3    H277609   5.396   0.783   2.971 -1.3369 -0.4945  0.1783
18732TIP3   OH277610   3.185   4.682   5.144 -0.0358  0.1529  0.1209
18732TIP3    H177611   3.200   4.593   5.111  1.1367 -0.0589  1.1198
18732TIP3    H277612   3.270   4.725   5.136 -0.7041  1.3510 -0.7699
18733TIP3   OH277613   1.716   2.128  12.755 -0.1712 -0.5204  0.3554
18733TIP3    H177614   1.688   2.219  12.765  1.9053  0.2745 -0.5969
18733TIP3    H277615   1.730   2.118  12.661 -0.8740 -2.0135  0.3780
18734TIP3   OH277616   0.132   6.614   0.972 -0.2380  0.2675  0.0334
18734TIP3    H177617   0.169   6.688   0.923 -0.8581 -0.1416 -1.0975
18734TIP3    H277618   0.189   6.541   0.951 -0.4549  0.1116 -0.0185
18735TIP3   OH277619   5.837   2.746  16.747  0.1794  0.3185 -0.1020
18735TIP3    H177620   5.778   2.773  16.677 -1.1404 -0.3103  0.7208
18735TIP3    H277621   5.847   2.651  16.734  0.2522  0.2690  0.2942
18736TIP3   OH277622   4.242   0.827   3.442 -0.0945  0.4634  0.8095
18736TIP3    H177623   4.270   0.919   3.453  0.6077  0.1880  1.4460
18736TIP3    H277624   4.324   0.777   3.447 -0.1648 -0.0657 -1.7023
18737TIP3   OH277625   2.050   6.160   3.867  0.2306  0.1426  0.2629
18737TIP3    H177626   2.028   6.067   3.863 -2.2498  0.6795 -1.5630
18737TIP3    H277627   2.095   6.171   3.950 -0.2780 -2.5265  0.9793
18738TIP3   OH277628   5.167   1.392  11.298 -0.6919 -0.8139 -0.1292
18738TIP3    H177629   5.208   1.454  11.238 -2.6910  0.7790  0.0225
18738TIP3    H277630   5.209   1.410  11.382 -0.5177 -0.3732 -0.3028
18739TIP3   OH277631   0.364   5.362   1.809 -0.1400  0.0344 -0.2442
18739TIP3    H177632   0.390   5.400   1.725 -1.2947  0.2956 -0.5014
18739TIP3    H277633   0.268   5.363   1.807 -0.2232 -1.9564  0.1572
18740TIP3   OH277634   5.275   5.394   0.527  0.0883  0.0046 -0.0672
18740TIP3    H177635   5.185   5.391   0.560  0.2392  1.2834  0.5428
18740TIP3    H277636   5.274   5.463   0.461  1.4759  3.2616  2.9964
18741TIP3   OH277637   3.540   2.386   3.033  0.0809 -0.0431  0.5200
18741TIP3    H177638   3.623   2.373   2.988 -0.6746  1.4244 -1.4263
18741TIP3    H277639   3.517   2.299   3.066  1.9127 -0.6545  0.3153
18742TIP3   OH277640   1.349   5.333   5.947 -0.4433 -0.7865 -0.2580
18742TIP3    H177641   1.381   5.420   5.923 -2.0440 -0.1981 -0.3858
18742TIP3    H277642   1.312   5.298   5.866  0.0299 -1.5254 -0.1635
18743TIP3   OH277643   2.282   6.263   0.198  0.3899  1.0554  0.2503
18743TIP3    H177644   2.327   6.295   0.121  1.7434  1.8091  1.3179
18743TIP3    H277645   2.211   6.326   0.212  1.0592  1.7810  0.4690
18744TIP3   OH277646   2.988   3.840  14.318  0.7762  0.4756  0.3968
18744TIP3    H177647   3.071   3.795  14.302 -0.2595 -2.2832  1.9846
18744TIP3    H277648   2.989   3.860  14.411 -0.5778 -0.2238  0.5856
18745TIP3   OH277649   3.299   1.964   1.934  0.5725  0.2787 -0.0289
18745TIP3    H177650   3.261   1.952   1.847  1.1493  1.9859 -0.5556
18745TIP3    H277651   3.300   1.876   1.972  0.4590 -0.5335 -1.7992
18746TIP3   OH277652   4.446   2.962  17.273  0.3923 -0.0535  0.0860
18746TIP3    H177653   4.416   3.022  17.341 -0.9235  0.2906 -0.7515
18746TIP3    H277654   4.378   2.895  17.268  0.6699 -0.2965 -0.6146
18747TIP3   OH277655   3.635   1.369   4.849 -0.1298  0.0233  0.2575
18747TIP3    H177656   3.615   1.401   4.761  0.1935  1.4682  0.6879
18747TIP3    H277657   3.642   1.274   4.839  0.6209  0.2249 -1.4119
18748TIP3   OH277658   4.998   4.266   4.762 -0.1797  0.1968 -0.5533
18748TIP3    H177659   4.979   4.357   4.740  1.4604  1.3275  2.1886
18748TIP3    H277660   4.921   4.238   4.812 -0.2693  0.3962 -0.5765
18749TIP3   OH277661   1.543   3.490  14.271 -0.1740  0.1677 -0.0458
18749TIP3    H177662   1.558   3.404  14.234  0.1696 -0.0646  0.6177
18749TIP3    H277663   1.571   3.483  14.362 -0.3319  0.9211  0.0750
18750TIP3   OH277664   2.109   1.968   0.068  0.1391 -0.0780 -0.2915
18750TIP3    H177665   2.127   2.007  -0.018  1.1460 -1.9764 -0.9999
18750TIP3    H277666   2.083   2.042   0.122 -0.8625  1.1400 -2.3076
18751TIP3   OH277667   0.530   6.750  14.550 -0.3636  0.1767  0.0654
18751TIP3    H177668   0.492   6.804  14.481 -1.4815  0.1474  0.6382
18751TIP3    H277669   0.511   6.798  14.631 -0.4621 -0.5542  0.4861
18752TIP3   OH277670   3.362   2.263  15.103  0.2183 -0.0464  0.1057
18752TIP3    H177671   3.385   2.255  15.011  0.3535  0.3218  0.1055
18752TIP3    H277672   3.420   2.202  15.148  0.7944  0.4529  0.0455
18753TIP3   OH277673   6.151   5.134  10.708  0.4036  0.5555  0.1054
18753TIP3    H177674   6.226   5.126  10.650  0.4291  0.3010  0.1728
18753TIP3    H277675   6.176   5.200  10.772  1.7953 -1.6580  2.0038
18754TIP3   OH277676   5.738   2.052  11.807  0.2538  0.5120 -0.0385
18754TIP3    H177677   5.816   2.079  11.855  1.0009 -0.0026 -0.9395
18754TIP3    H277678   5.714   1.968  11.845 -1.4130  1.8185  1.9989
18755TIP3   OH277679   2.338   4.845   1.013  0.5953 -0.1695 -0.3939
18755TIP3    H177680   2.405   4.906   0.982 -0.1879  0.7490 -0.3292
18755TIP3    H277681   2.352   4.839   1.107  1.5249 -1.1675 -0.5746
18756TIP3   OH277682   5.717   5.100   6.259 -0.2891 -0.3263 -0.5811
18756TIP3    H177683   5.668   5.182   6.271 -0.7451 -0.7280  0.4631
18756TIP3    H277684   5.753   5.082   6.346  1.6664 -0.0860 -1.3004
18757TIP3   OH277685   0.921   3.815   0.614  0.1672  0.0289  0.1123
18757TIP3    H177686   0.872   3.754   0.558  2.9166 -1.0415 -1.3204
18757TIP3    H277687   0.942   3.889   0.556  0.9008  0.1095  0.4740
18758TIP3   OH277688   0.625   6.003   3.629  0.5756 -0.2329  0.0884
18758TIP3    H177689   0.609   6.097   3.620 -1.9224 -0.5902 -0.0363
18758TIP3    H277690   0.598   5.982   3.718  0.0349 -0.9966 -0.2433
18759TIP3   OH277691   3.949   2.267   1.446 -0.2752  0.4261 -0.6088
18759TIP3    H177692   3.877   2.330   1.453 -0.1955  0.3630  1.4494
18759TIP3    H277693   3.930   2.202   1.514  0.9488 -0.4092 -1.0368
18760TIP3   OH277694   3.665   0.825  12.546 -0.3083  0.7737  0.0779
18760TIP3    H177695   3.622   0.746  12.514  1.1053 -0.6451  1.5156
18760TIP3    H277696   3.655   0.822  12.641 -0.4699  2.4953  0.1587
18761TIP3   OH277697   4.837   1.873  16.574 -0.7849  0.2404  0.5166
18761TIP3    H177698   4.811   1.953  16.530 -1.4205  0.4419  1.2334
18761TIP3    H277699   4.790   1.803  16.528 -1.9191  0.5088  1.2293
18762TIP3   OH277700   0.781   3.696  13.777  0.4683 -0.0251  0.1050
18762TIP3    H177701   0.786   3.647  13.695 -0.4585 -0.3961  0.2596
18762TIP3    H277702   0.748   3.634  13.841 -1.9888  1.0697  0.0186
18763TIP3   OH277703   5.158   2.803  14.236 -0.1622  0.2330 -0.0158
18763TIP3    H177704   5.236   2.859  14.241  1.1611 -1.5367  0.2920
18763TIP3    H277705   5.086   2.860  14.261  1.1100  1.8002  0.2405
18764TIP3   OH277706   5.766   5.185   1.741  0.5857 -0.0996  0.3506
18764TIP3    H177707   5.774   5.094   1.711  1.9609  0.3569 -0.7754
18764TIP3    H277708   5.717   5.228   1.671 -0.9359 -0.1401  1.3387
18765TIP3   OH277709   1.679   2.243   2.716 -0.2772 -0.0078 -0.2863
18765TIP3    H177710   1.772   2.220   2.706  0.4535  2.2608  0.6127
18765TIP3    H277711   1.640   2.224   2.631  1.1114 -0.6307 -0.8102
18766TIP3   OH277712   3.087   1.949   0.102  0.0594 -0.1182  0.0178
18766TIP3    H177713   3.037   2.027   0.078 -2.7068 -1.0360  2.1925
18766TIP3    H277714   3.031   1.876   0.076  1.9946 -1.4005 -0.7792
18767TIP3   OH277715   3.753   2.835   3.005 -0.3014  0.2036 -0.5251
18767TIP3    H177716   3.815   2.894   3.048  0.6724 -1.0297 -0.1541
18767TIP3    H277717   3.686   2.818   3.071 -1.2590  1.8064 -1.0389
18768TIP3   OH277718   4.866   0.513  12.797  0.4126 -0.4164 -0.3685
18768TIP3    H177719   4.826   0.428  12.812 -1.2119  0.1843 -0.9811
18768TIP3    H277720   4.856   0.528  12.703 -0.4838  0.9543 -0.0881
18769TIP3   OH277721   3.621   0.172  10.912  0.3127 -0.3782 -0.0439
18769TIP3    H177722   3.705   0.210  10.887  0.0914 -0.3017 -0.6767
18769TIP3    H277723   3.644   0.086  10.949  0.8103  0.3558  1.4038
18770TIP3   OH277724   2.649   3.177  15.868 -0.1931 -0.0416  0.2910
18770TIP3    H177725   2.629   3.198  15.777 -0.6328  0.0048  0.3936
18770TIP3    H277726   2.740   3.147  15.867  0.6225  2.2754  0.2092
18771TIP3   OH277727   0.340   1.027   2.261 -0.1268 -0.4164  0.7624
18771TIP3    H177728   0.360   1.001   2.351 -1.2040 -1.6956  0.6671
18771TIP3    H277729   0.372   1.117   2.254 -0.4427 -0.1248  2.5715
18772TIP3   OH277730   4.603   6.584  13.558  0.4746 -0.1900  0.3847
18772TIP3    H177731   4.585   6.530  13.480 -2.3116 -0.0694  0.8140
18772TIP3    H277732   4.650   6.525  13.617 -0.3151 -1.3980 -0.1254
18773TIP3   OH277733   0.409   1.553   2.585 -0.0059 -0.2385  0.1085
18773TIP3    H177734   0.382   1.610   2.657 -1.2415 -0.6571 -0.0032
18773TIP3    H277735   0.491   1.591   2.554  0.0306  0.5241  1.0931
18774TIP3   OH277736   5.013   0.507   0.474 -0.1103 -0.9579  0.2742
18774TIP3    H177737   5.026   0.465   0.389  3.4503  0.4920 -0.1098
18774TIP3    H277738   4.965   0.588   0.453  2.8058  0.6353 -0.9643
18775TIP3   OH277739   1.592   2.603  13.404  0.1586  0.6868 -0.1466
18775TIP3    H177740   1.638   2.628  13.484  0.6955  0.9301 -0.5231
18775TIP3    H277741   1.537   2.529  13.430  1.0400  0.1458  0.2476
18776TIP3   OH277742   4.195   4.221   3.710  0.4560  0.0780 -0.4310
18776TIP3    H177743   4.168   4.183   3.626  0.1774 -1.1039  0.1744
18776TIP3    H277744   4.265   4.163   3.742 -0.0943 -0.0554  0.5915
18777TIP3   OH277745   4.568   5.464   4.921 -0.4560  0.2084 -0.0056
18777TIP3    H177746   4.603   5.453   4.832  2.3583  0.9080  0.9014
18777TIP3    H277747   4.547   5.557   4.927  2.6458  0.9948  0.9786
18778TIP3   OH277748   4.242   5.644  14.558 -0.2835 -0.5176 -0.4786
18778TIP3    H177749   4.219   5.659  14.650  0.9863 -0.3496 -0.1665
18778TIP3    H277750   4.326   5.597  14.562  0.4220  0.6058 -1.5631
18779TIP3   OH277751   5.535   5.548   4.930 -0.0196 -0.8161 -0.2551
18779TIP3    H177752   5.558   5.478   4.991  0.7416 -0.8821 -0.6160
18779TIP3    H277753   5.591   5.535   4.855  1.4931  1.2687  0.4058
18780TIP3   OH277754   6.292   0.293  11.905 -0.3650  0.2814 -0.3772
18780TIP3    H177755   6.245   0.209  11.900 -0.3260  0.3260 -1.9130
18780TIP3    H277756   6.331   0.293  11.993  0.4857 -1.7818 -0.6813
18781TIP3   OH277757   0.384   3.402  11.911  0.3535 -0.6973  0.9799
18781TIP3    H177758   0.291   3.425  11.905 -0.0106 -1.8022  1.9273
18781TIP3    H277759   0.397   3.341  11.838  0.2274 -0.8697  1.1000
18782TIP3   OH277760   4.841   1.064   2.710 -0.4957 -0.4658 -0.3370
18782TIP3    H177761   4.835   1.158   2.731 -0.4488 -0.2633 -1.2180
18782TIP3    H277762   4.750   1.034   2.714 -0.7388  0.0156 -1.8273
18783TIP3   OH277763   2.655   3.207  16.904  0.6949  0.1613 -0.4965
18783TIP3    H177764   2.743   3.203  16.941  0.6071 -0.7631 -0.3502
18783TIP3    H277765   2.662   3.270  16.832  2.3583 -2.3142 -2.6944
18784TIP3   OH277766   3.765   0.719  16.266 -0.4162 -0.2467 -0.9804
18784TIP3    H177767   3.703   0.756  16.328  1.0149  0.1484  0.2926
18784TIP3    H277768   3.760   0.625  16.279 -1.2271 -0.2701 -1.3961
18785TIP3   OH277769   2.529   6.037  16.596  0.1929  0.5408 -0.7546
18785TIP3    H177770   2.512   6.094  16.520  1.9896 -1.1223 -2.5247
18785TIP3    H277771   2.527   5.949  16.560  2.9644 -0.2174  0.6958
18786TIP3   OH277772   0.003   3.071  10.487  0.3682  0.0893 -0.0675
18786TIP3    H177773   0.068   3.025  10.541 -1.8688 -0.8593  2.0036
18786TIP3    H277774  -0.026   3.005  10.424  0.9288  0.3207 -0.5767
18787TIP3   OH277775   2.168   0.471  15.116  0.1392 -0.3049  0.7020
18787TIP3    H177776   2.204   0.391  15.078  2.2331  0.4399  1.0069
18787TIP3    H277777   2.145   0.447  15.206 -0.4517 -0.8762  0.4046
18788TIP3   OH277778   3.029   1.033   4.793 -0.1012  0.0740  0.1266
18788TIP3    H177779   3.001   0.998   4.878  0.1508 -0.1693  0.1128
18788TIP3    H277780   2.958   1.010   4.733 -0.1320 -0.0407  0.2057
18789TIP3   OH277781   1.350   1.513  16.701 -0.0908 -0.2579 -0.3842
18789TIP3    H177782   1.285   1.444  16.716 -0.6347  0.2173 -0.5667
18789TIP3    H277783   1.434   1.471  16.723 -0.4625 -0.8392 -0.0466
18790TIP3   OH277784   2.493   0.446   3.134 -0.4254  0.4908 -0.7817
18790TIP3    H177785   2.497   0.389   3.211 -2.8445  0.6927 -0.4259
18790TIP3    H277786   2.446   0.524   3.165  2.1036  2.4337 -1.4517
18791TIP3   OH277787   5.660   5.929  13.723 -0.1505 -0.3335  0.2163
18791TIP3    H177788   5.670   5.873  13.801 -0.1866  0.5675  0.8818
18791TIP3    H277789   5.714   6.006  13.742  0.1879 -0.2933 -0.8455
18792TIP3   OH277790   0.281   1.274   5.247  0.2479  0.5141 -0.1647
18792TIP3    H177791   0.338   1.343   5.212  1.0940 -0.0175  0.1281
18792TIP3    H277792   0.242   1.234   5.170 -0.1119  1.1912 -0.3482
18793TIP3   OH277793   4.924   1.565   0.788 -0.3206  0.0135 -0.5102
18793TIP3    H177794   4.984   1.612   0.731 -1.0349 -0.6541 -1.8612
18793TIP3    H277795   4.869   1.515   0.728 -1.2576 -0.5261  0.7669
18794TIP3   OH277796   5.058   0.824   0.547 -0.0614  0.1720 -0.4160
18794TIP3    H177797   4.976   0.787   0.516 -0.7826 -1.2766  2.7666
18794TIP3    H277798   5.080   0.892   0.484 -2.8057 -0.5373 -2.2850
18795TIP3   OH277799   0.116   2.778  11.929 -0.2917 -0.0827 -0.1438
18795TIP3    H177800   0.153   2.811  12.011  1.0899 -0.3261 -0.6376
18795TIP3    H277801   0.167   2.699  11.910 -0.6600 -0.0881 -1.1777
18796TIP3   OH277802   4.161   5.484   3.244  0.8670  0.0909  0.0492
18796TIP3    H177803   4.129   5.572   3.226  0.0123 -0.1419  0.4035
18796TIP3    H277804   4.180   5.447   3.158  0.5756  0.3828 -0.1402
18797TIP3   OH277805   0.380   4.846   3.255 -0.1072 -0.4025 -0.2477
18797TIP3    H177806   0.463   4.893   3.258 -0.2949 -0.0862  0.0342
18797TIP3    H277807   0.393   4.770   3.313  0.1812 -0.6843 -0.6728
18798TIP3   OH277808   3.872   2.731  12.176  0.5035  0.0704 -0.3197
18798TIP3    H177809   3.893   2.650  12.223  0.0045 -0.5141 -1.1004
18798TIP3    H277810   3.901   2.800  12.236 -0.8012 -0.6284  1.2119
18799TIP3   OH277811   3.401   4.761  14.637  0.3687 -0.0026  0.3466
18799TIP3    H177812   3.458   4.690  14.607  0.1129 -0.0006 -0.1600
18799TIP3    H277813   3.389   4.816  14.559  2.5963  2.0116  1.2979
18800TIP3   OH277814   0.636   5.070  13.742 -0.1080  0.1995  0.1266
18800TIP3    H177815   0.687   5.017  13.681 -1.2592 -1.8385  0.8134
18800TIP3    H277816   0.568   5.110  13.688 -0.2139 -0.3834 -0.1835
18801TIP3   OH277817   4.030   4.423   0.730 -0.0344 -0.1972 -0.1308
18801TIP3    H177818   3.944   4.424   0.686  0.1309  1.8162 -0.5035
18801TIP3    H277819   4.091   4.452   0.662  0.4793  1.2765  0.9234
18802TIP3   OH277820   2.037   3.036   1.861  0.6898  0.2769 -0.7400
18802TIP3    H177821   2.078   3.092   1.795 -1.1340  0.5148 -1.7319
18802TIP3    H277822   1.974   2.983   1.812  2.9129 -3.3672  0.0109
18803TIP3   OH277823   1.513   0.590  14.970 -0.5686 -0.3238  0.2593
18803TIP3    H177824   1.599   0.556  14.943 -0.2940 -0.9438  1.8034
18803TIP3    H277825   1.492   0.657  14.906 -0.0187 -1.7863 -1.5426
18804TIP3   OH277826   0.440   0.138  14.732 -0.2057 -0.5309 -0.3653
18804TIP3    H177827   0.362   0.188  14.708  0.2049  1.2066  1.6444
18804TIP3    H277828   0.512   0.199  14.718  0.6045 -1.4716 -0.3552
18805TIP3   OH277829   2.723   5.180  11.495 -0.8959 -0.0567 -0.1649
18805TIP3    H177830   2.670   5.184  11.415  1.1798  0.1502 -1.6056
18805TIP3    H277831   2.788   5.250  11.485 -1.8858  1.4497  2.7593
18806TIP3   OH277832   6.012   5.683   1.659 -0.4387  0.3830  0.0691
18806TIP3    H177833   5.924   5.648   1.671 -0.9150  0.4788 -2.5808
18806TIP3    H277834   6.006   5.774   1.690 -1.3697  0.4782 -0.3607
18807TIP3   OH277835   1.531   4.890   0.022  0.5446  0.2504 -0.2726
18807TIP3    H177836   1.548   4.806   0.064 -3.6098 -0.6004  0.1798
18807TIP3    H277837   1.515   4.951   0.094 -0.2349  0.4325 -0.5892
18808TIP3   OH277838   4.755   0.828   2.484  0.2011  0.1788 -0.2380
18808TIP3    H177839   4.726   0.817   2.575  2.1129  1.5811  0.6210
18808TIP3    H277840   4.695   0.893   2.448  1.0662  1.6939  0.9306
18809TIP3   OH277841   3.129   1.021  15.137  0.3697  0.5783 -0.5028
18809TIP3    H177842   3.095   0.977  15.059 -1.2606  0.8067  0.0440
18809TIP3    H277843   3.087   1.107  15.135  0.0207  0.4487  0.8179
18810TIP3   OH277844   2.438   1.811  15.305 -0.1275  0.1097  0.3465
18810TIP3    H177845   2.496   1.753  15.354  0.2041  0.5968  0.5470
18810TIP3    H277846   2.484   1.895  15.304 -1.0907  0.6708  1.0157
18811TIP3   OH277847   4.664   1.153  15.302 -0.3517  0.1158 -0.8661
18811TIP3    H177848   4.597   1.167  15.234 -0.6171 -1.6360 -1.0279
18811TIP3    H277849   4.618   1.103  15.370  0.5722 -0.3615 -0.5790
18812TIP3   OH277850   3.584   2.494   5.150  0.1795  1.1043 -0.2678
18812TIP3    H177851   3.629   2.497   5.066  0.6391  1.5186 -0.0143
18812TIP3    H277852   3.494   2.470   5.129  0.6986 -0.5384 -0.7019
18813TIP3   OH277853   3.340   2.419   4.790 -0.1512  0.0917 -0.2527
18813TIP3    H177854   3.426   2.436   4.751 -0.8090  1.0997 -1.3539
18813TIP3    H277855   3.284   2.490   4.757 -1.4425 -0.6143  0.3159
18814TIP3   OH277856   6.442   3.131   4.237 -0.3142  1.0390  0.5053
18814TIP3    H177857   6.383   3.055   4.231 -0.0009  0.8579 -0.4472
18814TIP3    H277858   6.385   3.207   4.228 -0.3849  0.8572 -0.8042
18815TIP3   OH277859   2.637   0.785  15.299  0.1768  0.1853 -0.1386
18815TIP3    H177860   2.655   0.771  15.392 -2.5150 -0.0902  0.4140
18815TIP3    H277861   2.678   0.869  15.279  0.7099  0.2995  1.3164
18816TIP3   OH277862   2.881   2.915   0.821  0.2793 -0.0439  0.3444
18816TIP3    H177863   2.876   2.997   0.870 -0.3659  1.6276 -2.3533
18816TIP3    H277864   2.871   2.940   0.730 -2.9149 -3.4074 -0.4611
18817TIP3   OH277865   3.720   2.906   5.924  0.2562 -0.3011 -0.7846
18817TIP3    H177866   3.625   2.897   5.934 -0.1857  3.6246  0.1988
18817TIP3    H277867   3.747   2.962   5.997  2.8196  1.1989 -2.7122
18818TIP3   OH277868   5.901   0.705   3.850  0.7524 -0.1509  0.3223
18818TIP3    H177869   5.967   0.771   3.872 -0.6303  1.6213 -0.5976
18818TIP3    H277870   5.941   0.654   3.779  0.6856  1.7947 -1.2150
18819TIP3   OH277871   3.752   2.901   3.481  0.4068 -0.0476 -0.1827
18819TIP3    H177872   3.676   2.846   3.502  0.8480 -1.5731 -2.3223
18819TIP3    H277873   3.721   2.962   3.414  0.4709  0.9829  0.6942
18820TIP3   OH277874   1.021   6.067   5.558 -1.3079 -0.3061 -0.1161
18820TIP3    H177875   1.066   5.997   5.512 -1.5499  0.2388 -1.2245
18820TIP3    H277876   0.929   6.040   5.559 -1.2029 -0.6372  0.6600
18821TIP3   OH277877   3.040   3.312   1.618  0.6191  0.6323 -0.2371
18821TIP3    H177878   3.000   3.398   1.632  1.4266  1.0793 -0.5438
18821TIP3    H277879   2.977   3.249   1.652 -0.1786  1.3272 -0.4117
18822TIP3   OH277880   0.138   1.638  15.920 -0.2323 -0.2907 -0.4395
18822TIP3    H177881   0.056   1.664  15.961 -0.9232 -3.5082  0.4364
18822TIP3    H277882   0.112   1.595  15.838  0.6678 -0.4656 -0.6502
18823TIP3   OH277883   1.581   5.923   1.883  0.0501 -0.0596 -0.2721
18823TIP3    H177884   1.647   5.986   1.853  0.0203  0.4479  0.6978
18823TIP3    H277885   1.600   5.843   1.833  1.3371  0.1077 -0.0742
18824TIP3   OH277886   3.163   2.941   6.519  0.1116  0.3041 -0.0546
18824TIP3    H177887   3.216   2.889   6.579 -2.2278 -0.9604  1.0576
18824TIP3    H277888   3.141   2.880   6.448  0.2097  0.8309 -0.5432
18825TIP3   OH277889   3.051   5.204   0.224 -0.0630  0.3053  0.5509
18825TIP3    H177890   3.134   5.177   0.262 -1.1115 -0.5185  2.3723
18825TIP3    H277891   3.059   5.299   0.215  1.8389  0.0531 -1.3826
18826TIP3   OH277892   0.812   2.808  12.692  0.0526 -0.8888  0.0220
18826TIP3    H177893   0.818   2.745  12.621 -1.3133 -0.8762 -0.1271
18826TIP3    H277894   0.749   2.873  12.661  0.5280 -0.1021  0.6637
18827TIP3   OH277895   4.779   4.778   4.456 -0.2685  0.1317  0.5068
18827TIP3    H177896   4.780   4.821   4.541  0.4900  0.5643  0.2987
18827TIP3    H277897   4.824   4.841   4.398  0.8602 -0.9232  0.1945
18828TIP3   OH277898   6.250   2.010   1.409  0.3667  0.1668  0.2507
18828TIP3    H177899   6.155   2.010   1.398  0.4530  1.7211 -0.8388
18828TIP3    H277900   6.277   1.921   1.383 -0.7104 -0.0112 -0.3098
18829TIP3   OH277901   3.239   1.529  12.825  0.1370  0.1101 -0.1067
18829TIP3    H177902   3.270   1.440  12.840  1.4432  0.9288  2.7785
18829TIP3    H277903   3.144   1.524  12.836  0.2090 -0.9074  0.1183
18830TIP3   OH277904   6.345   0.834  10.818 -0.0940 -0.4482  0.0133
18830TIP3    H177905   6.302   0.839  10.732 -0.9690  0.0375  0.4717
18830TIP3    H277906   6.306   0.905  10.869  1.7246  0.4574  0.2465
18831TIP3   OH277907   5.394   2.726  11.514  0.0077  0.7565  0.2811
18831TIP3    H177908   5.393   2.645  11.564  0.3307  1.2058  1.0357
18831TIP3    H277909   5.467   2.777  11.552  0.9973  0.6553 -1.3776
18832TIP3   OH277910   4.065   2.273  16.302 -0.1794  0.1435  0.0330
18832TIP3    H177911   4.019   2.206  16.251 -2.3643  0.9863  0.7726
18832TIP3    H277912   3.997   2.336  16.326  1.0036  0.5328  2.7694
18833TIP3   OH277913   3.264   0.352  12.559 -0.1494  0.5111 -0.0749
18833TIP3    H177914   3.233   0.389  12.642 -0.3429  0.7069 -0.2356
18833TIP3    H277915   3.189   0.358  12.500 -0.0234  0.3334 -0.2530
18834TIP3   OH277916   0.238   6.585  13.828  0.0202  0.3349  0.2748
18834TIP3    H177917   0.285   6.668  13.825 -0.3439  0.6211  1.7571
18834TIP3    H277918   0.182   6.592  13.905 -1.1007 -0.7239 -0.4129
18835TIP3   OH277919   2.081   5.847   0.901 -0.4165 -0.4774  0.0942
18835TIP3    H177920   2.129   5.816   0.824  0.9382 -0.6233  0.9740
18835TIP3    H277921   2.053   5.767   0.945  0.3979 -0.4267  0.7175
18836TIP3   OH277922   1.847   4.913   0.232 -0.4264  0.3937 -0.5427
18836TIP3    H177923   1.887   4.965   0.163 -0.9311  0.0706 -1.0849
18836TIP3    H277924   1.901   4.930   0.309  0.8083 -0.1027 -1.2729
18837TIP3   OH277925   3.065   0.051   1.772  0.4799 -0.2714  0.2526
18837TIP3    H177926   2.999   0.068   1.706  0.3389 -0.9222  0.2183
18837TIP3    H277927   3.077   0.134   1.817  0.8814  0.2941 -0.8580
18838TIP3   OH277928   4.063   3.534   5.721 -0.1441 -0.5274 -0.4270
18838TIP3    H177929   4.081   3.610   5.776 -1.2950 -0.3511 -0.2738
18838TIP3    H277930   4.118   3.465   5.757  0.3288  0.0178 -0.0802
18839TIP3   OH277931   5.917   0.039   2.840 -0.2507 -0.3724 -0.6619
18839TIP3    H177932   5.865   0.103   2.889 -0.1100 -1.2836  0.7112
18839TIP3    H277933   5.938  -0.029   2.903  0.5638 -1.2327 -1.8159
18840TIP3   OH277934   5.390   6.507   4.445 -0.1785 -0.4203 -0.4270
18840TIP3    H177935   5.465   6.526   4.502 -0.0778 -0.6114 -0.4936
18840TIP3    H277936   5.377   6.413   4.453 -1.0678 -0.2376  0.3834
18841TIP3   OH277937   5.482   5.276  14.822 -0.1939 -0.2090  0.1299
18841TIP3    H177938   5.442   5.239  14.901 -2.3077  0.2721 -0.6453
18841TIP3    H277939   5.501   5.367  14.846 -0.4277 -0.1824  0.2197
18842TIP3   OH277940   2.664   5.723  16.369  0.0019 -0.0496  0.1509
18842TIP3    H177941   2.604   5.720  16.444 -0.1769 -2.6342 -0.0266
18842TIP3    H277942   2.744   5.761  16.405 -0.5711  0.1738  1.2567
18843TIP3   OH277943   6.109   2.995   2.250  0.5838 -0.4231 -0.0150
18843TIP3    H177944   6.020   2.982   2.217  0.6845  1.1153 -1.0032
18843TIP3    H277945   6.137   2.908   2.278 -0.2429 -1.4990 -2.2431
18844TIP3   OH277946   5.582   3.712  12.615 -0.0274  0.6453 -0.7241
18844TIP3    H177947   5.671   3.744  12.601 -0.0393  0.9825 -0.0592
18844TIP3    H277948   5.565   3.729  12.707 -0.5270 -0.0595 -0.6793
18845TIP3   OH277949   3.435   3.369   0.016  0.2786 -0.0472  0.3178
18845TIP3    H177950   3.460   3.406  -0.069 -0.2411 -0.7839 -0.1706
18845TIP3    H277951   3.513   3.324   0.047  0.1344 -0.7467 -0.3152
18846TIP3   OH277952   1.921   0.183   3.277  0.0027  0.0939  0.0579
18846TIP3    H177953   1.830   0.190   3.249 -0.1620  0.6601  0.6881
18846TIP3    H277954   1.919   0.205   3.370  0.6185 -1.0748  0.3674
18847TIP3   OH277955   2.911   1.092   2.899 -0.3087 -0.2652  0.5497
18847TIP3    H177956   2.881   1.056   2.983  0.3363 -0.5929  0.6540
18847TIP3    H277957   2.848   1.159   2.877 -0.6281 -0.3512  1.1803
18848TIP3   OH277958   6.582   1.852  13.996 -0.3038 -0.1154  0.2532
18848TIP3    H177959   6.633   1.795  13.938  0.4548  2.4163 -1.7281
18848TIP3    H277960   6.526   1.903  13.938 -1.1839  0.9510  1.9535
18849TIP3   OH277961   4.107   0.446   3.529 -0.3457 -0.6536 -0.4650
18849TIP3    H177962   4.066   0.531   3.513  0.4714 -0.4913 -1.8870
18849TIP3    H277963   4.059   0.385   3.473  0.5767 -0.6614 -1.2853
18850TIP3   OH277964   0.056   4.348   6.080  0.3616  0.1606  0.1750
18850TIP3    H177965   0.022   4.303   6.158  0.5550 -0.0324  0.1488
18850TIP3    H277966  -0.016   4.404   6.051  0.9537  1.8244  1.7124
18851TIP3   OH277967   3.003   6.359  17.272  0.1923  0.6079 -0.3749
18851TIP3    H177968   3.030   6.275  17.310 -0.5435  0.8380  0.6904
18851TIP3    H277969   3.029   6.424  17.338 -1.3957  0.9892 -0.0925
18852TIP3   OH277970   0.125   0.158   1.091  0.4177  0.0984  0.1250
18852TIP3    H177971   0.060   0.170   1.022 -1.0662  1.7496  1.6797
18852TIP3    H277972   0.142   0.246   1.124  1.8986 -0.5218  1.1408
18853TIP3   OH277973   0.541   0.177   1.877  0.1107 -0.0895  0.1282
18853TIP3    H177974   0.597   0.247   1.912  0.8265  0.0902 -1.2823
18853TIP3    H277975   0.561   0.176   1.784 -2.2953 -0.0032 -0.4607
18854TIP3   OH277976   6.074   6.108  11.931  0.5301 -0.1779 -0.5732
18854TIP3    H177977   6.108   6.188  11.972  2.1916 -0.9816 -0.3088
18854TIP3    H277978   6.034   6.059  12.003 -0.1720  0.2332 -0.6729
18855TIP3   OH277979   0.392   0.916   4.177  0.4424  0.2819  0.2629
18855TIP3    H177980   0.454   0.975   4.220  0.1557  1.1679 -0.5130
18855TIP3    H277981   0.360   0.860   4.248 -0.7098  2.2982  1.4391
18856TIP3   OH277982   2.292   6.482   5.517  0.3289  0.4817 -0.4616
18856TIP3    H177983   2.250   6.561   5.550 -1.5619 -0.7472  0.2260
18856TIP3    H277984   2.357   6.460   5.583 -0.8556  0.1041  0.5939
18857TIP3   OH277985   4.136   1.029   4.413 -0.2220  0.4011  0.7008
18857TIP3    H177986   4.151   0.957   4.352  1.7481 -0.0821  1.6698
18857TIP3    H277987   4.202   1.094   4.389  0.1579  0.4700  1.8643
18858TIP3   OH277988   6.304   5.167  16.125  0.1342  0.1498  0.0905
18858TIP3    H177989   6.333   5.129  16.208 -1.1295  0.2920  0.6121
18858TIP3    H277990   6.308   5.094  16.063  0.4467 -0.1211  0.4219
18859TIP3   OH277991   2.864   1.889   4.968 -0.8862  0.6729 -0.2157
18859TIP3    H177992   2.902   1.936   4.893  2.7143 -0.6460  0.5758
18859TIP3    H277993   2.896   1.799   4.958 -0.0461  0.5124  2.9731
18860TIP3   OH277994   0.348   2.744  12.423  0.2363 -0.0951 -0.3312
18860TIP3    H177995   0.392   2.660  12.436  1.2088  0.5049  0.3589
18860TIP3    H277996   0.399   2.806  12.474 -0.8763  0.8018 -0.2711
18861TIP3   OH277997   4.222   6.345   2.589  0.3815  0.2174 -0.4919
18861TIP3    H177998   4.246   6.266   2.540 -0.8385 -0.3830 -0.1554
18861TIP3    H277999   4.127   6.346   2.587  0.3730  1.3628  0.0292
18862TIP3   OH278000   0.958   3.693   4.257 -0.5436  0.0704 -0.5800
18862TIP3    H178001   0.897   3.742   4.201  0.0981 -0.1848 -1.5256
18862TIP3    H278002   0.973   3.751   4.332 -0.9429  0.6864 -0.9671
18863TIP3   OH278003   1.952   2.221  14.231  0.3609 -0.6813  0.0937
18863TIP3    H178004   1.883   2.221  14.165  1.1495 -3.1902 -0.8233
18863TIP3    H278005   1.907   2.206  14.314 -0.4203  0.3689 -0.1242
18864TIP3   OH278006   2.840   1.928  16.792  0.0491  0.7480 -0.3142
18864TIP3    H178007   2.923   1.895  16.758 -0.0639  1.0788 -0.9217
18864TIP3    H278008   2.858   1.948  16.884 -0.1551 -2.0071  0.4109
18865TIP3   OH278009   5.290   1.768   2.392 -0.3125 -0.2877 -0.2470
18865TIP3    H178010   5.335   1.847   2.363 -0.9615  0.0480 -0.3735
18865TIP3    H278011   5.205   1.771   2.348 -0.6506 -0.6559  0.3579
18866TIP3   OH278012   1.876   6.025   0.878 -0.0997 -0.2852 -0.1956
18866TIP3    H178013   1.952   5.967   0.879 -1.1081 -1.6945  1.9337
18866TIP3    H278014   1.818   5.987   0.812  0.2018 -0.3445 -0.4284
18867TIP3   OH278015   2.567   4.836   4.015 -0.2875 -0.4096 -0.0495
18867TIP3    H178016   2.579   4.901   4.085  3.2809  0.4874 -1.2856
18867TIP3    H278017   2.516   4.882   3.948 -0.0978  0.2232  0.2288
18868TIP3   OH278018   6.719   2.098  11.910  0.5647 -0.0743  0.0635
18868TIP3    H178019   6.641   2.046  11.889  0.7325  0.0367 -0.8410
18868TIP3    H278020   6.757   2.054  11.987 -1.0144  0.5334  1.2541
18869TIP3   OH278021   2.244   2.595  14.927 -0.5523 -0.4705  0.1668
18869TIP3    H178022   2.153   2.575  14.905 -0.4483 -0.6666 -0.1038
18869TIP3    H278023   2.239   2.664  14.993 -0.9092 -0.9617  0.6596
18870TIP3   OH278024   4.614   1.418   2.162  0.8799 -0.2571  0.7979
18870TIP3    H178025   4.521   1.428   2.147  0.8744  0.0607  1.0312
18870TIP3    H278026   4.652   1.408   2.074  0.8825  1.8245  0.4949
18871TIP3   OH278027   1.046   4.348  16.635 -0.1698 -0.2709  0.9131
18871TIP3    H178028   0.985   4.414  16.668  0.0350 -0.7177  2.2645
18871TIP3    H278029   1.029   4.344  16.541  1.1010  2.9823  0.4424
18872TIP3   OH278030   4.266   6.224   2.957 -0.3217  0.4492  0.2311
18872TIP3    H178031   4.277   6.313   2.925  0.3018  0.0157 -0.8235
18872TIP3    H278032   4.214   6.180   2.889  0.8128 -0.4270 -0.1022
18873TIP3   OH278033   3.351   3.000   4.398  0.2691 -0.0219  0.1584
18873TIP3    H178034   3.299   3.010   4.318 -1.4876 -0.3226  1.1922
18873TIP3    H278035   3.390   3.086   4.412  1.6149 -0.2879 -1.6413
18874TIP3   OH278036   5.205   2.204  13.041 -0.0404  0.5060  0.3792
18874TIP3    H178037   5.246   2.286  13.069  0.4661  0.6443 -0.7217
18874TIP3    H278038   5.194   2.154  13.122  0.5666  1.2480  0.9387
18875TIP3   OH278039   3.420   3.074  15.420  0.4565 -0.5397  0.2321
18875TIP3    H178040   3.493   3.133  15.406 -0.2427 -0.0287 -1.4919
18875TIP3    H278041   3.375   3.070  15.336 -0.4254 -2.3138  0.7256
18876TIP3   OH278042   0.417   1.277   0.144  0.2297 -0.5541 -0.0953
18876TIP3    H178043   0.432   1.202   0.086 -2.8279 -0.8879 -0.6061
18876TIP3    H278044   0.336   1.256   0.190  0.7717  1.2439  1.8391
18877TIP3   OH278045   0.577   2.428   5.040  0.0046 -0.0975  0.2977
18877TIP3    H178046   0.629   2.482   5.099  0.8805  0.1479 -0.6617
18877TIP3    H278047   0.489   2.467   5.043  0.5666  1.2579 -0.1956
18878TIP3   OH278048   0.653   5.620   2.238 -0.1864 -0.0611  0.7751
18878TIP3    H178049   0.679   5.712   2.235 -0.9318  0.1358 -0.8902
18878TIP3    H278050   0.580   5.617   2.300  0.3151  0.3239  1.3902
18879TIP3   OH278051   3.249   3.235  13.864 -0.1498  0.1304 -0.0724
18879TIP3    H178052   3.169   3.288  13.859  0.1242  0.6550  0.9822
18879TIP3    H278053   3.218   3.145  13.850 -1.3936 -0.0471  3.0736
18880TIP3   OH278054   3.434   4.801   5.124 -0.4697  0.1497  0.2819
18880TIP3    H178055   3.439   4.840   5.212  0.5752 -0.9979  0.7693
18880TIP3    H278056   3.522   4.767   5.109 -0.2124  1.5943 -1.8545
18881TIP3   OH278057   4.886   1.757  14.405  0.0818  0.4884 -0.0688
18881TIP3    H178058   4.908   1.844  14.371 -2.5156  1.1391 -0.2660
18881TIP3    H278059   4.803   1.770  14.451 -0.1931 -1.8302  0.1754
18882TIP3   OH278060   1.311   4.621  11.600 -0.6343  0.7964  0.8305
18882TIP3    H178061   1.220   4.648  11.613 -0.8923 -0.0865  0.9714
18882TIP3    H278062   1.311   4.527  11.622  0.1061  0.5628 -0.0881
18883TIP3   OH278063   2.077   6.517   2.019 -0.5301 -0.7651  0.5417
18883TIP3    H178064   2.052   6.609   2.022 -0.6191 -0.8097  1.8200
18883TIP3    H278065   2.153   6.511   2.077  0.0472 -1.3395 -0.2548
18884TIP3   OH278066   2.398   5.308  14.680 -0.2976  0.1636  0.2404
18884TIP3    H178067   2.449   5.227  14.679 -1.4107 -0.5508  0.0545
18884TIP3    H278068   2.375   5.321  14.772  0.2506  0.5107  0.3310
18885TIP3   OH278069   0.937   5.583   4.455  0.0267  0.6420 -0.2325
18885TIP3    H178070   0.873   5.533   4.404 -3.9321  2.6877  2.2461
18885TIP3    H278071   0.931   5.546   4.544  2.1805  1.1288  0.1871
18886TIP3   OH278072   5.992   2.845  17.236  0.6450 -0.1661  0.3626
18886TIP3    H178073   6.006   2.934  17.206  0.9331 -0.3027  0.0841
18886TIP3    H278074   6.015   2.790  17.161 -2.2580 -0.4119 -0.4915
18887TIP3   OH278075   0.860   4.292   4.506 -0.2837  0.4737 -0.4792
18887TIP3    H178076   0.928   4.341   4.460 -1.1676  1.3412 -0.8995
18887TIP3    H278077   0.809   4.360   4.552  0.3450 -0.3164  1.5133
18888TIP3   OH278078   4.218   2.180  11.745  0.3100 -0.0648  0.1338
18888TIP3    H178079   4.155   2.196  11.675  1.9801 -0.5713 -1.5956
18888TIP3    H278080   4.217   2.085  11.758  1.0128 -0.1331 -0.2390
18889TIP3   OH278081   4.216   4.513  16.680 -0.6522  0.5895  0.2970
18889TIP3    H178082   4.222   4.447  16.611  0.1298 -0.5929  1.4494
18889TIP3    H278083   4.295   4.500  16.733  0.1117  3.1967 -0.0674
18890TIP3   OH278084   4.129   3.263  13.698  0.0269  0.1687 -0.0065
18890TIP3    H178085   4.138   3.351  13.735 -1.4126  0.7537 -0.9854
18890TIP3    H278086   4.178   3.267  13.616 -0.0291  0.0304 -0.0455
18891TIP3   OH278087   3.025   6.753   5.742 -0.4864 -0.3586  0.2494
18891TIP3    H178088   2.942   6.737   5.696 -0.7331 -0.1219  0.6122
18891TIP3    H278089   3.057   6.836   5.706 -0.3040 -0.5436 -0.0293
18892TIP3   OH278090   2.105   4.742  13.140 -0.1157 -0.2540 -0.5475
18892TIP3    H178091   2.132   4.726  13.230 -0.3333 -1.0378 -0.6149
18892TIP3    H278092   2.114   4.657  13.096 -0.1919  0.0729 -1.2165
18893TIP3   OH278093   4.875   0.323   0.645  0.5573  0.2778 -0.0084
18893TIP3    H178094   4.783   0.314   0.620 -0.3888  1.7187  2.5922
18893TIP3    H278095   4.916   0.369   0.572 -0.2870 -1.9168 -1.9944
18894TIP3   OH278096   6.572   0.408   5.677  0.3177  0.5110 -0.5358
18894TIP3    H178097   6.509   0.416   5.605 -1.0894 -0.9923  0.4494
18894TIP3    H278098   6.555   0.322   5.714  3.0715  0.0040 -0.2648
18895TIP3   OH278099   5.145   0.704  13.549  0.4007 -0.1301 -0.5448
18895TIP3    H178100   5.190   0.784  13.577 -0.5944  0.9630 -1.9292
18895TIP3    H278101   5.213   0.652  13.506  0.9776  0.1019  0.0611
18896TIP3   OH278102   3.059   2.401   0.534  0.0503  0.0493 -0.5120
18896TIP3    H178103   2.974   2.406   0.491  0.5933  0.0935 -1.6236
18896TIP3    H278104   3.122   2.422   0.465  0.9556  0.1783  0.3298
18897TIP3   OH278105   2.673   1.614   4.254  0.5975 -0.0685  0.2919
18897TIP3    H178106   2.621   1.640   4.330  0.5407  0.2348  0.1486
18897TIP3    H278107   2.668   1.518   4.253 -1.5822  0.0010 -0.8293
18898TIP3   OH278108   2.640   5.841   5.484  0.1424  0.1538 -0.9909
18898TIP3    H178109   2.666   5.933   5.486  1.4085 -0.1491 -2.1862
18898TIP3    H278110   2.612   5.826   5.393  0.9851 -0.8990 -1.0938
18899TIP3   OH278111   6.193   3.143  16.572 -0.2180  0.8509  0.0999
18899TIP3    H178112   6.195   3.049  16.591  0.4695  0.6394 -0.9406
18899TIP3    H278113   6.284   3.171  16.581 -0.6265  1.7534  1.8633
18900TIP3   OH278114   4.688   0.289  12.131 -0.0011  0.4642  0.2099
18900TIP3    H178115   4.737   0.264  12.053 -0.0849  1.5453 -0.2044
18900TIP3    H278116   4.600   0.254  12.117 -0.0228  0.6817 -0.1996
18901TIP3   OH278117   0.218   4.782   0.776  0.7439 -0.5317 -0.2489
18901TIP3    H178118   0.137   4.832   0.765  1.0536 -0.0561 -0.3780
18901TIP3    H278119   0.205   4.732   0.856 -0.6274 -2.2652 -1.4470
18902TIP3   OH278120   6.557   3.563  15.364  0.2054 -0.0197 -0.2009
18902TIP3    H178121   6.578   3.470  15.365 -1.0511 -0.3321  1.7736
18902TIP3    H278122   6.466   3.566  15.334 -0.0315  0.5017  0.5605
18903TIP3   OH278123   1.941   5.606   0.913  0.6166  0.5711 -0.3430
18903TIP3    H178124   1.873   5.633   0.974 -0.0902  0.4126 -1.0433
18903TIP3    H278125   1.970   5.521   0.946 -0.0625  0.2858 -0.4604
18904TIP3   OH278126   0.816   4.051   2.807 -0.1806  0.3290 -0.1288
18904TIP3    H178127   0.796   4.076   2.717  2.5243  0.4032 -0.7730
18904TIP3    H278128   0.889   3.990   2.800 -0.3763 -0.2522  2.0057
18905TIP3   OH278129   4.276   3.081   0.140  0.0823  0.1950 -0.3214
18905TIP3    H178130   4.226   3.155   0.173  1.3671  0.4917  1.0656
18905TIP3    H278131   4.272   3.016   0.211  1.7361  0.2908 -0.0952
18906TIP3   OH278132   1.461   6.436   3.758  0.0752 -0.5960 -0.1374
18906TIP3    H178133   1.486   6.380   3.831 -2.2859 -2.3311 -0.5646
18906TIP3    H278134   1.477   6.525   3.790  1.5746 -1.3911  1.4814
18907TIP3   OH278135   3.961   5.743   6.296  0.1099 -0.0994  0.0492
18907TIP3    H178136   3.967   5.820   6.353 -0.6373 -0.8692  1.2223
18907TIP3    H278137   4.046   5.700   6.305 -0.3539 -0.7851  1.4768
18908TIP3   OH278138   4.727   2.916  10.977  0.5001  0.9289  0.0734
18908TIP3    H178139   4.678   2.970  11.039  0.6294  0.7798  0.3067
18908TIP3    H278140   4.669   2.908  10.901 -0.5523 -0.6450  1.0083
18909TIP3   OH278141   1.249   4.545   4.072 -0.1850  0.7348 -0.1665
18909TIP3    H178142   1.325   4.497   4.105 -0.5886  0.7921  0.8785
18909TIP3    H278143   1.174   4.490   4.095 -0.5989  1.5430  0.4844
18910TIP3   OH278144   0.118   3.120   2.145 -0.0040 -0.0414  0.5411
18910TIP3    H178145   0.068   3.098   2.066 -0.6796  1.1734  0.6077
18910TIP3    H278146   0.190   3.057   2.145  1.2019  1.1539 -2.1646
18911TIP3   OH278147   0.150   2.533   3.717 -0.1134 -0.1917 -0.0578
18911TIP3    H178148   0.093   2.556   3.643 -0.4418  1.9817  0.7981
18911TIP3    H278149   0.096   2.549   3.794  0.6894 -1.0710  0.7008
18912TIP3   OH278150   3.837   4.993  14.489  0.5397  0.0048  0.7642
18912TIP3    H178151   3.866   5.079  14.457  0.1562  0.0589  0.5548
18912TIP3    H278152   3.772   5.014  14.555  0.5903 -0.1255  0.8547
18913TIP3   OH278153   5.430   6.505  12.430  0.3445  0.2262  0.6333
18913TIP3    H178154   5.339   6.477  12.421  1.1933 -2.7494  0.2879
18913TIP3    H278155   5.480   6.424  12.436  3.2432  1.6675 -1.4747
18914TIP3   OH278156   6.555   4.800  14.678 -0.4467 -0.2514 -0.4112
18914TIP3    H178157   6.579   4.793  14.585  0.1050 -2.1645 -0.1720
18914TIP3    H278158   6.559   4.894  14.697  0.8038  0.0548 -1.9780
18915TIP3   OH278159   5.329   0.188   5.079  0.8241 -0.0672  0.1187
18915TIP3    H178160   5.408   0.141   5.108  1.4627  0.8406 -0.0905
18915TIP3    H278161   5.354   0.280   5.083 -0.4843  0.2652  0.7225
18916TIP3   OH278162   3.471   1.448  12.390  0.4991 -0.1986  0.0113
18916TIP3    H178163   3.526   1.495  12.453 -1.0625  0.3392  1.0381
18916TIP3    H278164   3.384   1.448  12.429 -0.6729  0.6066 -2.3826
18917TIP3   OH278165   5.303   3.303   0.147  0.4112 -0.4117  0.6872
18917TIP3    H178166   5.331   3.220   0.111  0.3227  0.0922 -0.5981
18917TIP3    H278167   5.273   3.282   0.236 -1.3802 -2.0906 -0.2328
18918TIP3   OH278168   3.781   3.142   5.668 -0.3975  0.5629  0.6505
18918TIP3    H178169   3.705   3.094   5.636 -0.4686  0.1321  1.4553
18918TIP3    H278170   3.845   3.075   5.690  1.5987  0.9197 -3.1190
18919TIP3   OH278171   6.270   1.248  12.537 -0.1477 -0.3678  0.1894
18919TIP3    H178172   6.354   1.209  12.514  0.6435  0.2226  1.9027
18919TIP3    H278173   6.279   1.273  12.629 -1.6443  1.1386 -0.0150
18920TIP3   OH278174   5.961   6.533   2.310 -0.1260  0.0153  0.1022
18920TIP3    H178175   5.885   6.591   2.306  0.8812  1.3807 -0.2475
18920TIP3    H278176   5.927   6.451   2.344 -1.7772  0.5383 -0.1885
18921TIP3   OH278177   5.711   4.843  13.262 -0.3317 -0.3425 -0.2351
18921TIP3    H178178   5.645   4.789  13.306 -0.6013 -1.0089 -1.4227
18921TIP3    H278179   5.669   4.928  13.252  0.2030  0.2408  1.9152
18922TIP3   OH278180   3.914   5.335  17.269  0.1518  0.0114 -0.2080
18922TIP3    H178181   3.854   5.277  17.316 -0.3887 -0.0131 -0.9053
18922TIP3    H278182   3.986   5.279  17.241  0.3981 -0.0051  0.4430
18923TIP3   OH278183   2.731   3.563  10.641  0.2237 -0.0517 -0.5133
18923TIP3    H178184   2.665   3.543  10.574 -0.3176 -1.3266  0.3759
18923TIP3    H278185   2.740   3.482  10.690  0.9274  0.7450  0.6994
18924TIP3   OH278186   3.374   0.284   3.732  0.6307 -1.2234 -0.2115
18924TIP3    H178187   3.423   0.366   3.737  0.0473 -0.7595 -1.6599
18924TIP3    H278188   3.342   0.281   3.642 -0.7323 -2.2447  0.2837
18925TIP3   OH278189   3.350   0.980  15.569 -0.5874 -0.4789  0.2598
18925TIP3    H178190   3.426   0.932  15.601 -0.6244 -0.8971 -0.2635
18925TIP3    H278191   3.329   0.939  15.485  0.9981  2.1021 -1.5329
18926TIP3   OH278192   1.440   1.975   0.031  0.2045  0.3206 -0.5516
18926TIP3    H178193   1.385   1.901   0.008 -1.3388  0.3246  2.5722
18926TIP3    H278194   1.406   2.048  -0.021 -0.7204 -0.3589 -0.9152
18927TIP3   OH278195   1.943   4.148  17.250  0.1815  0.1969  0.1532
18927TIP3    H178196   1.886   4.198  17.192 -1.0525 -1.2634  0.0344
18927TIP3    H278197   1.900   4.062  17.258  0.3621  0.2813  3.1165
18928TIP3   OH278198   4.303   1.741   4.726 -0.4019  0.2701  0.1935
18928TIP3    H178199   4.227   1.793   4.753  0.0041  0.6670  0.5785
18928TIP3    H278200   4.371   1.763   4.789 -0.4851 -1.4153  0.9189
18929TIP3   OH278201   5.890   3.259  11.993 -0.0889  0.0317  0.1955
18929TIP3    H178202   5.805   3.279  11.952  0.3051 -0.2459 -0.7962
18929TIP3    H278203   5.949   3.245  11.919  0.7837  0.0325  0.8759
18930TIP3   OH278204   4.861   4.990   3.911  0.1908  0.5687 -0.7644
18930TIP3    H178205   4.831   4.908   3.950  0.4729  1.0108  0.4269
18930TIP3    H278206   4.781   5.030   3.876 -0.6935  1.5645  2.0638
18931TIP3   OH278207   1.934   1.717   2.750 -0.0078 -0.6945 -0.0460
18931TIP3    H178208   1.857   1.763   2.783  0.1778  0.3462 -0.9756
18931TIP3    H278209   1.986   1.698   2.828 -1.6046 -2.2676  0.7113
18932TIP3   OH278210   4.153   2.451   1.443  0.8829 -0.1926  0.3747
18932TIP3    H178211   4.214   2.449   1.517  1.1291  1.4708  0.2527
18932TIP3    H278212   4.095   2.375   1.457  0.3560  0.5696  2.7623
18933TIP3   OH278213   0.374   2.166   5.099  0.4992 -0.1208  0.5257
18933TIP3    H178214   0.338   2.135   5.182 -0.2499 -0.6010  0.0321
18933TIP3    H278215   0.355   2.259   5.097 -1.1013 -0.4268  0.1071
18934TIP3   OH278216   1.112   0.373   1.346  0.6625 -0.1163  0.3118
18934TIP3    H178217   1.202   0.343   1.359  0.5536 -0.7411 -0.3296
18934TIP3    H278218   1.120   0.451   1.292  0.8708  0.3462  0.9998
18935TIP3   OH278219   2.432   4.742   5.285 -0.2308  0.1595 -0.1901
18935TIP3    H178220   2.512   4.696   5.260 -0.1067  0.0939  0.3137
18935TIP3    H278221   2.434   4.743   5.381 -0.6754  0.4364 -0.1811
18936TIP3   OH278222   1.900   5.505   6.972 -0.0927 -0.3462  0.4447
18936TIP3    H178223   1.865   5.565   7.038 -0.0138 -1.0792  1.1636
18936TIP3    H278224   1.884   5.550   6.889 -1.9690 -0.2710  0.7966
18937TIP3   OH278225   3.669   1.040  15.820 -0.1949  0.1056 -0.0577
18937TIP3    H178226   3.667   1.041  15.725  0.6285  1.0921 -0.0754
18937TIP3    H278227   3.598   0.981  15.845 -2.7149  2.4545 -1.1997
18938TIP3   OH278228   2.666   6.568  14.565  0.5172  0.2325 -0.3323
18938TIP3    H178229   2.643   6.660  14.572  1.3979  0.4893 -0.6667
18938TIP3    H278230   2.615   6.536  14.490  0.4040  0.5093 -0.3721
18939TIP3   OH278231   4.284   3.222  15.919 -0.1506  0.2569 -0.0771
18939TIP3    H178232   4.268   3.313  15.946 -0.0150  0.1579  0.3364
18939TIP3    H278233   4.307   3.228  15.826  2.5860  0.9323  0.5601
18940TIP3   OH278234   2.843   1.142  13.613  0.3162  0.2143 -0.0113
18940TIP3    H178235   2.924   1.135  13.562  0.4082  0.1290  0.1439
18940TIP3    H278236   2.857   1.218  13.670 -0.6193  1.6125 -1.5768
18941TIP3   OH278237   3.857   3.984   3.577  0.5282  0.0008 -0.1318
18941TIP3    H178238   3.851   4.079   3.580 -1.5943 -0.0828  0.1648
18941TIP3    H278239   3.774   3.956   3.538  0.9457 -1.7418  0.1443
18942TIP3   OH278240   4.418   0.034   3.007  0.0621  0.2990  0.0921
18942TIP3    H178241   4.488   0.030   3.072  1.3644  0.3070 -1.2585
18942TIP3    H278242   4.347  -0.019   3.044  0.9120  0.0039  1.3417
18943TIP3   OH278243   2.979   6.590  12.076  0.5871 -0.2530  0.2860
18943TIP3    H178244   3.038   6.528  12.034 -1.5769 -1.8693 -0.5140
18943TIP3    H278245   2.942   6.542  12.150  0.1519  0.6736  0.6835
18944TIP3   OH278246   0.578   6.680  16.317  1.2945  0.0501  0.7008
18944TIP3    H178247   0.494   6.661  16.274  1.5814  0.6835 -0.1590
18944TIP3    H278248   0.591   6.606  16.377  0.3792 -0.3187  0.4710
18945TIP3   OH278249   1.408   0.001   4.809  0.3775 -0.1497  0.1762
18945TIP3    H178250   1.450  -0.030   4.889 -0.9609 -1.0227  0.5801
18945TIP3    H278251   1.480   0.022   4.750  1.3798  0.1564  1.4806
18946TIP3   OH278252   2.239   4.051  11.929  0.2428  0.0512 -0.1584
18946TIP3    H178253   2.272   4.141  11.928  0.6635 -0.1028 -0.7682
18946TIP3    H278254   2.295   4.005  11.866 -0.6347 -0.3967 -0.6274
18947TIP3   OH278255   3.661   0.557   4.787  0.1095 -0.0432  0.5634
18947TIP3    H178256   3.589   0.587   4.843 -0.1984  0.2031  0.0341
18947TIP3    H278257   3.727   0.626   4.793 -0.7671  0.9655 -0.9799
18948TIP3   OH278258   0.190   3.869   4.607  0.3097 -0.6935 -0.0307
18948TIP3    H178259   0.113   3.893   4.657  0.5998 -0.7858  0.4643
18948TIP3    H278260   0.201   3.775   4.621  0.5855 -0.6578  0.0080
18949TIP3   OH278261   3.001   1.898   2.156  0.0590 -0.1654  0.3093
18949TIP3    H178262   3.026   1.911   2.064  0.5050  1.4500  0.6217
18949TIP3    H278263   3.084   1.897   2.203 -0.0584 -2.5120  0.5819
18950TIP3   OH278264   2.830   4.430  14.362 -0.6414  0.0317 -0.3237
18950TIP3    H178265   2.756   4.371  14.376 -0.4908 -0.0842  0.0102
18950TIP3    H278266   2.830   4.487  14.439  0.0150 -0.4097  0.0199
18951TIP3   OH278267   6.537   0.199  13.415 -0.4793  0.4038 -0.0828
18951TIP3    H178268   6.468   0.169  13.473 -0.7585 -1.6802 -1.4063
18951TIP3    H278269   6.615   0.151  13.444  0.4309  2.4682  1.1713
18952TIP3   OH278270   4.630   4.729   2.682 -0.0320  0.0410 -0.0642
18952TIP3    H178271   4.600   4.791   2.748 -0.0926 -0.5498  0.4751
18952TIP3    H278272   4.691   4.779   2.628  0.8121  0.2619  1.0631
18953TIP3   OH278273   5.663   3.047  14.955  0.7146 -0.7131 -0.3803
18953TIP3    H178274   5.616   2.970  14.986  1.2246 -1.3824 -1.2072
18953TIP3    H278275   5.716   3.075  15.030 -0.6221 -0.2252  0.4047
18954TIP3   OH278276   5.038   2.057  10.406 -0.0733 -0.0889 -0.0232
18954TIP3    H178277   5.019   2.147  10.434 -1.3973 -0.2829 -0.2409
18954TIP3    H278278   4.955   2.012  10.412  0.4595 -1.1690 -0.4714
18955TIP3   OH278279   6.116   4.876  16.330 -0.1613  0.2257 -0.2991
18955TIP3    H178280   6.134   4.819  16.404 -0.1667 -0.0529 -0.5123
18955TIP3    H278281   6.062   4.823  16.271  0.3596  0.2364 -0.7915
18956TIP3   OH278282   2.825   3.757   6.117 -0.2940 -0.2976  1.2406
18956TIP3    H178283   2.803   3.846   6.145  0.2634  0.4758 -0.6399
18956TIP3    H278284   2.875   3.721   6.190 -0.7544  0.8203  2.1445
18957TIP3   OH278285   0.066   1.232   4.399  0.1430 -0.0494 -0.0979
18957TIP3    H178286   0.161   1.243   4.409  0.3463 -1.2516 -0.6021
18957TIP3    H278287   0.046   1.151   4.446 -0.3997 -0.5975 -1.2517
18958TIP3   OH278288   0.451   0.012   0.537  0.0999  0.0147  0.4126
18958TIP3    H178289   0.486  -0.043   0.607 -0.5420 -1.5285 -0.4405
18958TIP3    H278290   0.505  -0.007   0.461  0.3542  1.1721  0.2801
18959TIP3   OH278291   1.042   5.719  12.308  0.6399 -0.1539 -0.0243
18959TIP3    H178292   0.966   5.768  12.339  1.0173  0.5869 -0.2643
18959TIP3    H278293   1.027   5.630  12.340 -0.8104 -0.2560 -0.8958
18960TIP3   OH278294   0.255   2.036   5.304  0.8884 -0.3716  0.3977
18960TIP3    H178295   0.167   2.003   5.320  1.1519 -2.4939 -1.8277
18960TIP3    H278296   0.301   2.024   5.386 -0.0335 -2.3969  0.6719
18961TIP3   OH278297   0.175   2.391  14.177 -0.4896 -0.6471  0.0475
18961TIP3    H178298   0.212   2.471  14.214  0.4491 -1.3087  0.5895
18961TIP3    H278299   0.081   2.398  14.193 -0.4183  0.3635  0.0535
18962TIP3   OH278300   0.580   5.142  13.167 -0.0416  0.3220  0.0087
18962TIP3    H178301   0.674   5.148  13.185 -0.0804 -0.6708  0.6049
18962TIP3    H278302   0.559   5.226  13.125  1.0377  0.6929  0.1580
18963TIP3   OH278303   4.041   5.232  11.102 -0.3760  0.5094  0.0552
18963TIP3    H178304   4.110   5.241  11.037  0.7468  2.0659  1.3808
18963TIP3    H278305   3.960   5.246  11.052  0.0070 -3.0653 -1.8522
18964TIP3   OH278306   4.086   4.724   5.611 -0.2057 -0.2622 -0.2575
18964TIP3    H178307   4.110   4.791   5.675  1.6317  0.8438 -2.0183
18964TIP3    H278308   4.106   4.641   5.656  0.4440  0.4558  0.8297
18965TIP3   OH278309   2.731   3.217  15.580 -0.1315 -0.4779 -0.0109
18965TIP3    H178310   2.770   3.237  15.495  1.5207 -1.5275  0.4520
18965TIP3    H278311   2.724   3.302  15.624  2.2635 -0.2707  0.1008
18966TIP3   OH278312   0.614   5.696   5.882  0.6420  0.0763 -0.1424
18966TIP3    H178313   0.582   5.784   5.904  1.7551  0.5213 -0.2845
18966TIP3    H278314   0.537   5.640   5.894  0.5385  0.6404  2.5715
18967TIP3   OH278315   1.049   0.183   3.390 -0.1239 -0.1268 -0.4969
18967TIP3    H178316   1.039   0.267   3.344 -1.3069  0.2793  0.4361
18967TIP3    H278317   1.051   0.207   3.483 -0.4858 -1.1320 -0.2197
18968TIP3   OH278318   2.990   5.814   2.596  0.8738 -0.1138  0.4021
18968TIP3    H178319   2.969   5.811   2.689  0.3439 -3.6162  0.2796
18968TIP3    H278320   2.943   5.892   2.564 -0.7360 -0.0560  2.6378
18969TIP3   OH278321   3.700   5.120  13.833  0.5969 -0.0396 -0.1652
18969TIP3    H178322   3.768   5.187  13.842  1.0495 -0.3909 -0.9008
18969TIP3    H278323   3.700   5.074  13.917  2.9673 -1.6039 -0.9312
18970TIP3   OH278324   4.086   4.323   4.845  0.5034  0.4648 -0.0219
18970TIP3    H178325   4.013   4.280   4.801 -0.3183  2.5296 -0.7725
18970TIP3    H278326   4.133   4.251   4.887 -2.1149 -0.9178  0.7759
18971TIP3   OH278327   4.768   3.001  17.257  0.1311 -0.6786  0.7637
18971TIP3    H178328   4.780   2.967  17.345 -1.6685 -0.8571  0.9825
18971TIP3    H278329   4.702   2.944  17.218  2.1141 -1.6809 -1.3529
18972TIP3   OH278330   1.239   2.350   0.584  0.1865 -0.1952  0.0757
18972TIP3    H178331   1.275   2.336   0.496  2.0266  1.2945  0.5159
18972TIP3    H278332   1.176   2.279   0.596  0.0551 -0.5642 -2.3499
18973TIP3   OH278333   6.173   0.710  16.461 -0.4665  0.4360 -0.1357
18973TIP3    H178334   6.206   0.762  16.389 -0.8247  1.4914  0.4448
18973TIP3    H278335   6.208   0.752  16.540 -0.5200 -0.3690  0.3317
18974TIP3   OH278336   2.627   2.718   5.238  0.6663  0.5589  0.2571
18974TIP3    H178337   2.668   2.731   5.153  0.2125  0.5373  0.0307
18974TIP3    H278338   2.545   2.767   5.233 -1.0485 -2.1473 -0.5903
18975TIP3   OH278339   4.683   4.356   0.222 -0.0572  0.4142  0.4079
18975TIP3    H178340   4.597   4.365   0.181 -0.5738  0.0525  1.3774
18975TIP3    H278341   4.732   4.300   0.162 -0.8388 -0.1947  0.3216
18976TIP3   OH278342   4.559   3.337  15.665  0.1839 -0.0720 -0.4045
18976TIP3    H178343   4.641   3.348  15.617  0.6655 -0.3682  0.3318
18976TIP3    H278344   4.544   3.423  15.705  0.7925 -0.3501  0.4569
18977TIP3   OH278345   5.446   0.541  14.570  0.4588  0.0651 -0.3548
18977TIP3    H178346   5.373   0.490  14.534  0.9004 -0.7921 -0.0674
18977TIP3    H278347   5.441   0.625  14.525 -2.6042  1.2731  1.8523
18978TIP3   OH278348   4.239   4.037  11.437  0.7161 -0.0895  0.3990
18978TIP3    H178349   4.152   4.072  11.460  0.6457 -0.8712  1.3889
18978TIP3    H278350   4.241   4.040  11.341 -0.1919  0.4281  0.3785
18979TIP3   OH278351   4.377   0.201   1.865 -0.1953 -0.4759  0.0595
18979TIP3    H178352   4.328   0.119   1.865 -0.8735 -0.0743  0.2763
18979TIP3    H278353   4.318   0.265   1.825 -0.0894  0.1498  0.8795
18980TIP3   OH278354   3.931   1.711  15.968  0.0970 -0.0099 -1.0615
18980TIP3    H178355   3.877   1.725  16.045  0.9060  2.6687 -0.8890
18980TIP3    H278356   3.884   1.644  15.918 -3.1405  1.7768 -0.6843
18981TIP3   OH278357   0.999   4.432  13.792  0.0801 -0.1559 -0.1660
18981TIP3    H178358   1.095   4.428  13.794  0.0653 -0.5931 -0.3713
18981TIP3    H278359   0.973   4.366  13.728 -0.4011 -0.6270  0.5043
18982TIP3   OH278360   5.004   5.241   4.602  0.0622 -0.5309  0.4314
18982TIP3    H178361   5.060   5.292   4.544  0.7739 -0.1848  1.3961
18982TIP3    H278362   4.989   5.297   4.678 -2.6985 -0.0991 -0.3304
18983TIP3   OH278363   1.766   4.058   3.166  0.0397  0.0621  0.4714
18983TIP3    H178364   1.683   4.103   3.184  0.0838 -0.2821  1.6056
18983TIP3    H278365   1.772   3.992   3.235  1.2830  0.1148  0.4232
18984TIP3   OH278366   4.750   1.562  11.842 -0.0341 -0.0644  0.0773
18984TIP3    H178367   4.770   1.630  11.778  0.8740 -0.4692 -0.0727
18984TIP3    H278368   4.704   1.495  11.792 -3.3521  1.5158  0.6890
18985TIP3   OH278369   2.589   4.794   0.069 -0.0260  0.1201 -0.3493
18985TIP3    H178370   2.638   4.712   0.080 -1.9544 -1.0784 -0.1589
18985TIP3    H278371   2.618   4.850   0.141  1.2045 -0.4451 -0.3860
18986TIP3   OH278372   5.065   1.906  16.267 -0.1004  0.0571  0.0382
18986TIP3    H178373   5.065   1.810  16.263  0.4190 -0.0067  0.9936
18986TIP3    H278374   5.059   1.934  16.176  0.3142 -0.8942 -0.3031
18987TIP3   OH278375   4.249   0.164  11.596 -0.2685  0.4485  0.3779
18987TIP3    H178376   4.175   0.172  11.656 -2.2985 -0.3471 -1.8545
18987TIP3    H278377   4.211   0.131  11.515  2.0263  3.1380 -1.9928
18988TIP3   OH278378   4.259   0.590  16.828  0.3429 -0.0298  0.1346
18988TIP3    H178379   4.217   0.660  16.878 -1.2087 -1.0032  0.2483
18988TIP3    H278380   4.191   0.558  16.769  0.6465 -2.1376  0.8268
18989TIP3   OH278381   1.570   4.331  14.493 -0.2246 -0.2404  0.1018
18989TIP3    H178382   1.552   4.237  14.491  1.8478 -0.7446  1.6812
18989TIP3    H278383   1.541   4.358  14.580  1.3211  0.0518  0.5538
18990TIP3   OH278384   5.532   4.622   2.289 -0.8118  0.3791 -0.3087
18990TIP3    H178385   5.526   4.547   2.230 -1.2314 -0.9458  1.3362
18990TIP3    H278386   5.590   4.593   2.359 -1.2056  1.4955  0.5167
18991TIP3   OH278387   6.010   0.230  11.511  0.2840 -0.4775  0.1650
18991TIP3    H178388   6.052   0.144  11.515  0.7257 -0.2578  0.3637
18991TIP3    H278389   5.917   0.212  11.520  0.3622 -0.9474  0.0612
18992TIP3   OH278390   1.724   3.120   0.411 -0.4801 -0.4243  0.1079
18992TIP3    H178391   1.681   3.123   0.326 -1.7052 -1.0265  0.6775
18992TIP3    H278392   1.652   3.117   0.474  0.3580 -2.3545  1.0750
18993TIP3   OH278393   3.110   0.924   3.258 -0.5662  0.3162  0.3124
18993TIP3    H178394   3.135   1.006   3.302 -1.4548  1.6736 -1.5543
18993TIP3    H278395   3.190   0.896   3.213 -0.7591  1.3054 -0.6867
18994TIP3   OH278396   3.983   5.523  16.024 -0.0080  0.1787 -0.0157
18994TIP3    H178397   3.983   5.570  15.941  3.2521 -1.4735 -1.1148
18994TIP3    H278398   3.989   5.431  16.000  0.1552 -0.3998  2.0573
18995TIP3   OH278399   2.391   2.422  12.959  0.3176 -0.3990 -0.2065
18995TIP3    H178400   2.452   2.488  12.926  2.0929 -1.6938  0.3260
18995TIP3    H278401   2.400   2.428  13.055 -0.2404 -0.7502 -0.1291
18996TIP3   OH278402   1.405   1.289  12.840  0.0475  0.0898 -0.0178
18996TIP3    H178403   1.337   1.355  12.824 -0.8539 -0.8602 -0.2468
18996TIP3    H278404   1.394   1.226  12.768  1.0790 -0.1609  0.0303
18997TIP3   OH278405   0.226   1.830   6.649  0.2377 -0.9284  0.0791
18997TIP3    H178406   0.217   1.738   6.624  1.1886 -0.5219 -1.9557
18997TIP3    H278407   0.252   1.827   6.741 -1.3097 -2.6153  0.5237
18998TIP3   OH278408   5.860   2.955   2.599 -0.0573 -0.5419 -0.1775
18998TIP3    H178409   5.927   2.890   2.578  1.1132  1.2931 -2.6001
18998TIP3    H278410   5.790   2.938   2.535 -0.2990 -0.2038 -0.0017
18999TIP3   OH278411   3.542   0.221   3.425  0.5764 -0.1770 -0.1749
18999TIP3    H178412   3.543   0.294   3.488  0.8155  0.0179 -0.4020
18999TIP3    H278413   3.456   0.225   3.385  0.3969 -0.3437  0.1893
19000TIP3   OH278414   4.197   4.083  16.025  0.2008 -0.9769 -0.7684
19000TIP3    H178415   4.227   4.117  16.109 -0.3069  0.0505 -0.9956
19000TIP3    H278416   4.238   3.996  16.019 -0.3961 -1.4160  0.8920
19001TIP3   OH278417   4.179   0.411  14.480  0.4566  0.2512  0.3576
19001TIP3    H178418   4.209   0.430  14.569  3.9006  0.6475 -0.7538
19001TIP3    H278419   4.256   0.376  14.436 -1.4431 -0.9764 -2.2096
19002TIP3   OH278420   0.015   0.613   0.775 -0.1750  0.3571 -0.1105
19002TIP3    H178421   0.058   0.527   0.775  0.0711  0.4463 -1.5178
19002TIP3    H278422  -0.004   0.630   0.867  1.3757 -0.3967  0.3972
19003TIP3   OH278423   5.624   6.235  15.701 -0.3861  0.1446  0.0660
19003TIP3    H178424   5.712   6.235  15.739 -0.2503  1.1941 -0.2103
19003TIP3    H278425   5.566   6.258  15.774 -0.9519 -4.0730  1.2010
19004TIP3   OH278426   6.318   2.023   3.478 -0.1050  0.3527 -0.3114
19004TIP3    H178427   6.286   2.003   3.566  0.7053  0.6259  0.0544
19004TIP3    H278428   6.344   2.115   3.483  1.7145 -0.1276 -0.2861
19005TIP3   OH278429   3.681   4.925  15.224  0.1154  0.0802  0.0628
19005TIP3    H178430   3.689   4.987  15.152 -0.3954  1.7627  1.3854
19005TIP3    H278431   3.762   4.937  15.274  1.0542 -1.9878 -0.8547
19006TIP3   OH278432   1.535   0.767  15.202 -0.4462  0.1192  0.3246
19006TIP3    H178433   1.497   0.707  15.138  0.5448  0.3670 -0.5254
19006TIP3    H278434   1.469   0.835  15.214 -0.0540  0.8833 -1.6059
19007TIP3   OH278435   5.066   0.333  14.646 -0.0325  0.3148 -0.4529
19007TIP3    H178436   5.020   0.405  14.603 -0.4472 -0.4634 -1.3256
19007TIP3    H278437   5.091   0.369  14.732 -0.6819  1.3271 -0.6719
19008TIP3   OH278438   4.040   3.252   0.758  0.4327 -0.0556  0.2073
19008TIP3    H178439   3.989   3.172   0.748  0.5779 -0.2625  1.0499
19008TIP3    H278440   3.990   3.319   0.710 -0.2469 -0.4118  0.4037
19009TIP3   OH278441   2.774   0.293   5.812 -0.0031  0.1484 -0.5939
19009TIP3    H178442   2.748   0.382   5.835 -0.7466 -0.3012  0.3657
19009TIP3    H278443   2.797   0.252   5.896 -2.1780 -1.3412 -0.6490
19010TIP3   OH278444   5.765   5.224   6.705  0.1420  0.0663  0.0273
19010TIP3    H178445   5.694   5.201   6.765  0.0338 -0.3523 -0.2540
19010TIP3    H278446   5.723   5.278   6.638  0.4583  1.3988  0.8619
19011TIP3   OH278447   4.027   0.293  14.815  0.1034  0.6903  0.2787
19011TIP3    H178448   3.937   0.302  14.848 -0.6743  0.6707 -1.7029
19011TIP3    H278449   4.016   0.277  14.722  2.1328 -1.0975  0.2843
19012TIP3   OH278450   0.057   5.363  13.732  0.1536 -0.3563 -0.2393
19012TIP3    H178451   0.143   5.323  13.727  1.0202  1.2116  1.1511
19012TIP3    H278452   0.069   5.451  13.695 -1.0200 -0.3464 -0.6576
19013TIP3   OH278453   4.346   6.350   4.997  0.0846 -0.1430 -0.4332
19013TIP3    H178454   4.258   6.362   5.031  0.2480 -0.7685  0.2482
19013TIP3    H278455   4.347   6.261   4.962  1.0839 -1.0475  1.7034
19014TIP3   OH278456   4.926   1.735  11.963 -0.0801 -0.2789 -0.3223
19014TIP3    H178457   4.858   1.673  11.938 -1.3193 -0.0854  2.2963
19014TIP3    H278458   4.890   1.821  11.940 -0.2728 -0.2421  0.1198
19015TIP3   OH278459   3.223   6.546  13.031 -0.2037 -0.3378  0.0894
19015TIP3    H178460   3.192   6.629  12.996 -2.0070 -1.4999 -1.2822
19015TIP3    H278461   3.144   6.492  13.038  0.8609 -1.8403  1.2649
19016TIP3   OH278462   5.953   4.467  15.115  0.2417  0.0530 -0.2532
19016TIP3    H178463   5.924   4.501  15.200  0.7595 -0.8018  0.2647
19016TIP3    H278464   5.879   4.415  15.084  0.3170 -0.1948 -0.0151
19017TIP3   OH278465   3.774   0.949   0.308  0.2517 -0.3957  0.0954
19017TIP3    H178466   3.816   0.902   0.380 -2.0144 -1.3672  0.8612
19017TIP3    H278467   3.847   0.990   0.261  2.0539 -2.1110  1.2219
19018TIP3   OH278468   2.307   5.234   2.892 -0.6297 -0.8596 -0.0222
19018TIP3    H178469   2.326   5.167   2.826 -2.0828 -1.1009 -0.2152
19018TIP3    H278470   2.388   5.240   2.943 -0.3499 -2.5058 -0.2081
19019TIP3   OH278471   0.534   0.733   4.565  0.1364 -0.2440  0.5431
19019TIP3    H178472   0.554   0.742   4.659 -1.4160 -0.1313  0.8848
19019TIP3    H278473   0.508   0.642   4.555  0.4496 -0.2948  0.1774
19020TIP3   OH278474   4.256   3.043   0.426  0.1728  0.6393 -0.2420
19020TIP3    H178475   4.188   2.995   0.474  0.4439  1.6452  1.2242
19020TIP3    H278476   4.212   3.121   0.393  0.0273  0.0316 -1.5692
19021TIP3   OH278477   3.714   6.164   4.769 -0.0935 -0.3505  0.2772
19021TIP3    H178478   3.770   6.174   4.846  1.8319 -0.0628 -1.1002
19021TIP3    H278479   3.730   6.244   4.718 -1.4740 -0.4564 -0.3739
19022TIP3   OH278480   3.011   1.344   4.831  0.3199 -0.1069  0.8817
19022TIP3    H178481   2.981   1.305   4.913 -0.0224 -1.2524  0.2323
19022TIP3    H278482   2.966   1.294   4.763 -0.5315  1.7568  0.0156
19023TIP3   OH278483   6.670   0.937  12.161 -0.2312 -0.7533  0.3427
19023TIP3    H178484   6.666   0.878  12.236  1.2313  1.1741  2.0551
19023TIP3    H278485   6.655   1.024  12.199  2.9715  0.5953 -1.1034
19024TIP3   OH278486   3.158   2.753  11.047  0.1975 -0.2957  0.3299
19024TIP3    H178487   3.134   2.825  10.988 -0.3199  0.2153  1.1379
19024TIP3    H278488   3.182   2.681  10.988 -2.3141 -0.5037 -0.5523
19025TIP3   OH278489   5.598   0.355   0.789  0.3585  0.3203  0.3135
19025TIP3    H178490   5.596   0.407   0.709  0.4307 -0.3579 -0.1275
19025TIP3    H278491   5.529   0.290   0.778  0.0460  0.5127  1.0090
19026TIP3   OH278492   1.037   4.253   2.517 -0.3931  0.5950 -0.3763
19026TIP3    H178493   0.970   4.271   2.582 -0.4200  0.5296 -0.3861
19026TIP3    H278494   1.064   4.163   2.533 -1.6685 -0.0483 -1.5777
19027TIP3   OH278495   6.268   0.229  12.728 -0.1230 -0.0419  0.2724
19027TIP3    H178496   6.338   0.207  12.790  0.9776 -2.0758 -1.5686
19027TIP3    H278497   6.189   0.191  12.767  0.6410 -1.7095  0.2653
19028TIP3   OH278498   4.283   5.251   1.980 -0.6828 -0.7956 -0.1171
19028TIP3    H178499   4.264   5.161   1.955 -2.6212 -0.4030 -0.1520
19028TIP3    H278500   4.314   5.292   1.900  2.1532 -1.8545  0.3041
19029TIP3   OH278501   0.870   3.384  12.565  0.6606  0.0532  0.9061
19029TIP3    H178502   0.892   3.454  12.626 -0.6011  0.6507  0.7013
19029TIP3    H278503   0.821   3.427  12.495  0.5774 -0.9029  0.3537
19030TIP3   OH278504   2.615   0.843  15.846 -0.8765  0.4097 -0.5206
19030TIP3    H178505   2.581   0.830  15.934 -2.3987 -1.1868 -1.2929
19030TIP3    H278506   2.675   0.770  15.832  0.2593  1.2937 -0.4329
19031TIP3   OH278507   0.466   5.386  15.906  0.0165 -0.1495 -0.4088
19031TIP3    H178508   0.379   5.418  15.930  0.4126  2.3054 -1.8087
19031TIP3    H278509   0.458   5.363  15.813  0.5624 -1.1044 -0.2222
19032TIP3   OH278510   1.746   4.270  14.032 -0.4662 -0.1016  0.1087
19032TIP3    H178511   1.794   4.276  14.115  0.7334  0.2089 -0.5819
19032TIP3    H278512   1.811   4.293  13.966 -1.9197  1.6640 -0.7743
19033TIP3   OH278513   3.686   2.854  13.223  0.9938  0.7833 -0.4771
19033TIP3    H178514   3.777   2.842  13.196  0.6291 -2.0455 -0.7585
19033TIP3    H278515   3.686   2.835  13.317  0.2779 -2.5341 -1.0494
19034TIP3   OH278516   4.150   1.281   5.612 -0.4611  0.3467  0.3761
19034TIP3    H178517   4.220   1.334   5.575 -0.5708  1.3140  1.4748
19034TIP3    H278518   4.076   1.294   5.552 -0.1562  0.5477  0.0378
19035TIP3   OH278519   5.048   1.487  15.836  1.2434  0.0329  0.1725
19035TIP3    H178520   5.003   1.483  15.921  1.5883 -0.0831  0.3493
19035TIP3    H278521   5.133   1.447  15.852  0.8998 -0.9872 -0.4921
19036TIP3   OH278522   5.801   6.490   1.784  0.4644 -0.7208 -0.2058
19036TIP3    H178523   5.792   6.585   1.776  1.0443 -0.4892  1.4279
19036TIP3    H278524   5.891   6.472   1.757  0.4699 -0.7559 -0.1651
19037TIP3   OH278525   3.457   3.363  12.205  0.0813 -0.2512 -0.3083
19037TIP3    H178526   3.461   3.458  12.214  0.6933  0.0485 -2.9703
19037TIP3    H278527   3.365   3.341  12.220 -0.0427  0.7299  0.4311
19038TIP3   OH278528   3.862   2.207  12.572  0.7101 -0.6668  0.3202
19038TIP3    H178529   3.808   2.221  12.650 -0.6345 -0.7700 -0.5620
19038TIP3    H278530   3.800   2.211  12.499  2.0279  0.0326 -0.8040
19039TIP3   OH278531   6.619   5.583  14.796 -0.4168 -0.6858 -0.5690
19039TIP3    H178532   6.560   5.589  14.871  0.7923  1.2531  0.3234
19039TIP3    H278533   6.615   5.670  14.757 -0.4823 -1.4613 -2.3822
19040TIP3   OH278534   5.927   1.887   2.140 -0.6584 -0.0070 -0.4435
19040TIP3    H178535   5.924   1.983   2.135  0.7202  0.0025 -1.9277
19040TIP3    H278536   5.865   1.857   2.073  0.4588 -0.0865 -1.4969
19041TIP3   OH278537   4.210   3.361  14.251  0.5144  0.1954 -0.1227
19041TIP3    H178538   4.207   3.401  14.164  1.2705 -0.2111 -0.3424
19041TIP3    H278539   4.140   3.295  14.249  1.5590 -0.9325 -1.0023
19042TIP3   OH278540   4.257   3.920   3.067  0.0814  0.3578 -0.4232
19042TIP3    H178541   4.285   3.883   2.983 -0.2238  1.6826 -1.1236
19042TIP3    H278542   4.175   3.874   3.086  0.7334 -0.7854 -0.2458
19043TIP3   OH278543   0.582   4.304   4.712  0.4144  0.1241 -0.0395
19043TIP3    H178544   0.539   4.223   4.685 -0.0440  0.5604 -0.6581
19043TIP3    H278545   0.627   4.335   4.634  0.7560  0.3633  0.2475
19044TIP3   OH278546   0.818   4.384  13.529 -0.0309 -0.4228 -0.1033
19044TIP3    H178547   0.770   4.304  13.547 -1.7328  0.0526 -2.1603
19044TIP3    H278548   0.900   4.354  13.490 -0.7926 -1.1684 -1.1712
19045TIP3   OH278549   2.862   1.325   6.220  0.0613  0.2648  0.3032
19045TIP3    H178550   2.809   1.331   6.300  0.1490 -0.3171  0.4093
19045TIP3    H278551   2.835   1.400   6.168 -1.1203 -0.2048  0.2090
19046TIP3   OH278552   6.140   2.803  14.183  0.0723  0.2097 -1.1272
19046TIP3    H178553   6.214   2.746  14.203  2.2457  1.7317 -4.0298
19046TIP3    H278554   6.135   2.864  14.257  0.4874 -1.0446 -0.0448
19047TIP3   OH278555   1.485   0.364   4.605 -0.2739 -0.2130  0.2313
19047TIP3    H178556   1.505   0.454   4.579 -1.2010 -0.4960 -1.6346
19047TIP3    H278557   1.475   0.368   4.700  2.7944  1.0237  0.6414
19048TIP3   OH278558   6.452   4.446  15.102 -0.1412  0.2840  0.3312
19048TIP3    H178559   6.481   4.397  15.179  0.9608  1.1779  0.5136
19048TIP3    H278560   6.439   4.536  15.133 -2.2564  0.1366  0.0326
19049TIP3   OH278561   5.434   2.374   2.537 -1.3658  0.1661 -0.0443
19049TIP3    H178562   5.523   2.362   2.502 -1.3393  1.2219 -0.3575
19049TIP3    H278563   5.447   2.380   2.631 -1.2527 -0.9351  0.0317
19050TIP3   OH278564   5.019   5.026  13.590  0.2025  0.0096 -0.2175
19050TIP3    H178565   5.094   4.993  13.639  0.5878  0.4001 -0.5332
19050TIP3    H278566   4.982   4.949  13.548  0.5810 -0.1490 -0.2641
19051TIP3   OH278567   1.349   4.985   1.950  0.4126  0.3856  0.6926
19051TIP3    H178568   1.439   4.957   1.935  0.0366 -0.9890  0.8252
19051TIP3    H278569   1.303   4.961   1.869  0.1353  0.9207  0.6897
19052TIP3   OH278570   5.607   4.456   5.106 -0.2375 -0.5915 -0.2651
19052TIP3    H178571   5.524   4.423   5.141 -0.6117 -1.1422 -1.6150
19052TIP3    H278572   5.666   4.381   5.109  1.0412  0.3546  2.9182
19053TIP3   OH278573   4.246   5.240  12.994 -0.8071  0.5232 -0.1957
19053TIP3    H178574   4.320   5.276  13.042 -0.8339  1.4321 -0.8035
19053TIP3    H278575   4.226   5.307  12.928 -0.2543 -0.9918 -2.0042
19054TIP3   OH278576   3.430   0.858   4.122 -0.3008 -0.3534  0.7439
19054TIP3    H178577   3.385   0.941   4.132  0.8073  0.5759 -1.3528
19054TIP3    H278578   3.362   0.796   4.096 -0.7669  0.4385  0.0463
19055TIP3   OH278579   0.239   5.019   2.102 -0.1460 -0.8379 -0.0353
19055TIP3    H178580   0.144   5.028   2.098  0.0144  0.8598 -1.1101
19055TIP3    H278581   0.259   4.947   2.042 -0.6516 -0.1207 -1.0897
19056TIP3   OH278582   6.647   5.332   5.848 -0.1565  0.3360  0.2536
19056TIP3    H178583   6.625   5.416   5.807 -1.0474  0.3937  0.8290
19056TIP3    H278584   6.702   5.356   5.923 -0.4812  0.4147  0.4673
19057TIP3   OH278585   4.706   5.437   1.953  0.0370 -0.2247  0.6278
19057TIP3    H178586   4.732   5.389   1.874 -1.6548  1.1994 -0.8883
19057TIP3    H278587   4.789   5.468   1.991  0.8831 -0.6986 -0.7558
19058TIP3   OH278588   0.378   0.783  16.538  0.3703 -0.5453  0.2248
19058TIP3    H178589   0.379   0.698  16.496 -2.4800  0.0175 -1.2190
19058TIP3    H278590   0.304   0.779  16.599  0.8119  0.5697  0.8719
19059TIP3   OH278591   2.584   4.516  12.214 -0.3766 -0.4054 -0.4806
19059TIP3    H178592   2.519   4.457  12.251 -0.4055 -1.4760 -2.1176
19059TIP3    H278593   2.576   4.504  12.119  0.5269  1.2687 -0.8099
19060TIP3   OH278594   0.476   0.268  11.192 -0.5251 -0.6059  0.3510
19060TIP3    H178595   0.415   0.200  11.221 -0.7237 -0.5527  0.0622
19060TIP3    H278596   0.435   0.350  11.217 -0.8839 -0.5455 -0.4327
19061TIP3   OH278597   5.511   0.791   5.436 -0.7914 -0.2834  0.6662
19061TIP3    H178598   5.427   0.781   5.481 -0.9388 -0.5798  0.3285
19061TIP3    H278599   5.488   0.816   5.347 -0.5273 -0.5144  0.5294
19062TIP3   OH278600   6.067   1.644  15.182 -0.1144  0.0518 -0.2107
19062TIP3    H178601   6.158   1.618  15.168  0.3550  0.9648  1.0505
19062TIP3    H278602   6.068   1.740  15.175 -0.5526  0.2611  1.9251
19063TIP3   OH278603   3.564   5.561   5.743  0.3699  0.6070 -0.0477
19063TIP3    H178604   3.486   5.505   5.753 -0.6734  2.2090  1.4416
19063TIP3    H278605   3.619   5.538   5.817  0.7684  0.3334 -0.4243
19064TIP3   OH278606   0.896   4.681  17.000 -0.0831 -0.4312  0.6319
19064TIP3    H178607   0.823   4.621  16.986 -2.5252  2.2616  0.8639
19064TIP3    H278608   0.920   4.710  16.912 -1.4812  0.9683  0.6519
19065TIP3   OH278609   6.161   4.047   3.498  0.0613  0.3227 -0.5575
19065TIP3    H178610   6.234   3.989   3.520 -1.0227 -0.5002  1.0419
19065TIP3    H278611   6.136   4.022   3.409  0.8709 -0.2947 -0.6221
19066TIP3   OH278612   3.201   1.506   4.692  0.4960  0.2767 -0.1616
19066TIP3    H178613   3.144   1.583   4.690  0.3434  0.1548 -1.1962
19066TIP3    H278614   3.163   1.449   4.758  1.0850  1.4356  1.2161
19067TIP3   OH278615   4.185   2.575  13.868 -0.8282 -0.7097  0.0698
19067TIP3    H178616   4.182   2.565  13.963 -0.5121  0.1030  0.1786
19067TIP3    H278617   4.100   2.542  13.838 -1.7687  0.8715  0.8423
19068TIP3   OH278618   5.933   1.201  11.853  0.3654 -0.4139  0.9219
19068TIP3    H178619   5.844   1.187  11.883  1.2398 -2.9436  2.6795
19068TIP3    H278620   5.948   1.295  11.863 -2.8305  0.5837 -1.8840
19069TIP3   OH278621   0.926   5.943  17.192 -0.2363  0.7009 -0.0912
19069TIP3    H178622   0.982   6.021  17.187  0.5724  0.0708 -1.7635
19069TIP3    H278623   0.959   5.886  17.121 -1.8886 -0.4381  0.0153
19070TIP3   OH278624   4.098   3.862   5.306  0.3554 -0.3550 -0.3334
19070TIP3    H178625   4.012   3.849   5.345 -0.1194  0.6882 -0.9930
19070TIP3    H278626   4.160   3.842   5.376 -0.4204 -1.1036  0.1450
19071TIP3   OH278627   3.271   4.783   0.665  0.0117 -0.4767  0.6070
19071TIP3    H178628   3.289   4.729   0.588  1.0170 -0.1069  0.5693
19071TIP3    H278629   3.254   4.720   0.735 -2.1770 -0.8272 -0.1617
19072TIP3   OH278630   5.106   0.963   4.489 -0.3818  0.0863  0.1704
19072TIP3    H178631   5.023   0.973   4.441 -0.4563 -0.4303  0.1898
19072TIP3    H278632   5.091   0.889   4.548 -0.3981  0.9142  1.2358
19073TIP3   OH278633   3.456   6.233   2.671 -0.3590 -0.2817  0.1425
19073TIP3    H178634   3.367   6.231   2.707 -0.5674  1.6760 -0.1515
19073TIP3    H278635   3.475   6.326   2.660  1.9143 -0.6427  0.6011
19074TIP3   OH278636   4.171   0.451  13.261  0.5243  0.3094 -0.1062
19074TIP3    H178637   4.263   0.457  13.289  0.3503 -2.5569  1.5555
19074TIP3    H278638   4.146   0.361  13.284 -2.2865  0.5290 -1.8911
19075TIP3   OH278639   4.046   3.777   0.861 -0.4610 -0.4115  0.0990
19075TIP3    H178640   4.138   3.789   0.838 -0.9023 -0.3519 -1.8244
19075TIP3    H278641   4.012   3.866   0.867 -0.1385 -0.3858  2.1257
19076TIP3   OH278642   6.774   0.321   5.514  0.0783 -0.1846 -0.2646
19076TIP3    H178643   6.865   0.337   5.540  0.5660 -1.3124 -1.1973
19076TIP3    H278644   6.722   0.370   5.578  1.3340  0.5894  0.2070
19077TIP3   OH278645   3.917   0.308  15.259  0.6583 -0.2323  0.3258
19077TIP3    H178646   3.910   0.349  15.345 -0.1213 -0.1125  0.2127
19077TIP3    H278647   4.005   0.329  15.229  1.0320 -0.4939  1.2015
19078TIP3   OH278648   6.327   1.895   4.514 -0.0864  0.1463  0.4470
19078TIP3    H178649   6.256   1.948   4.549  0.1497  0.4490  0.4671
19078TIP3    H278650   6.319   1.811   4.560  0.7680  0.8337  1.8879
19079TIP3   OH278651   5.861   3.376  17.327  0.1432 -0.2351  0.0365
19079TIP3    H178652   5.838   3.312  17.260 -0.5257  0.5565 -0.5184
19079TIP3    H278653   5.777   3.416  17.352  0.3872 -0.4755  1.3111
19080TIP3   OH278654   5.024   6.722  13.146  0.5900 -0.5284  0.3309
19080TIP3    H178655   5.000   6.770  13.067  0.4945  0.2608  0.8337
19080TIP3    H278656   4.941   6.696  13.185  0.5194  1.3219  1.5288
19081TIP3   OH278657   6.147   5.973   2.108 -0.1468  0.1922 -0.6266
19081TIP3    H178658   6.184   6.050   2.064 -0.0676  0.8415  0.5565
19081TIP3    H278659   6.147   5.995   2.201  0.8348 -1.6579 -0.1434
19082TIP3   OH278660   4.980   0.075   2.807  0.2535 -0.2678 -0.5510
19082TIP3    H178661   4.976   0.162   2.768  2.0626  0.8296  1.4570
19082TIP3    H278662   4.907   0.072   2.869  0.7295  0.2259  0.0509
19083TIP3   OH278663   4.538   5.940  12.081 -0.4084  0.1215  0.9597
19083TIP3    H178664   4.525   5.852  12.044  1.0667  0.0721  0.4954
19083TIP3    H278665   4.582   5.989  12.011 -1.8271  1.4668  0.9550
19084TIP3   OH278666   4.471   0.329  15.582  1.1598 -0.0218 -0.2387
19084TIP3    H178667   4.548   0.386  15.586  2.4703 -1.6183 -1.4656
19084TIP3    H278668   4.496   0.252  15.633  0.0229 -0.2091  0.0654
19085TIP3   OH278669   2.729   4.497   5.237  0.1168  0.0339  0.1177
19085TIP3    H178670   2.805   4.440   5.238  0.0765 -0.0111  1.3552
19085TIP3    H278671   2.748   4.564   5.303  0.3247  1.6911 -1.5189
19086TIP3   OH278672   5.890   1.820  13.580 -1.0856  0.4543  0.6235
19086TIP3    H178673   5.949   1.882  13.623  0.6196 -0.1569 -0.7209
19086TIP3    H278674   5.947   1.749  13.550 -2.6418 -0.5952  0.0061
19087TIP3   OH278675   6.518   2.850   2.198  0.5726  0.0476  0.3795
19087TIP3    H178676   6.586   2.824   2.259  0.2644 -2.2732 -0.1672
19087TIP3    H278677   6.437   2.815   2.236  0.2066 -0.3461 -0.7158
19088TIP3   OH278678   4.542   3.701   5.604 -0.0645 -0.1761  0.2414
19088TIP3    H178679   4.589   3.783   5.591 -0.7618  0.7793  2.9431
19088TIP3    H278680   4.582   3.663   5.683 -0.1140 -2.2052 -0.6386
19089TIP3   OH278681   2.765   4.949   2.225  0.1629 -0.1508 -0.1015
19089TIP3    H178682   2.736   4.859   2.240 -0.5667 -0.1289 -1.2503
19089TIP3    H278683   2.819   4.970   2.301 -1.8479 -0.6150  1.5404
19090TIP3   OH278684   5.021   3.858  15.791  0.3041 -0.0885  0.1218
19090TIP3    H178685   5.030   3.902  15.706 -0.0088  0.5057  0.3838
19090TIP3    H278686   5.081   3.906  15.849 -0.4402  0.3666  0.5443
19091TIP3   OH278687   3.135   0.231   5.687  0.3661 -0.1507 -0.2498
19091TIP3    H178688   3.185   0.228   5.605 -0.0360 -1.0536 -0.4726
19091TIP3    H278689   3.201   0.252   5.754  0.5431  1.5007 -0.9042
19092TIP3   OH278690   4.149   5.978   4.691 -0.4081  0.2136 -0.4868
19092TIP3    H178691   4.084   6.035   4.731 -0.7073 -0.1936 -0.3877
19092TIP3    H278692   4.115   5.889   4.705  0.6518 -0.0641  0.4362
19093TIP3   OH278693   3.875   3.210  13.692  0.4828 -0.2560  0.1346
19093TIP3    H178694   3.961   3.246  13.671  0.5929 -1.7056 -2.2857
19093TIP3    H278695   3.813   3.264  13.642 -0.1686  1.1980  2.3680
19094TIP3   OH278696   3.643   0.487   1.852 -0.1904  0.2421  0.1888
19094TIP3    H178697   3.730   0.502   1.815  0.4549 -0.7177  1.2553
19094TIP3    H278698   3.639   0.544   1.929 -0.3062 -0.0710  0.4187
19095TIP3   OH278699   3.990   2.525  11.198 -0.7463  0.7809 -0.3303
19095TIP3    H178700   4.021   2.569  11.277 -0.9488  1.2399 -0.5048
19095TIP3    H278701   3.896   2.539  11.197 -0.6186  1.7292 -1.2175
19096TIP3   OH278702   3.431   2.522  11.172 -0.1411 -0.1968  0.1126
19096TIP3    H178703   3.340   2.517  11.201  0.0565  2.3644  1.5111
19096TIP3    H278704   3.430   2.590  11.104  0.5573 -1.1003 -0.8376
19097TIP3   OH278705   3.732   4.510   4.844 -0.5673 -0.4331  0.4456
19097TIP3    H178706   3.701   4.564   4.771  0.7289 -0.1492  0.0849
19097TIP3    H278707   3.712   4.420   4.819 -1.7208 -0.2141  0.5424
19098TIP3   OH278708   3.661   5.056  11.290 -0.6260  0.3526 -0.2589
19098TIP3    H178709   3.742   5.017  11.256 -0.1986  0.9980  0.0031
19098TIP3    H278710   3.617   5.091  11.212 -1.5922 -1.6438 -0.6635
19099TIP3   OH278711   3.310   1.125   0.353 -0.5670 -0.1119  0.1844
19099TIP3    H178712   3.236   1.143   0.296 -1.6408 -1.2454  1.1638
19099TIP3    H278713   3.321   1.205   0.405 -1.3844 -0.0888  0.3249
19100TIP3   OH278714   3.635   6.261   2.882  0.5840 -0.1143  0.0217
19100TIP3    H178715   3.577   6.234   2.810  0.3558  0.5260 -0.0453
19100TIP3    H278716   3.596   6.222   2.960 -0.6397  1.2611  0.1498
19101TIP3   OH278717   2.502   5.342  11.990  0.2287 -0.4518 -0.4159
19101TIP3    H178718   2.481   5.356  11.898  0.0144  2.0215 -0.0772
19101TIP3    H278719   2.479   5.251  12.007 -2.8611 -0.0787 -2.0053
19102TIP3   OH278720   3.515   5.876   5.403  0.1996  0.2509 -1.0651
19102TIP3    H178721   3.498   5.969   5.390  0.3217  0.5546  0.6773
19102TIP3    H278722   3.503   5.862   5.497  1.7132 -1.1621 -1.0197
19103TIP3   OH278723   1.509   4.056  14.518  0.4091  0.0275 -0.0368
19103TIP3    H178724   1.419   4.051  14.551 -0.2554 -0.7847 -1.8961
19103TIP3    H278725   1.556   3.989  14.567 -0.1349  0.0163  0.4818
19104TIP3   OH278726   4.603   0.223   5.582 -0.0633  0.6819  0.3571
19104TIP3    H178727   4.579   0.275   5.659  0.0418 -0.2793  1.0588
19104TIP3    H278728   4.652   0.149   5.618  1.2844  0.9975 -0.7731
19105TIP3   OH278729   0.453   2.253  16.776 -0.2775 -0.6551  0.4393
19105TIP3    H178730   0.527   2.308  16.799 -0.0776 -1.0365  0.7322
19105TIP3    H278731   0.476   2.217  16.690  0.0623 -1.0782  0.7000
19106TIP3   OH278732   2.162   5.618  13.961  0.3823  0.1117  0.4262
19106TIP3    H178733   2.076   5.645  13.926 -1.0911 -0.7861  3.0519
19106TIP3    H278734   2.150   5.620  14.056  2.2934 -3.0293  0.8628
19107TIP3   OH278735   0.904   3.329   4.858  0.6967 -0.1617  0.3676
19107TIP3    H178736   0.951   3.363   4.782  0.4253  0.0798  0.3035
19107TIP3    H278737   0.823   3.381   4.860  0.1698 -0.9546  0.1384
19108TIP3   OH278738   3.923   0.891  16.900 -0.2203 -0.2874 -0.1988
19108TIP3    H178739   3.874   0.940  16.834  0.2045  0.8147  0.2873
19108TIP3    H278740   3.865   0.889  16.976 -0.2213 -0.5072 -0.2049
19109TIP3   OH278741   5.499   5.283  16.565  0.5832  0.4500 -0.1462
19109TIP3    H178742   5.568   5.221  16.588  0.7989  1.1234  1.0690
19109TIP3    H278743   5.424   5.256  16.618  0.9769  1.8067  1.1422
19110TIP3   OH278744   5.719   3.150   6.467 -0.0561  0.1305  0.4817
19110TIP3    H178745   5.684   3.234   6.496 -1.3081  0.2794 -1.2845
19110TIP3    H278746   5.714   3.154   6.371  0.0844 -1.8535  0.3560
19111TIP3   OH278747   0.833   5.579  10.667  0.5527  0.2331  0.3985
19111TIP3    H178748   0.917   5.589  10.712  0.2937 -1.0268  1.2106
19111TIP3    H278749   0.779   5.652  10.699  0.7806  0.0528  1.1927
19112TIP3   OH278750   2.139   0.500  15.624  1.3644  0.7489  0.4409
19112TIP3    H178751   2.186   0.429  15.669 -1.0886 -0.7256  0.8832
19112TIP3    H278752   2.108   0.557  15.694 -0.0218  0.0195  0.4662
19113TIP3   OH278753   1.977   5.965   4.953  0.0889  0.1761  0.2423
19113TIP3    H178754   1.976   5.880   4.909 -1.1239 -0.5227  1.5442
19113TIP3    H278755   1.889   5.975   4.989  0.3957  1.7147  0.6503
19114TIP3   OH278756   0.003   4.814  12.326 -0.6384  0.0643 -0.0982
19114TIP3    H178757   0.093   4.796  12.300 -0.7618 -1.1353  0.2267
19114TIP3    H278758   0.010   4.850  12.414 -0.4939 -0.5582  0.1526
19115TIP3   OH278759   0.108   5.249  14.940  0.1702  0.4092  0.3550
19115TIP3    H178760   0.133   5.334  14.905 -0.9065  0.7923  0.4748
19115TIP3    H278761   0.175   5.189  14.908  0.4682  1.1549 -0.4525
19116TIP3   OH278762   0.085   6.095  16.493  0.2200  0.8325 -0.4389
19116TIP3    H178763   0.074   6.058  16.406  0.5397 -0.5142  0.0626
19116TIP3    H278764   0.084   6.019  16.552  1.9540  1.5128  0.5540
19117TIP3   OH278765   5.084   0.175   5.629  0.1225  0.2883  0.5547
19117TIP3    H178766   5.037   0.230   5.693  1.6286  1.8972  0.3540
19117TIP3    H278767   5.129   0.110   5.682 -1.2882 -0.4860  0.8441
19118TIP3   OH278768   1.245   3.680  12.420 -0.0136 -0.0360 -0.0758
19118TIP3    H178769   1.332   3.698  12.456 -0.2842 -0.8353  1.0221
19118TIP3    H278770   1.242   3.732  12.339  1.0350  0.9316  0.4707
19119TIP3   OH278771   4.149   5.018  14.725 -0.2711  0.4316 -0.1661
19119TIP3    H178772   4.224   5.073  14.701  0.0455  0.5573  1.0184
19119TIP3    H278773   4.131   5.043  14.816 -1.9898  0.6711 -0.5427
19120TIP3   OH278774   4.726   2.623   1.960  0.5133  0.1123 -0.0953
19120TIP3    H178775   4.759   2.534   1.974  0.0409 -0.3840 -1.9003
19120TIP3    H278776   4.690   2.649   2.045  0.7092 -1.4086  0.4728
19121TIP3   OH278777   1.459   6.105  15.885 -0.3235  0.3503  0.6206
19121TIP3    H178778   1.376   6.108  15.932 -0.1498 -0.4333  0.9816
19121TIP3    H278779   1.522   6.147  15.943 -0.5522  1.4048  0.1375
19122TIP3   OH278780   6.601   0.617  15.283  0.0590 -0.1863  0.6941
19122TIP3    H178781   6.550   0.550  15.236 -0.0543 -1.9178  3.0788
19122TIP3    H278782   6.554   0.699  15.266 -0.5222 -0.8546 -1.3087
19123TIP3   OH278783   6.241   4.238   2.254 -0.0433 -0.2685  0.0942
19123TIP3    H178784   6.203   4.243   2.342 -2.8981 -0.9642 -0.9956
19123TIP3    H278785   6.328   4.200   2.268 -0.4224 -0.4194  2.5837
19124TIP3   OH278786   1.639   3.644   1.230  0.3520  0.1684 -0.3150
19124TIP3    H178787   1.708   3.592   1.189 -0.7929  0.0125 -2.1638
19124TIP3    H278788   1.641   3.728   1.183  0.5981  0.9521  1.0180
19125TIP3   OH278789   6.692   4.373   2.331 -0.1476  0.3034  0.1099
19125TIP3    H178790   6.772   4.417   2.362  1.4945 -0.8275 -2.2733
19125TIP3    H278791   6.723   4.292   2.291 -2.7945 -1.5167  1.4493
19126TIP3   OH278792   3.549   0.211   5.683 -0.2414  0.2995  0.2388
19126TIP3    H178793   3.569   0.202   5.776 -1.0342  0.6033  0.4533
19126TIP3    H278794   3.630   0.189   5.638  0.8095  2.2197  1.0743
19127TIP3   OH278795   6.736   3.376   1.859  0.0414  0.3925  0.1397
19127TIP3    H178796   6.653   3.329   1.866 -0.3399  0.6839 -1.9964
19127TIP3    H278797   6.796   3.313   1.818  0.2403  0.9189 -0.3906
19128TIP3   OH278798   0.485   3.748   0.621 -0.2396  0.3598 -0.5537
19128TIP3    H178799   0.486   3.663   0.665  0.8695  0.8427  0.3956
19128TIP3    H278800   0.424   3.801   0.673  0.8938  0.8585  0.3046
19129TIP3   OH278801   5.928   1.812   0.498  0.4730 -0.5455  0.2854
19129TIP3    H178802   6.000   1.860   0.539 -0.4697  1.9844 -0.8558
19129TIP3    H278803   5.888   1.874   0.437  0.9177 -3.5860 -3.5456
19130TIP3   OH278804   1.835   3.193  11.751 -0.1750 -0.4912  0.5829
19130TIP3    H178805   1.745   3.162  11.755 -0.2761 -0.4057 -0.5884
19130TIP3    H278806   1.851   3.206  11.657  0.8198  0.1756  0.8352
19131TIP3   OH278807   4.232   0.626  14.201 -0.0447 -0.2294 -0.3225
19131TIP3    H178808   4.256   0.533  14.198 -0.9518 -0.5290  0.9034
19131TIP3    H278809   4.205   0.646  14.111  0.9963 -0.8972 -0.8150
19132TIP3   OH278810   1.747   1.414  12.476  0.6127  0.4160 -0.1558
19132TIP3    H178811   1.716   1.332  12.437 -0.8124 -0.3070  2.2667
19132TIP3    H278812   1.802   1.387  12.549 -0.5004  1.5652  1.1569
19133TIP3   OH278813   1.797   3.823  13.666 -0.1831 -0.0850 -0.4415
19133TIP3    H178814   1.721   3.865  13.627 -2.1050 -1.2455  1.8267
19133TIP3    H278815   1.762   3.772  13.739  2.5935 -1.9518 -0.2633
19134TIP3   OH278816   1.308   1.333   1.390 -0.6267 -0.2487  0.0749
19134TIP3    H178817   1.340   1.389   1.319 -0.5310  0.4463  0.6642
19134TIP3    H278818   1.375   1.266   1.400 -0.5175 -0.2007 -0.3119
19135TIP3   OH278819   1.607   5.943   1.190  0.1034  0.2613  0.8155
19135TIP3    H178820   1.513   5.958   1.179  0.0308 -1.5037 -2.2817
19135TIP3    H278821   1.613   5.850   1.213  1.0653 -0.2843 -1.3384
19136TIP3   OH278822   6.301   0.026   3.632 -0.3306 -0.1403 -0.1212
19136TIP3    H178823   6.379  -0.002   3.680 -0.2209  1.6399  0.8333
19136TIP3    H278824   6.335   0.069   3.554 -0.3591  0.1646  0.0309
19137TIP3   OH278825   4.750   3.089  10.733 -1.1319 -0.1509  0.2732
19137TIP3    H178826   4.716   3.124  10.815 -0.6051  1.6611 -0.2373
19137TIP3    H278827   4.695   3.128  10.665 -1.4408 -1.4788 -0.2877
19138TIP3   OH278828   5.963   6.238  14.304  0.2613  0.2075 -0.0331
19138TIP3    H178829   5.876   6.198  14.310  0.0134  0.5150 -1.2828
19138TIP3    H278830   6.023   6.170  14.336 -0.3687 -0.2542  0.1935
19139TIP3   OH278831   4.010   3.742  17.177  0.7718  0.4681  0.4264
19139TIP3    H178832   4.102   3.715  17.172  0.1822 -2.0226  1.7476
19139TIP3    H278833   3.977   3.732  17.087  1.4516  0.1212  0.2100
19140TIP3   OH278834   1.227   4.036  13.708 -0.1088  0.3890 -0.2121
19140TIP3    H178835   1.201   4.105  13.646  0.8233  2.0410  1.1488
19140TIP3    H278836   1.159   3.969  13.698 -1.6457  1.9454 -0.8972
19141TIP3   OH278837   1.130   4.571   3.827 -0.2456 -0.3955  0.1123
19141TIP3    H178838   1.196   4.585   3.894 -0.7242 -0.4256  0.5971
19141TIP3    H278839   1.047   4.572   3.875 -0.4936 -2.1251 -0.2313
19142TIP3   OH278840   2.205   4.404  12.480  0.3904 -0.3098 -0.3623
19142TIP3    H178841   2.249   4.336  12.532 -0.0101  0.3197  0.8226
19142TIP3    H278842   2.223   4.379  12.389 -0.4425 -2.4827  0.0080
19143TIP3   OH278843   5.872   0.456  16.173 -0.6548  0.1959 -0.4205
19143TIP3    H178844   5.947   0.515  16.183 -0.0011 -0.5076 -1.1109
19143TIP3    H278845   5.892   0.405  16.095 -1.6653 -0.2907 -0.3688
19144TIP3   OH278846   5.626   4.936   3.390 -0.8328 -0.9834  0.4204
19144TIP3    H178847   5.674   4.971   3.464 -1.1975 -0.3647  0.3798
19144TIP3    H278848   5.566   5.007   3.365  1.4651  0.1528 -2.4887
19145TIP3   OH278849   6.381   4.957  13.107 -0.1860 -0.3380  0.6226
19145TIP3    H178850   6.400   4.930  13.197  2.3055  0.9818  0.5859
19145TIP3    H278851   6.397   4.878  13.055 -1.4450 -1.0536  1.2717
19146TIP3   OH278852   3.067   1.827   2.561 -0.1653 -0.6085 -0.8621
19146TIP3    H178853   3.153   1.829   2.520  0.8011  0.3031  1.0827
19146TIP3    H278854   3.079   1.777   2.642 -0.8458  1.4278  0.5866
19147TIP3   OH278855   3.368   2.074   3.326 -0.2468 -0.8609  0.4620
19147TIP3    H178856   3.407   1.988   3.311 -0.5672 -1.0187  0.5286
19147TIP3    H278857   3.442   2.135   3.323 -0.1160 -1.0485 -0.3367
19148TIP3   OH278858   3.237   5.945   3.997 -0.2162 -0.4477 -0.5004
19148TIP3    H178859   3.192   5.999   4.062 -1.8379 -2.2278 -0.0624
19148TIP3    H278860   3.181   5.948   3.920  0.5602 -0.1564 -1.0693
19149TIP3   OH278861   4.857   6.288  14.069 -0.4372  0.1241  0.1641
19149TIP3    H178862   4.836   6.224  14.137 -1.4614  1.1246  0.8234
19149TIP3    H278863   4.862   6.372  14.116  2.5373  0.3634 -0.3663
19150TIP3   OH278864   3.527   2.168  15.976 -0.2632 -0.2808  0.1269
19150TIP3    H178865   3.599   2.230  15.961 -1.5010  1.5387  1.2980
19150TIP3    H278866   3.455   2.201  15.923 -0.8637 -0.9038  0.5318
19151TIP3   OH278867   4.040   5.125   0.981 -0.1563  0.1130  0.1309
19151TIP3    H178868   4.076   5.193   0.924  0.3354  0.7656  1.1801
19151TIP3    H278869   3.947   5.122   0.961  0.1816 -0.5324 -1.5533
19152TIP3   OH278870   1.729   5.133   6.618  0.2403  0.0313 -0.2437
19152TIP3    H178871   1.792   5.191   6.574 -0.0792  1.0878  0.6365
19152TIP3    H278872   1.762   5.126   6.707  0.2496 -1.1390 -0.3317
19153TIP3   OH278873   5.482   5.706   3.817  0.2403  0.0343  0.5557
19153TIP3    H178874   5.497   5.619   3.780 -0.6161 -0.0971  0.4855
19153TIP3    H278875   5.403   5.696   3.870 -1.0475  1.1812 -1.0188
19154TIP3   OH278876   5.811   0.789   6.240  0.0663 -0.0845 -0.0803
19154TIP3    H178877   5.757   0.738   6.180  0.1635  0.0907 -0.3191
19154TIP3    H278878   5.749   0.842   6.289 -0.0469 -0.5505  0.2801
19155TIP3   OH278879   3.492   1.227   5.761  0.8701  0.0897  0.1244
19155TIP3    H178880   3.479   1.135   5.740  2.1335  0.3654 -2.1434
19155TIP3    H278881   3.542   1.226   5.843 -0.9508 -1.1334  1.2993
19156TIP3   OH278882   2.849   5.532  15.681 -0.4675 -0.6393 -0.0463
19156TIP3    H178883   2.812   5.561  15.764 -0.8941 -1.7450  0.1652
19156TIP3    H278884   2.944   5.540  15.693 -0.5814  1.4898 -0.3259
19157TIP3   OH278885   6.214   0.440  10.656 -0.4329 -0.2896 -1.1031
19157TIP3    H178886   6.183   0.486  10.579 -2.6101  0.4645  0.1419
19157TIP3    H278887   6.286   0.494  10.690 -1.3109  0.8757 -1.0630
19158TIP3   OH278888   1.300   1.880  11.397  0.2746 -0.2509 -0.1589
19158TIP3    H178889   1.295   1.931  11.316  0.3310 -0.7371 -0.4712
19158TIP3    H278890   1.394   1.876  11.416  0.3187 -0.7587 -0.4708
19159TIP3   OH278891   0.356   1.539   5.699 -0.4315  0.2847  0.1672
19159TIP3    H178892   0.412   1.610   5.729 -1.4713  1.8347 -1.3857
19159TIP3    H278893   0.377   1.529   5.606 -1.3807 -0.4088  0.0084
19160TIP3   OH278894   2.229   3.554  12.274 -1.0844  0.0232 -0.2375
19160TIP3    H178895   2.213   3.460  12.267  1.3151 -0.3675 -1.3970
19160TIP3    H278896   2.324   3.563  12.274 -1.2238  2.5321 -1.3406
19161TIP3   OH278897   0.117   0.201  12.612 -0.1747  0.2076 -0.0642
19161TIP3    H178898   0.043   0.141  12.599 -0.6501  0.3877  1.5733
19161TIP3    H278899   0.194   0.145  12.615 -0.3251 -0.0633 -0.9313
19162TIP3   OH278900   1.581   1.031  14.317  0.0659 -0.3852 -0.4701
19162TIP3    H178901   1.514   1.097  14.335 -0.6851 -0.2267 -3.2874
19162TIP3    H278902   1.547   0.950  14.356  0.1276  0.4412  1.4200
19163TIP3   OH278903   1.468   4.139  13.766 -0.0890 -0.2429 -0.5755
19163TIP3    H178904   1.459   4.178  13.853 -0.8176  0.3774 -0.9240
19163TIP3    H278905   1.395   4.077  13.760 -0.9317  0.7963 -1.3034
19164TIP3   OH278906   3.308   4.357   3.318  0.4232  0.2438  0.1738
19164TIP3    H178907   3.402   4.346   3.303  0.3470 -1.1119  0.6103
19164TIP3    H278908   3.300   4.374   3.412  0.2386  0.5192  0.1100
19165TIP3   OH278909   2.448   3.023  14.236  0.1097  0.1465  0.0105
19165TIP3    H178910   2.427   3.006  14.144 -0.6138 -1.1015  0.3715
19165TIP3    H278911   2.500   2.947  14.263  2.1578  1.5182  0.0960
19166TIP3   OH278912   2.610   6.306  12.706  0.0427  0.2747  0.0811
19166TIP3    H178913   2.703   6.328  12.703  0.0467  0.8576  2.4438
19166TIP3    H278914   2.569   6.383  12.745 -1.4355 -0.0363 -0.7958
19167TIP3   OH278915   2.544   4.466   3.578 -0.2981 -0.4326  0.5498
19167TIP3    H178916   2.455   4.458   3.615  0.0582 -0.5275  1.4080
19167TIP3    H278917   2.555   4.559   3.562 -0.0495 -0.2516  1.7306
19168TIP3   OH278918   3.270   1.214   0.598 -0.0068 -0.2370 -0.3824
19168TIP3    H178919   3.237   1.201   0.687 -2.1949  0.8867 -0.9361
19168TIP3    H278920   3.228   1.145   0.547 -0.5367  0.4665 -0.9074
19169TIP3   OH278921   0.417   2.561  12.067 -0.2710 -0.1553 -0.3139
19169TIP3    H178922   0.385   2.593  11.982  0.6060  3.3177  0.4787
19169TIP3    H278923   0.338   2.550  12.120 -0.6525  1.4661 -0.4875
19170TIP3   OH278924   0.007   1.455  12.988 -0.0259  0.6641  0.5650
19170TIP3    H178925  -0.076   1.453  12.940  0.8929  1.6554 -1.1411
19170TIP3    H278926   0.068   1.406  12.933  0.6693  0.3956  1.5425
19171TIP3   OH278927   3.322   4.782  13.838 -0.2941  0.0878 -0.3199
19171TIP3    H178928   3.295   4.824  13.757 -0.1857  0.5968 -0.0946
19171TIP3    H278929   3.416   4.796  13.843 -0.4856  1.2101  0.5403
19172TIP3   OH278930   1.137   1.709  13.675 -0.6291  0.4772  0.1087
19172TIP3    H178931   1.110   1.792  13.636 -0.3454  1.2139  1.4107
19172TIP3    H278932   1.203   1.734  13.740  0.1391 -0.8700 -0.1124
19173TIP3   OH278933   1.453   2.814   1.672  0.0305  0.2389 -0.0516
19173TIP3    H178934   1.387   2.771   1.726 -1.4508  2.9685  0.4761
19173TIP3    H278935   1.535   2.803   1.722 -0.6839 -0.2131  1.0615
19174TIP3   OH278936   1.162   5.286   3.020  0.4091 -0.3644  0.5493
19174TIP3    H178937   1.068   5.269   3.021  0.2070  0.5271 -0.7209
19174TIP3    H278938   1.201   5.208   3.059 -0.8637 -0.6329  1.3316
19175TIP3   OH278939   5.151   3.385  15.305  0.9519  0.2753  0.1630
19175TIP3    H178940   5.228   3.441  15.309  1.6181 -0.4947 -1.1559
19175TIP3    H278941   5.158   3.329  15.383  3.2427 -1.6245 -1.2567
19176TIP3   OH278942   0.781   0.843  17.255  0.3104  0.8473 -0.4641
19176TIP3    H178943   0.722   0.879  17.189 -0.3490  1.3510  0.3805
19176TIP3    H278944   0.866   0.884  17.237 -0.2592  2.3156  0.0414
19177TIP3   OH278945   0.498   5.288  12.444 -0.0591  0.1416  0.2520
19177TIP3    H178946   0.497   5.384  12.454  1.4158  0.0849  1.2927
19177TIP3    H278947   0.496   5.274  12.349  0.2001  1.2338  0.0693
19178TIP3   OH278948   2.056   2.732  12.016  1.1803  0.2957 -0.2679
19178TIP3    H178949   1.971   2.754  12.054 -0.1750 -1.0071 -2.3406
19178TIP3    H278950   2.097   2.817  11.998 -0.1633  0.9675 -0.2582
19179TIP3   OH278951   1.315   0.948   2.917  0.0449 -0.0655 -0.0178
19179TIP3    H178952   1.322   1.039   2.887 -2.9888  0.8403  1.6013
19179TIP3    H278953   1.230   0.919   2.885 -0.0546 -1.5335  1.4387
19180TIP3   OH278954   5.285   4.970  12.804  0.0573 -0.5626  0.1770
19180TIP3    H178955   5.231   5.009  12.736  1.2313  0.9928  0.0671
19180TIP3    H278956   5.224   4.920  12.858 -1.2296 -0.0682 -0.7714
19181TIP3   OH278957   2.819   3.362   5.015  0.3230 -0.3367  0.1217
19181TIP3    H178958   2.911   3.344   5.034 -0.1004  1.3344  5.3400
19181TIP3    H278959   2.812   3.458   5.020 -1.7039 -0.4319 -0.1583
19182TIP3   OH278960   6.067   2.575  16.482  0.4103  0.2282  0.1198
19182TIP3    H178961   6.143   2.557  16.539  0.8533 -1.1947 -0.8821
19182TIP3    H278962   6.022   2.491  16.475  0.7851  0.1496 -2.1949
19183TIP3   OH278963   1.063   1.420   4.594 -0.2126 -0.2553  0.4937
19183TIP3    H178964   1.085   1.337   4.636 -0.2028  0.0491  1.0898
19183TIP3    H278965   1.121   1.424   4.518 -0.8116 -1.2001 -0.0468
19184TIP3   OH278966   5.456   3.080   0.074 -0.3690 -0.0705  0.1749
19184TIP3    H178967   5.449   3.021  -0.001  1.6323  0.8268 -0.7899
19184TIP3    H278968   5.526   3.042   0.128  0.4650  1.0224 -0.1138
19185TIP3   OH278969   3.942   6.522   4.011  0.1594 -0.1277 -0.2605
19185TIP3    H178970   3.936   6.464   3.935  0.4694  0.6295 -0.8889
19185TIP3    H278971   3.983   6.601   3.976 -1.3545  0.9417  0.2819
19186TIP3   OH278972   3.016   3.650   2.249  0.3193 -0.0747 -0.5511
19186TIP3    H178973   3.083   3.583   2.265 -1.2324 -1.5471  0.0505
19186TIP3    H278974   2.950   3.607   2.195 -1.2712  0.5882  0.7704
19187TIP3   OH278975   3.048   0.449   0.286 -0.3960 -0.0222  0.0596
19187TIP3    H178976   3.030   0.464   0.379 -1.3118  0.9274 -0.2500
19187TIP3    H278977   3.121   0.508   0.266  0.9201 -1.4195  0.5279
19188TIP3   OH278978   6.167   5.454  12.472 -0.1550 -0.1237  0.4413
19188TIP3    H178979   6.099   5.451  12.539  0.1592 -0.8626  0.7382
19188TIP3    H278980   6.126   5.499  12.398  0.0932  2.4870  1.7659
19189TIP3   OH278981   1.308   5.565  13.517  0.0470  0.4088 -0.3489
19189TIP3    H178982   1.215   5.543  13.511  0.4980 -2.2801  1.0141
19189TIP3    H278983   1.353   5.483  13.499  2.1170  1.0967  1.3283
19190TIP3   OH278984   2.114   1.113   0.667  0.4826  0.4164 -0.2843
19190TIP3    H178985   2.186   1.148   0.719  0.5196  0.1081 -0.1249
19190TIP3    H278986   2.068   1.190   0.635  1.8589  0.6788 -1.7931
19191TIP3   OH278987   1.914   6.737   3.841  0.0106  0.1581 -0.4399
19191TIP3    H178988   1.871   6.699   3.764 -0.7749 -0.1960  0.1574
19191TIP3    H278989   1.925   6.663   3.901  1.7207  0.1876 -0.6783
19192TIP3   OH278990   6.588   1.663  16.955  0.1577  0.0252  0.6437
19192TIP3    H178991   6.547   1.584  16.919  1.2500 -0.2009 -0.1515
19192TIP3    H278992   6.594   1.646  17.049 -2.9322  0.7051  1.0729
19193TIP3   OH278993   4.209   6.175   3.225 -0.2947  0.2874  0.1454
19193TIP3    H178994   4.289   6.196   3.273  0.3248  0.1636 -0.8255
19193TIP3    H278995   4.221   6.213   3.139 -1.7160  1.1644  0.2917
19194TIP3   OH278996   5.181   6.298  14.785  0.1353 -0.1991  0.8460
19194TIP3    H178997   5.151   6.244  14.858  0.7724 -0.7284  0.7256
19194TIP3    H278998   5.119   6.371  14.782 -1.5878 -1.6404  0.1407
19195TIP3   OH278999   6.255   2.925   4.201 -0.0790  0.0494  0.0103
19195TIP3    H179000   6.160   2.923   4.187 -0.5219  1.2760  2.4008
19195TIP3    H279001   6.287   2.844   4.162 -1.9217  0.1557 -1.8817
19196TIP3   OH279002   1.401   6.215  11.703  0.0718 -0.4580 -0.1946
19196TIP3    H179003   1.340   6.281  11.737 -0.3995 -0.6466 -0.6651
19196TIP3    H279004   1.488   6.247  11.728 -0.2537 -0.6655  1.3535
19197TIP3   OH279005   3.533   3.835   3.729 -0.5480 -0.2866 -0.0416
19197TIP3    H179006   3.563   3.884   3.653 -0.8558 -2.6152 -1.7968
19197TIP3    H279007   3.483   3.762   3.693 -2.4422 -0.4057  2.5098
19198TIP3   OH279008   6.728   5.109  14.304 -0.0890  0.3745  0.1441
19198TIP3    H179009   6.781   5.037  14.340  0.6468  0.6806 -0.3075
19198TIP3    H279010   6.789   5.182  14.295 -0.7858  1.0103  0.4079
19199TIP3   OH279011   6.677   2.231  13.300  0.2872 -0.7263  0.3326
19199TIP3    H179012   6.772   2.223  13.303  0.3966  0.6395  1.5243
19199TIP3    H279013   6.645   2.161  13.356  0.7094  0.0568  1.6022
19200TIP3   OH279014   4.501   3.677   1.651  0.5187 -0.3728  0.1154
19200TIP3    H179015   4.573   3.741   1.658  1.5091 -1.5831  1.5674
19200TIP3    H279016   4.540   3.603   1.604 -0.4988 -0.1475 -1.1621
19201TIP3   OH279017   4.893   3.217   5.358  0.1807 -0.0074 -0.7227
19201TIP3    H179018   4.830   3.148   5.338 -1.2196  0.5770  1.3802
19201TIP3    H279019   4.975   3.185   5.321 -0.2890 -3.0710  0.5690
19202TIP3   OH279020   4.880   2.892  13.416  0.1472  0.0797 -0.7898
19202TIP3    H179021   4.957   2.837  13.429  0.0986  0.5394  2.0468
19202TIP3    H279022   4.821   2.839  13.362  1.1290 -1.6022 -0.2739
19203TIP3   OH279023   2.197   1.165   1.837 -0.5341 -0.0645  0.5289
19203TIP3    H179024   2.127   1.158   1.902 -1.8390 -0.2518 -0.8455
19203TIP3    H279025   2.164   1.227   1.772  1.5946  1.7502  1.0501
19204TIP3   OH279026   5.221   3.079  10.444  0.1693  0.2695  0.2533
19204TIP3    H179027   5.280   3.004  10.437  0.1213  0.1884  0.7038
19204TIP3    H279028   5.234   3.127  10.361  1.7242  0.8828  0.8037
19205TIP3   OH279029   0.465   2.816   3.987  0.1353 -0.3054  0.0567
19205TIP3    H179030   0.523   2.773   3.924  0.5095  0.7864 -0.3531
19205TIP3    H279031   0.522   2.877   4.034 -0.4659 -0.0157  0.4114
19206TIP3   OH279032   1.260   6.420  12.944 -0.2927 -0.2819 -0.1592
19206TIP3    H179033   1.341   6.471  12.950 -0.9903  0.9254 -0.7805
19206TIP3    H279034   1.230   6.414  13.035 -0.7888  1.4215 -0.1755
19207TIP3   OH279035   2.143   2.599   6.020  0.3353  0.1474 -0.5419
19207TIP3    H179036   2.181   2.555   6.096 -0.0310 -0.5428 -0.7450
19207TIP3    H279037   2.060   2.554   6.006  0.5433  0.0633 -1.5396
19208TIP3   OH279038   6.517   0.329   3.540  0.0079 -0.2124  0.3780
19208TIP3    H179039   6.517   0.237   3.512 -0.5741 -0.5141  1.3326
19208TIP3    H279040   6.426   0.357   3.527  0.5566  0.8130 -1.6804
19209TIP3   OH279041   2.499   3.962  16.381  0.5393  0.2000  0.8024
19209TIP3    H179042   2.564   3.982  16.313 -0.2753 -1.2635 -0.4909
19209TIP3    H279043   2.538   3.891  16.431  0.2787 -0.1519  0.5146
19210TIP3   OH279044   0.651   4.047   6.612 -0.5307 -0.1989  0.0061
19210TIP3    H179045   0.719   4.107   6.582 -0.3226 -1.2418 -1.7159
19210TIP3    H279046   0.698   3.974   6.652 -0.7029 -0.1263  0.3458
19211TIP3   OH279047   0.857   3.058   6.008  0.2743  0.2641 -0.2742
19211TIP3    H179048   0.832   2.966   6.014  0.5221  0.2578  0.7806
19211TIP3    H279049   0.833   3.095   6.092  1.2075  0.9078 -0.2752
19212TIP3   OH279050   4.834   5.713  14.409  0.4495 -0.0010  0.3562
19212TIP3    H179051   4.859   5.755  14.492  1.5549 -0.5165  0.3021
19212TIP3    H279052   4.776   5.776  14.367 -0.1247  0.2808  1.5137
19213TIP3   OH279053   4.688   3.865   1.720 -0.4840  0.7016 -0.0885
19213TIP3    H179054   4.664   3.938   1.663 -1.5324  0.4567  0.0132
19213TIP3    H279055   4.658   3.892   1.807 -1.0559  0.0896 -0.0825
19214TIP3   OH279056   0.413   2.272   6.370 -0.3136  0.2542 -0.3762
19214TIP3    H179057   0.402   2.177   6.376  0.8073  0.2273  2.3988
19214TIP3    H279058   0.495   2.290   6.415  0.4330  2.4296 -2.3476
19215TIP3   OH279059   5.143   5.092  12.581 -0.0797  0.2719  0.0345
19215TIP3    H179060   5.061   5.044  12.588  0.1241  0.0503  1.0881
19215TIP3    H279061   5.157   5.103  12.487 -1.0979 -0.0517 -0.1632
19216TIP3   OH279062   2.684   4.701  15.277 -0.4837  0.6012  0.3246
19216TIP3    H179063   2.774   4.726  15.259 -0.2655 -0.5456 -0.2641
19216TIP3    H279064   2.632   4.752  15.215 -0.2348  1.1621  0.5724
19217TIP3   OH279065   2.524   2.790   3.239 -0.4991  0.4285 -0.2741
19217TIP3    H179066   2.592   2.841   3.282  0.1093  0.1356 -0.8747
19217TIP3    H279067   2.456   2.854   3.216 -1.0834  0.5118  1.5692
19218TIP3   OH279068   4.464   2.317   5.137  0.5723 -0.0587  0.4257
19218TIP3    H179069   4.513   2.260   5.196  0.1814 -0.0750  0.7396
19218TIP3    H279070   4.530   2.374   5.099  0.9675 -0.7210  0.1030
19219TIP3   OH279071   4.158   5.070  16.725 -0.2811  0.0740  0.5684
19219TIP3    H179072   4.182   4.978  16.714 -0.6151 -0.1916  1.9111
19219TIP3    H279073   4.158   5.105  16.636  1.8621 -0.6952  0.1994
19220TIP3   OH279074   3.709   5.606  15.427 -0.6593 -0.4756 -0.0102
19220TIP3    H179075   3.616   5.597  15.445 -0.8022  1.1987  0.2360
19220TIP3    H279076   3.716   5.685  15.372  0.7074  0.2419  1.1065
19221TIP3   OH279077   0.165   6.033  11.118 -0.3837 -0.2387 -0.6357
19221TIP3    H179078   0.162   5.939  11.138 -0.2699 -0.1606 -0.2423
19221TIP3    H279079   0.255   6.049  11.091 -0.9126 -0.6632 -2.8601
19222TIP3   OH279080   4.859   1.097  13.010  0.2829 -0.8779  0.2960
19222TIP3    H179081   4.854   1.174  13.067 -0.4371  0.0927 -1.0300
19222TIP3    H279082   4.798   1.034  13.050 -2.2348  0.7439 -0.7274
19223TIP3   OH279083   1.203   4.199  12.601 -0.2219  0.3214  0.3658
19223TIP3    H179084   1.109   4.213  12.586 -0.0292  1.3047 -0.0183
19223TIP3    H279085   1.230   4.140  12.530 -0.5334  0.1073  0.4238
19224TIP3   OH279086   1.058   1.071   3.949 -0.3503  0.0207  0.6879
19224TIP3    H179087   1.039   1.137   4.016  0.0085  0.8151  0.0124
19224TIP3    H279088   0.985   1.078   3.888 -0.8967 -0.9938  1.1953
19225TIP3   OH279089   3.908   3.905  13.066  0.4970  0.4779  0.6759
19225TIP3    H179090   3.901   3.963  12.991  0.2609  0.6267  0.8109
19225TIP3    H279091   4.001   3.906  13.089  0.4417  1.0734  0.8914
19226TIP3   OH279092   3.610   3.036   0.938 -0.2670  0.0751 -0.1660
19226TIP3    H179093   3.634   2.989   1.018  0.9406 -0.1250 -0.6213
19226TIP3    H279094   3.515   3.035   0.937 -0.3716  1.2908  1.9998
19227TIP3   OH279095   5.151   4.532  12.069 -0.2305 -0.0157  0.2526
19227TIP3    H179096   5.171   4.586  12.146 -1.6722 -1.7018  1.9184
19227TIP3    H279097   5.226   4.472  12.062  0.4004  0.8255 -0.3343
19228TIP3   OH279098   2.348   0.607   3.346  0.2449 -0.2502  0.0433
19228TIP3    H179099   2.407   0.680   3.364 -0.0367 -0.0965  0.3514
19228TIP3    H279100   2.298   0.635   3.269  0.7650 -0.4977 -0.3912
19229TIP3   OH279101   5.069   0.357   0.258  0.6208 -0.8252  0.3704
19229TIP3    H179102   5.040   0.326   0.173 -2.4152 -0.3079  1.0954
19229TIP3    H279103   5.164   0.353   0.254  0.5759 -1.2660 -2.8382
19230TIP3   OH279104   6.639   0.140  16.891 -0.0262  0.1004 -0.1487
19230TIP3    H179105   6.616   0.233  16.889 -0.8137 -0.0558 -2.7877
19230TIP3    H279106   6.731   0.138  16.863 -0.0491  0.0710 -0.2204
19231TIP3   OH279107   1.733   6.590   1.740  0.0582 -0.9860  0.0502
19231TIP3    H179108   1.766   6.583   1.829 -0.2994 -3.4662  0.0504
19231TIP3    H279109   1.666   6.658   1.744  1.9511  0.9588  1.0027
19232TIP3   OH279110   4.767   6.070  16.269  0.8157  0.1851 -0.5544
19232TIP3    H179111   4.694   6.010  16.252 -0.0736  0.7524  1.0460
19232TIP3    H279112   4.845   6.020  16.247  0.2119 -2.1299  2.0050
19233TIP3   OH279113   5.579   4.201   3.808 -0.4579  0.1358 -0.1624
19233TIP3    H179114   5.536   4.118   3.827 -1.2118  1.0452  2.6106
19233TIP3    H279115   5.672   4.181   3.812 -0.6261 -0.7130 -0.2556
19234TIP3   OH279116   4.506   0.856   0.717  0.0650  0.0296 -0.2041
19234TIP3    H179117   4.570   0.910   0.671  0.0791  0.9942  0.8859
19234TIP3    H279118   4.466   0.802   0.649  1.6641 -0.2282 -0.9860
19235TIP3   OH279119   5.776   6.621   5.990  0.2956  0.3674  0.1413
19235TIP3    H179120   5.826   6.572   6.056  1.0251  2.8168  1.5355
19235TIP3    H279121   5.685   6.608   6.015  0.4377 -0.6138  0.2008
19236TIP3   OH279122   2.556   3.779   5.601 -0.2314 -0.2117 -0.0091
19236TIP3    H179123   2.651   3.779   5.618 -0.0585 -1.2290 -0.9041
19236TIP3    H279124   2.519   3.827   5.675  0.9315 -0.3184  0.6710
19237TIP3   OH279125   3.292   4.502   2.840 -0.4128 -0.1027  0.2908
19237TIP3    H179126   3.324   4.588   2.868 -0.2167  0.2201 -0.8405
19237TIP3    H279127   3.203   4.519   2.810 -0.2215 -0.1850 -0.3579
19238TIP3   OH279128   3.057   3.516   0.108  0.6556 -0.0261 -0.4888
19238TIP3    H179129   3.016   3.464   0.039 -0.9929  0.6841 -0.0863
19238TIP3    H279130   2.995   3.514   0.181  0.0892  3.1013 -0.7326
19239TIP3   OH279131   4.726   5.910  13.137 -0.4028 -0.1658  0.0796
19239TIP3    H179132   4.744   6.004  13.146 -1.1540  0.0471 -0.5733
19239TIP3    H279133   4.788   5.869  13.198  1.0339  0.6322 -0.7800
19240TIP3   OH279134   0.629   1.875   0.926  0.0582 -0.0745  0.1541
19240TIP3    H179135   0.720   1.903   0.933  0.0578 -0.2625  1.0256
19240TIP3    H279136   0.596   1.922   0.849 -0.4255  3.8029  2.4217
19241TIP3   OH279137   6.757   6.258  13.453  0.7896 -0.6199 -0.3256
19241TIP3    H179138   6.746   6.351  13.433 -0.9707 -0.9099 -0.8365
19241TIP3    H279139   6.748   6.254  13.548 -0.6174 -0.4160 -0.4236
19242TIP3   OH279140   0.924   0.945   2.420 -0.2217  0.4439 -0.5332
19242TIP3    H179141   0.835   0.980   2.427  0.0456  1.0673 -0.2158
19242TIP3    H279142   0.918   0.857   2.458 -0.8406  0.2252 -1.1074
19243TIP3   OH279143   5.524   3.693   6.046 -0.2588 -0.2984 -0.5807
19243TIP3    H179144   5.569   3.740   6.117 -0.0022  0.9725 -1.5562
19243TIP3    H279145   5.441   3.664   6.086  0.3846 -0.6286  0.5643
19244TIP3   OH279146   0.450   4.903   1.406 -0.1328 -0.9441  0.1886
19244TIP3    H179147   0.387   4.913   1.335  0.8088 -2.6678 -0.9590
19244TIP3    H279148   0.534   4.925   1.367  0.2135 -0.4366  1.1988
19245TIP3   OH279149   3.138   2.167  13.685  0.2549 -0.2464  0.0530
19245TIP3    H179150   3.221   2.136  13.722  0.2088 -1.2282 -0.6380
19245TIP3    H279151   3.079   2.173  13.759  0.8811  0.2848  0.5275
19246TIP3   OH279152   2.106   1.651  10.638 -0.2273  0.5881  0.2273
19246TIP3    H179153   2.147   1.736  10.646 -0.1201  0.6584 -0.9585
19246TIP3    H279154   2.057   1.640  10.720  1.3444  0.9091  1.2483
19247TIP3   OH279155   2.180   6.481  10.855 -0.0010  0.2534  0.1399
19247TIP3    H179156   2.184   6.387  10.870  0.4739  0.0717 -1.0466
19247TIP3    H279157   2.117   6.513  10.920  0.3783 -0.7662  1.0394
19248TIP3   OH279158   1.027   2.528   0.680 -0.1323 -0.0439  0.2904
19248TIP3    H179159   1.116   2.493   0.678  0.2708  0.9970 -1.2740
19248TIP3    H279160   0.971   2.451   0.665  0.5928 -0.4517 -0.3796
19249TIP3   OH279161   1.571   6.599   2.559  0.1211  0.4482  0.6505
19249TIP3    H179162   1.599   6.540   2.490 -1.6333  0.6180 -0.2598
19249TIP3    H279163   1.648   6.609   2.615  1.4925  0.0756 -1.0963
19250TIP3   OH279164   0.774   4.714   0.428 -0.1737  0.2436  0.2094
19250TIP3    H179165   0.840   4.690   0.363  1.0632 -1.0932  1.8843
19250TIP3    H279166   0.692   4.679   0.394  0.8156 -2.4187  0.3471
19251TIP3   OH279167   6.310   1.323  11.889 -0.2815 -0.2238  0.3079
19251TIP3    H179168   6.372   1.288  11.825 -0.0856 -0.6734  0.7362
19251TIP3    H279169   6.276   1.246  11.935  1.9163  0.1822  2.8953
19252TIP3   OH279170   4.374   5.641   5.895 -0.2482 -0.0945 -0.3791
19252TIP3    H179171   4.285   5.673   5.881 -0.4988 -0.7628 -0.3529
19252TIP3    H279172   4.369   5.589   5.975  0.0002 -0.7430 -0.7759
19253TIP3   OH279173   5.648   1.376   1.803  0.7586  0.0095 -0.2854
19253TIP3    H179174   5.703   1.297   1.807  1.6496  0.6523  0.9906
19253TIP3    H279175   5.669   1.423   1.884  1.8140  2.5853 -1.9403
19254TIP3   OH279176   5.411   3.786  14.744  0.3742 -0.4029  0.3345
19254TIP3    H179177   5.437   3.872  14.710 -0.4679  1.0014  2.9372
19254TIP3    H279178   5.455   3.780  14.829  0.1378 -2.4195  0.3535
19255TIP3   OH279179   3.637   0.062   6.580 -0.1168  0.0003  0.2517
19255TIP3    H179180   3.683  -0.013   6.616  1.5721  0.0456 -1.6155
19255TIP3    H279181   3.674   0.138   6.624 -0.5080 -0.1390  0.8260
19256TIP3   OH279182   1.258   5.763  11.426 -0.1809  0.7026 -0.4806
19256TIP3    H179183   1.255   5.765  11.522 -2.3997  1.5174 -0.5053
19256TIP3    H279184   1.351   5.773  11.405  0.5382 -0.8408  1.5778
19257TIP3   OH279185   5.159   5.099   0.788 -0.4224  0.2009 -0.1815
19257TIP3    H179186   5.236   5.049   0.813 -1.0946 -0.0267  1.6085
19257TIP3    H279187   5.153   5.090   0.693  1.6538  0.1189 -0.3302
19258TIP3   OH279188   1.178   2.701  15.473 -0.5411  0.0223 -0.6291
19258TIP3    H179189   1.269   2.732  15.470 -0.0953 -1.2392 -0.7057
19258TIP3    H279190   1.127   2.780  15.490  0.7433  0.4359  1.7210
19259TIP3   OH279191   1.264   6.574   5.528 -0.0996 -0.5334 -0.2260
19259TIP3    H179192   1.330   6.630   5.571  1.1862 -3.9547  2.7515
19259TIP3    H279193   1.312   6.494   5.506 -2.5872 -1.8791 -1.0651
19260TIP3   OH279194   1.948   3.527  13.669  0.0561  0.0337  0.2734
19260TIP3    H179195   1.890   3.586  13.622 -0.2103  0.6490  1.3397
19260TIP3    H279196   2.035   3.567  13.661  0.0606 -0.0159  0.0685
19261TIP3   OH279197   5.942   6.181  17.023 -0.5030 -0.1244 -0.4019
19261TIP3    H179198   5.898   6.211  16.944 -0.5637  1.6697  0.2696
19261TIP3    H279199   5.893   6.221  17.095  0.4130 -0.5440  0.4844
19262TIP3   OH279200   1.508   3.815  12.478 -0.0194 -0.0083 -0.0383
19262TIP3    H179201   1.590   3.829  12.525 -0.7714  1.3049  0.9713
19262TIP3    H279202   1.534   3.790  12.390  1.4473 -1.1564  0.6806
19263TIP3   OH279203   6.016   3.425   1.665  0.2951  0.5113 -0.0482
19263TIP3    H179204   6.097   3.376   1.678 -0.0670 -0.0128  0.3086
19263TIP3    H279205   5.949   3.357   1.651 -0.0897  0.9307 -0.2784
19264TIP3   OH279206   2.311   1.597   4.950 -0.4517  0.0355 -0.1893
19264TIP3    H179207   2.367   1.654   5.004  0.1981 -0.8971  0.1330
19264TIP3    H279208   2.245   1.657   4.913  1.8155  1.5105 -2.0858
19265TIP3   OH279209   1.883   4.702  14.672 -0.4000  0.2481 -0.0480
19265TIP3    H179210   1.837   4.631  14.627 -0.2279 -1.2290  1.9751
19265TIP3    H279211   1.860   4.781  14.622 -4.7440 -0.4274  0.5069
19266TIP3   OH279212   3.664   2.501  15.363  0.5384  0.3130 -0.4962
19266TIP3    H179213   3.745   2.493  15.312 -0.4628  0.5081 -2.1576
19266TIP3    H279214   3.594   2.504  15.298 -0.8516 -0.1305  0.9175
19267TIP3   OH279215   0.927   1.738   0.701 -0.0484 -0.2735  0.0237
19267TIP3    H179216   0.924   1.816   0.756  1.2689 -1.5972  2.0852
19267TIP3    H279217   1.020   1.714   0.698 -0.2594 -1.0588 -1.6338
19268TIP3   OH279218   3.056   5.936   5.700  0.3070 -0.0739 -0.4142
19268TIP3    H179219   3.001   5.987   5.760 -0.1601  0.5033 -1.3287
19268TIP3    H279220   3.102   6.001   5.648 -1.8181 -0.4854 -3.0142
19269TIP3   OH279221   6.238   6.338   0.718 -0.0752 -0.6708  0.9897
19269TIP3    H179222   6.197   6.388   0.647 -0.8254 -0.0600  1.8465
19269TIP3    H279223   6.309   6.395   0.749  1.8795 -1.9207 -0.8210
19270TIP3   OH279224   6.186   4.570  15.603 -0.5888  0.8465  0.1652
19270TIP3    H179225   6.123   4.640  15.589 -1.5141 -0.5293 -3.6794
19270TIP3    H279226   6.260   4.592  15.546 -0.7264 -1.0295 -0.8126
19271TIP3   OH279227   2.684   1.764   4.009 -0.1863  0.7695 -0.3112
19271TIP3    H179228   2.772   1.771   3.972 -0.0147  2.7460  0.3575
19271TIP3    H279229   2.695   1.709   4.087  0.1245 -0.3555 -1.1297
19272TIP3   OH279230   1.347   0.631   1.185  0.1045  0.3781 -0.3277
19272TIP3    H179231   1.272   0.690   1.178 -1.3324 -1.2924  0.1821
19272TIP3    H279232   1.377   0.642   1.275 -0.5467 -0.0615 -0.0428
19273TIP3   OH279233   4.527   6.400   1.487  0.3415 -0.6619  0.0395
19273TIP3    H179234   4.480   6.369   1.409  0.7924  0.7354 -0.8445
19273TIP3    H279235   4.484   6.483   1.509  0.1485 -1.1046  1.3649
19274TIP3   OH279236   1.661   4.311   5.609  0.1586 -0.4047  0.6555
19274TIP3    H179237   1.636   4.304   5.701  0.6128 -1.7170  0.7029
19274TIP3    H279238   1.723   4.384   5.606 -0.7793  0.4509  1.1594
19275TIP3   OH279239   0.990   2.539  16.753  0.0273 -0.1992 -0.0296
19275TIP3    H179240   0.988   2.540  16.658  0.0735 -0.3265 -0.0334
19275TIP3    H279241   1.076   2.574  16.776  0.3432 -0.9309 -0.0593
19276TIP3   OH279242   2.009   0.473  11.598  0.4946 -0.4931 -0.0349
19276TIP3    H179243   2.090   0.518  11.619  0.0965 -0.3797  1.3762
19276TIP3    H279244   2.030   0.380  11.608  0.2913 -0.4380  1.0262
19277TIP3   OH279245   5.809   0.478   3.190 -0.0699 -0.0337  0.3678
19277TIP3    H179246   5.769   0.533   3.123  1.9719  1.1255  0.0195
19277TIP3    H279247   5.812   0.391   3.151 -4.3530 -0.8585  1.3410
19278TIP3   OH279248   3.072   6.666   4.963  0.0290  0.1187 -0.0790
19278TIP3    H179249   2.986   6.661   4.921 -0.0943  0.4862  0.1275
19278TIP3    H279250   3.130   6.697   4.893 -0.0892  0.2947 -0.1003
19279TIP3   OH279251   5.732   2.370  14.462 -0.5881 -0.2075  0.0562
19279TIP3    H179252   5.765   2.285  14.491 -0.9601  0.0668  1.3346
19279TIP3    H279253   5.770   2.432  14.523 -1.0686  0.4512 -0.3049
19280TIP3   OH279254   6.601   5.842   2.900 -0.5375 -0.1443  0.2471
19280TIP3    H179255   6.523   5.860   2.953 -0.3265  4.0103 -0.5393
19280TIP3    H279256   6.582   5.882   2.816  2.0616  0.0930 -0.2847
19281TIP3   OH279257   5.096   6.688  11.984 -0.6547  0.2854  0.3209
19281TIP3    H179258   5.175   6.653  12.026 -1.4112 -1.6839  0.1950
19281TIP3    H279259   5.024   6.661  12.041 -1.3851  0.6460 -0.4060
19282TIP3   OH279260   2.978   0.566  13.083 -0.0319  0.0233  0.0490
19282TIP3    H179261   2.959   0.499  13.148 -0.5748 -1.8986 -1.9666
19282TIP3    H279262   3.068   0.547  13.054 -0.7964 -1.0725 -1.8031
19283TIP3   OH279263   0.931   6.547   0.964 -0.2907  0.0820  0.5463
19283TIP3    H179264   1.024   6.551   0.943 -0.5491  0.6536 -0.5216
19283TIP3    H279265   0.922   6.467   1.015  0.6079 -0.5422 -0.2465
19284TIP3   OH279266   4.323   4.140  15.483 -0.6204 -0.0254 -0.6118
19284TIP3    H179267   4.372   4.073  15.530  0.0740  0.9965  0.1577
19284TIP3    H279268   4.238   4.143  15.527 -0.4731 -0.0364 -0.3276
19285TIP3   OH279269   4.522   2.887   3.672 -0.0799  0.0790 -0.1453
19285TIP3    H179270   4.470   2.839   3.737  2.2715  0.5285  2.2439
19285TIP3    H279271   4.489   2.977   3.678 -0.6345 -0.0947 -0.4504
19286TIP3   OH279272   1.611   1.873   3.206  0.1302 -0.1107  0.0274
19286TIP3    H179273   1.610   1.802   3.270  2.1588 -0.2154  0.0108
19286TIP3    H279274   1.588   1.830   3.123 -0.7512 -0.3134  0.3670
19287TIP3   OH279275   3.901   2.751  16.105  0.2280 -0.1342 -0.0973
19287TIP3    H179276   3.863   2.711  16.183 -1.9276 -0.1403 -1.0944
19287TIP3    H279277   3.951   2.826  16.138  1.0619 -1.3084  1.4319
19288TIP3   OH279278   1.062   4.296  15.394 -0.0767 -0.2720  0.0722
19288TIP3    H179279   1.141   4.240  15.395  0.7080  0.7919 -0.5895
19288TIP3    H279280   1.052   4.322  15.303 -0.3668  0.7541  0.3898
19289TIP3   OH279281   3.703   3.968   0.298 -0.1712 -0.6579  0.8004
19289TIP3    H179282   3.700   4.024   0.221  1.9627 -0.6933  0.6305
19289TIP3    H279283   3.684   3.880   0.265  0.8538 -0.6912  0.2633
19290TIP3   OH279284   6.761   3.893   3.480 -0.2517 -0.0648 -0.0760
19290TIP3    H179285   6.840   3.942   3.504 -0.1004 -0.2531 -0.1824
19290TIP3    H279286   6.694   3.960   3.469 -0.0723  0.1115 -0.1161
19291TIP3   OH279287   4.600   4.192  14.241 -0.3819 -0.1189 -0.0784
19291TIP3    H179288   4.681   4.146  14.218  0.5748  1.2267  0.4757
19291TIP3    H279289   4.629   4.280  14.266 -1.9665  0.2211  0.6645
19292TIP3   OH279290   0.879   5.390   2.883 -0.0789  0.9933 -0.2934
19292TIP3    H179291   0.883   5.425   2.972  1.9170  2.0376 -0.7330
19292TIP3    H279292   0.792   5.414   2.852 -0.2579  1.9664  0.8704
19293TIP3   OH279293   5.244   2.721   0.599  0.0236 -0.0006 -0.0796
19293TIP3    H179294   5.242   2.808   0.639  0.4381 -0.4680  1.0092
19293TIP3    H279295   5.201   2.664   0.663  0.9604 -0.8261 -0.1542
19294TIP3   OH279296   1.565   6.307   2.458 -0.5456 -0.3084 -0.4518
19294TIP3    H179297   1.478   6.334   2.431 -1.3486 -0.1950  2.0101
19294TIP3    H279298   1.592   6.242   2.393 -2.3215 -0.1183 -1.4184
19295TIP3   OH279299   3.058   4.128   3.361 -0.3572 -0.2648  0.0862
19295TIP3    H179300   2.993   4.176   3.308 -0.1862 -0.5777 -0.4139
19295TIP3    H279301   3.131   4.113   3.301  0.1171 -0.0577  0.6014
19296TIP3   OH279302   5.248   5.085   5.615 -0.2491  0.5135 -0.0915
19296TIP3    H179303   5.172   5.029   5.631 -0.4477  1.0784  0.9651
19296TIP3    H279304   5.223   5.171   5.645  0.2173  1.1110 -1.3155
19297TIP3   OH279305   3.306   1.216  13.808  0.4557  0.1502  0.0311
19297TIP3    H179306   3.280   1.126  13.787 -0.0023  0.0196  1.1214
19297TIP3    H279307   3.316   1.258  13.722 -1.5330 -0.3161 -0.4802
19298TIP3   OH279308   4.997   4.251   1.500 -0.7378  0.4079  0.2291
19298TIP3    H179309   5.007   4.235   1.594 -0.3661  0.1376  0.1496
19298TIP3    H279310   5.014   4.345   1.489  0.8506  0.1572  0.2373
19299TIP3   OH279311   6.029   2.545  13.183  0.2514  0.3961 -0.5368
19299TIP3    H179312   6.114   2.540  13.140  0.2923 -1.2519 -0.3255
19299TIP3    H279313   6.038   2.490  13.261 -0.8308  0.6384 -0.2252
19300TIP3   OH279314   6.684   0.908   0.908 -0.1159 -0.3948 -0.3194
19300TIP3    H179315   6.669   0.960   0.986 -0.1063 -0.6778 -0.1285
19300TIP3    H279316   6.766   0.941   0.872 -0.1496 -0.2265 -0.2421
19301TIP3   OH279317   3.497   2.632   5.424 -0.0534  0.7371 -1.2758
19301TIP3    H179318   3.476   2.723   5.400 -0.9417  0.3582 -2.0105
19301TIP3    H279319   3.461   2.580   5.352  2.5176 -0.0692 -2.0870
19302TIP3   OH279320   5.232   0.505   4.131 -0.4914  0.5228 -0.4289
19302TIP3    H179321   5.298   0.568   4.102  0.4478 -0.2179  0.0588
19302TIP3    H279322   5.199   0.541   4.214 -0.3992  0.6778 -0.4604
19303TIP3   OH279323   3.718   3.541   1.904 -0.3207 -0.3499  0.3970
19303TIP3    H179324   3.744   3.455   1.872 -1.0768 -0.2185 -0.6275
19303TIP3    H279325   3.785   3.565   1.968  2.7639  0.4793 -2.8412
19304TIP3   OH279326   3.561   6.409  12.232  0.4311  0.0013  0.2996
19304TIP3    H179327   3.653   6.389  12.217  0.2103 -0.9809  0.1272
19304TIP3    H279328   3.521   6.323  12.247 -0.4481  0.4177  0.3960
19305TIP3   OH279329   1.086   5.535   3.329  0.4048  0.2220 -0.3561
19305TIP3    H179330   1.149   5.566   3.264  0.1072  1.1079 -0.2261
19305TIP3    H279331   1.020   5.603   3.334 -0.3190 -0.4785 -0.1341
19306TIP3   OH279332   4.761   4.200  13.804 -0.0751  0.3249  0.1428
19306TIP3    H179333   4.851   4.192  13.771  0.6432  2.2599  1.4839
19306TIP3    H279334   4.707   4.203  13.725  1.2731  1.5159 -0.7968
19307TIP3   OH279335   5.992   6.208   3.886 -0.6026  0.1017  0.0650
19307TIP3    H179336   5.982   6.300   3.860  1.7028  0.4375  0.2013
19307TIP3    H279337   6.069   6.207   3.943 -0.2664 -1.9982 -0.3440
19308TIP3   OH279338   0.231   1.948   1.276  1.3169  1.0302 -0.1948
19308TIP3    H179339   0.147   1.957   1.319  0.4637  2.5823 -1.9953
19308TIP3    H279340   0.267   1.866   1.308  0.5734  1.8301  2.9985
19309TIP3   OH279341   6.696   2.501  11.726 -0.3787  0.0921 -0.3966
19309TIP3    H179342   6.750   2.480  11.649  0.6997  0.1386  0.3259
19309TIP3    H279343   6.741   2.459  11.799 -1.0671  0.5446  0.3037
19310TIP3   OH279344   1.996   0.458  13.844  0.5965 -0.4148  0.0423
19310TIP3    H179345   1.953   0.376  13.817  0.9049 -1.4628  2.4702
19310TIP3    H279346   1.977   0.465  13.937  1.1309  1.9952  0.0231
19311TIP3   OH279347   5.743   5.719   5.548  0.2259 -0.0867  0.5401
19311TIP3    H179348   5.681   5.657   5.509 -0.1639  0.2565  0.6073
19311TIP3    H279349   5.825   5.702   5.502 -0.3837  0.7783 -0.9753
19312TIP3   OH279350   0.114   2.393  12.674  0.0971 -0.2947  0.6175
19312TIP3    H179351   0.144   2.480  12.647  0.7616 -0.9388 -0.8563
19312TIP3    H279352   0.055   2.364  12.604 -0.1600 -1.0123  1.1099
19313TIP3   OH279353   4.624   2.930  12.961 -0.4908 -0.2325 -0.5364
19313TIP3    H179354   4.613   3.018  12.996  2.1975 -0.1241  0.2456
19313TIP3    H279355   4.656   2.943  12.872  1.1016 -0.3335 -0.0141
19314TIP3   OH279356   0.012   6.354   3.959  0.0906  0.1728 -0.2914
19314TIP3    H179357   0.101   6.376   3.929 -0.0758  1.1341 -0.1109
19314TIP3    H279358   0.016   6.261   3.978  1.1829  0.2774  0.0836
19315TIP3   OH279359   1.293   4.233  14.333 -0.0150  0.4330  0.2037
19315TIP3    H179360   1.338   4.300  14.385  1.9796 -0.9382  0.3505
19315TIP3    H279361   1.354   4.159  14.331 -1.8175 -1.1130 -0.5925
19316TIP3   OH279362   0.418   0.521   5.400  0.1702  0.4666 -0.0166
19316TIP3    H179363   0.399   0.430   5.422  0.3065  1.0536  2.9385
19316TIP3    H279364   0.513   0.524   5.388  0.1613  0.2235 -0.1569
19317TIP3   OH279365   4.010   5.089  13.043 -0.2032  0.0370 -0.2259
19317TIP3    H179366   3.992   5.131  12.959 -1.1198 -0.1541 -0.1341
19317TIP3    H279367   4.104   5.104  13.058  0.2654 -1.0051 -1.8677
19318TIP3   OH279368   2.733   1.979   2.135 -0.1907  0.6226  0.0263
19318TIP3    H179369   2.671   1.917   2.174 -0.1783 -1.1466 -2.5588
19318TIP3    H279370   2.815   1.931   2.127 -0.0452  1.0757 -1.6088
19319TIP3   OH279371   6.459   5.136   1.821 -0.4040  0.1016 -0.6041
19319TIP3    H179372   6.383   5.160   1.767 -1.5437 -1.8318  0.0612
19319TIP3    H279373   6.446   5.185   1.903 -0.3009  0.6702 -0.9226
19320TIP3   OH279374   0.956   6.630   2.305 -0.1564 -0.1398  0.5674
19320TIP3    H179375   0.986   6.705   2.357  1.1131 -0.1133 -0.1457
19320TIP3    H279376   0.922   6.668   2.224  0.1713 -0.3040  0.3482
19321TIP3   OH279377   0.719   4.063   2.442 -0.1061  0.0007  0.4720
19321TIP3    H179378   0.809   4.078   2.412  0.3167  0.3692  1.8338
19321TIP3    H279379   0.669   4.046   2.363  0.8073  1.6248 -0.4856
19322TIP3   OH279380   4.869   5.596  15.322 -0.1949 -0.5167  0.0503
19322TIP3    H179381   4.816   5.536  15.376 -0.3652 -0.7349 -0.3519
19322TIP3    H279382   4.921   5.645  15.385  0.0572 -1.1958  0.3809
19323TIP3   OH279383   0.177   6.201   0.615  0.5149  0.3107 -0.3477
19323TIP3    H179384   0.260   6.212   0.569  1.0766  0.2867  0.6374
19323TIP3    H279385   0.197   6.224   0.706 -0.6482  0.6759 -0.1704
19324TIP3   OH279386   1.951   2.571   0.564 -0.2280 -0.0328  0.0733
19324TIP3    H179387   1.985   2.652   0.603 -1.0723 -1.0680  3.1695
19324TIP3    H279388   1.988   2.501   0.617  0.3998 -1.7989 -2.4702
19325TIP3   OH279389   4.503   2.397   0.690  0.0767  0.1817  0.0523
19325TIP3    H179390   4.574   2.457   0.714 -1.0213  1.0448  1.2057
19325TIP3    H279391   4.482   2.421   0.599  0.2822  0.9235  0.1910
19326TIP3   OH279392   0.586   2.919   4.869 -0.4310  0.5954 -0.4372
19326TIP3    H179393   0.556   3.006   4.842  0.8781  1.4281  0.6822
19326TIP3    H279394   0.621   2.932   4.957  0.2665 -0.9601 -0.4641
19327TIP3   OH279395   2.040   4.545  14.320  0.5066 -0.1293  0.1799
19327TIP3    H179396   1.997   4.538  14.235  3.2729  3.2380 -1.7639
19327TIP3    H279397   1.967   4.551  14.383 -1.7650  0.6175 -2.3379
19328TIP3   OH279398   4.665   0.856  16.906  0.3899 -0.1786 -0.1488
19328TIP3    H179399   4.676   0.761  16.901 -1.4793 -0.3743 -1.4609
19328TIP3    H279400   4.739   0.891  16.856  1.4204 -0.8867  0.8332
19329TIP3   OH279401   0.073   2.515  13.844  0.1623 -0.2063  0.5275
19329TIP3    H179402   0.105   2.497  13.933 -0.6117  0.5215  0.9619
19329TIP3    H279403  -0.002   2.456  13.834 -0.0473  0.0601  0.5380
19330TIP3   OH279404   0.830   1.328  13.078 -0.2537 -0.5141 -0.6488
19330TIP3    H179405   0.781   1.247  13.064 -0.3276 -0.2211 -2.1834
19330TIP3    H279406   0.763   1.394  13.094 -0.2032 -0.6774  0.3262
19331TIP3   OH279407   0.141   1.055   3.434  0.8191 -0.3043  0.5973
19331TIP3    H179408   0.149   1.139   3.480  3.4742  0.0994 -0.4060
19331TIP3    H279409   0.231   1.021   3.431  0.1346 -2.1567 -0.9050
19332TIP3   OH279410   1.872   5.976   6.194 -0.5152 -0.4542  0.2356
19332TIP3    H179411   1.956   5.943   6.163  0.3854  1.5505  0.4084
19332TIP3    H279412   1.822   5.994   6.114  0.4769  1.3772 -0.0334
19333TIP3   OH279413   2.401   6.538   1.596  1.0515 -0.3672 -0.1906
19333TIP3    H179414   2.341   6.496   1.534  2.5980 -1.2361 -1.1731
19333TIP3    H279415   2.349   6.550   1.676  0.5792 -4.7246  0.3982
19334TIP3   OH279416   3.979   1.267  13.127  0.0926 -0.7872 -0.0095
19334TIP3    H179417   4.024   1.226  13.053 -0.4793 -0.4168 -0.5680
19334TIP3    H279418   4.005   1.360  13.123 -0.6158 -0.5961 -0.2586
19335TIP3   OH279419   4.414   6.383  17.156 -0.1161 -0.3133  0.3086
19335TIP3    H179420   4.503   6.349  17.149  0.2541  0.9350 -2.4761
19335TIP3    H279421   4.423   6.477  17.136 -2.0608 -0.2192 -0.3233
19336TIP3   OH279422   6.156   3.655  12.693  0.4668  0.3699 -0.1990
19336TIP3    H179423   6.077   3.704  12.670 -0.3521 -0.7346  0.1690
19336TIP3    H279424   6.227   3.704  12.652 -0.4194  1.2921 -0.6911
19337TIP3   OH279425   5.001   0.378  16.509  0.2997 -0.4061  0.0576
19337TIP3    H179426   4.984   0.333  16.592  1.3880 -1.1230 -0.0803
19337TIP3    H279427   4.933   0.445  16.504  0.8213  0.3360  2.0098
19338TIP3   OH279428   1.107   5.286  11.516 -0.0842  0.1421 -0.0622
19338TIP3    H179429   1.065   5.235  11.446 -0.7942  0.7551 -0.0936
19338TIP3    H279430   1.185   5.323  11.474 -1.5928  2.2672 -1.2334
19339TIP3   OH279431   4.249   4.707   4.613 -0.2152  0.0652 -0.5434
19339TIP3    H179432   4.338   4.716   4.648 -0.4576 -0.7752  0.3422
19339TIP3    H279433   4.213   4.631   4.659 -1.7245  0.9547 -0.1803
19340TIP3   OH279434   3.694   6.289   4.160  0.1147 -0.1585  0.0898
19340TIP3    H179435   3.744   6.349   4.215  0.9018  0.6773 -1.4712
19340TIP3    H279436   3.686   6.209   4.212  1.9009  0.1743  0.9318
19341TIP3   OH279437   1.159   6.376  13.954  0.1481  0.0467  0.3566
19341TIP3    H179438   1.146   6.431  14.032 -0.2752 -1.2212  1.2081
19341TIP3    H279439   1.084   6.316  13.954  1.2377 -1.3704  0.1761
19342TIP3   OH279440   1.102   5.907   3.023 -0.1981  0.1429  0.1152
19342TIP3    H179441   1.165   5.979   3.031 -0.3989  0.3090  0.2061
19342TIP3    H279442   1.090   5.896   2.929  0.4388 -0.3017  0.0837
19343TIP3   OH279443   6.682   2.203   1.930  0.2396  0.3675 -0.5518
19343TIP3    H179444   6.772   2.234   1.937  0.4033  0.0047 -1.0194
19343TIP3    H279445   6.690   2.110   1.910 -0.2496 -0.0504  1.0263
19344TIP3   OH279446   0.295   4.778   2.347  0.0449 -0.2902 -0.3311
19344TIP3    H179447   0.261   4.865   2.369 -1.6680 -0.7360 -1.0545
19344TIP3    H279448   0.388   4.784   2.366  0.4904  2.4941 -2.6203
19345TIP3   OH279449   5.037   2.714   5.140  0.4973  0.0026  0.4452
19345TIP3    H179450   5.006   2.647   5.078 -2.3403  2.6150 -1.2172
19345TIP3    H279451   4.985   2.700   5.218  1.4113 -0.9449  0.9184
19346TIP3   OH279452   6.431   6.221  12.885 -0.2500 -0.3538 -0.3576
19346TIP3    H179453   6.398   6.156  12.823  0.1543  0.2457 -1.2228
19346TIP3    H279454   6.405   6.306  12.847 -2.5460  0.0018  1.7460
19347TIP3   OH279455   6.734   5.681   3.825 -0.3023 -0.0497  0.1717
19347TIP3    H179456   6.657   5.691   3.768 -0.3230  0.9385  0.3637
19347TIP3    H279457   6.698   5.682   3.913 -0.2612 -1.5051  0.2286
19348TIP3   OH279458   6.539   2.588   4.831  0.0101  0.1028 -0.1104
19348TIP3    H179459   6.519   2.624   4.918 -0.4906  0.5181 -0.3939
19348TIP3    H279460   6.628   2.554   4.840 -0.5954 -1.3034  1.0182
19349TIP3   OH279461   2.969   2.364  15.651  0.1971  0.8876 -0.0257
19349TIP3    H179462   2.912   2.299  15.610 -0.0012  0.8974  0.2339
19349TIP3    H279463   3.036   2.313  15.695  0.7073  0.8852 -0.7744
19350TIP3   OH279464   5.812   1.999  12.281  0.4446 -0.4035  0.3064
19350TIP3    H179465   5.842   2.084  12.315 -1.1665  0.4001 -0.1755
19350TIP3    H279466   5.860   1.987  12.199  0.8889 -0.0831  0.5198
19351TIP3   OH279467   4.266   2.394   5.335 -0.4889  0.3351 -0.0881
19351TIP3    H179468   4.175   2.394   5.304 -1.1837 -0.0804  1.8292
19351TIP3    H279469   4.317   2.366   5.259 -2.0775 -0.4708 -0.9028
19352TIP3   OH279470   3.084   0.181   4.389  0.4667  0.0789  0.1963
19352TIP3    H179471   3.130   0.254   4.431 -0.2830  0.7901 -0.1885
19352TIP3    H279472   3.153   0.130   4.347  1.1564 -0.2608  1.6827
19353TIP3   OH279473   4.632   6.222  11.604  0.0115 -0.7089 -0.0960
19353TIP3    H179474   4.633   6.219  11.700 -0.3168  1.5270  0.0343
19353TIP3    H279475   4.724   6.232  11.579  0.1645 -1.9315 -0.0789
19354TIP3   OH279476   3.614   3.821  14.930 -0.0900  0.3849 -0.3501
19354TIP3    H179477   3.629   3.858  15.017  0.6251 -0.6708 -0.0058
19354TIP3    H279478   3.678   3.864  14.873  1.5827 -1.1243  0.2906
19355TIP3   OH279479   2.514   0.915   0.651  0.0461 -0.8031 -0.2346
19355TIP3    H179480   2.444   0.902   0.588  0.4207 -0.5235 -0.7185
19355TIP3    H279481   2.477   0.889   0.735 -1.1199  0.7151 -0.2367
19356TIP3   OH279482   4.441   3.579   1.105  0.4382  0.1164 -0.0455
19356TIP3    H179483   4.408   3.555   1.019  1.5091 -0.6603 -0.2600
19356TIP3    H279484   4.396   3.519   1.165  0.3310  0.0771 -0.1650
19357TIP3   OH279485   3.192   6.408  12.025  0.4178  0.2897  0.0792
19357TIP3    H179486   3.126   6.354  11.982  1.1641  0.4484 -1.3326
19357TIP3    H279487   3.215   6.359  12.104 -1.9260  0.6220  1.0552
19358TIP3   OH279488   4.949   0.395   4.780 -0.0379  0.0698  0.0141
19358TIP3    H179489   4.889   0.391   4.706 -1.5578 -0.5167  1.2384
19358TIP3    H279490   5.002   0.473   4.764 -0.5268  0.1080 -1.5361
19359TIP3   OH279491   5.105   3.947  11.293 -0.2218 -0.0308  0.5303
19359TIP3    H179492   5.095   3.944  11.388  1.4366 -0.6810  0.7130
19359TIP3    H279493   5.139   3.861  11.270 -0.7032  0.0866 -0.6706
19360TIP3   OH279494   0.013   4.401  12.872  0.5296  0.7700 -0.2100
19360TIP3    H179495  -0.079   4.377  12.860  0.8190  0.4175 -2.0768
19360TIP3    H279496   0.053   4.324  12.913  0.3067  0.2712 -0.9119
19361TIP3   OH279497   4.601   6.382  12.368  0.7820  0.0528  0.5937
19361TIP3    H179498   4.544   6.423  12.303  0.5596  0.4424  1.0339
19361TIP3    H279499   4.582   6.427  12.450  2.7511  1.1979  0.4841
19362TIP3   OH279500   3.049   6.189  11.947 -0.4318 -0.2693  0.0588
19362TIP3    H179501   2.983   6.133  11.907 -0.6789  0.9008 -1.2433
19362TIP3    H279502   3.131   6.142  11.936 -0.6635 -0.4812 -0.8011
19363TIP3   OH279503   2.509   4.248   5.564 -0.0666  0.0687  0.1465
19363TIP3    H179504   2.446   4.217   5.629 -1.1146  3.1485  0.7915
19363TIP3    H279505   2.567   4.307   5.613  0.3955  0.8711 -1.3043
19364TIP3   OH279506   4.318   2.667  14.345 -0.2062  0.1196 -0.0966
19364TIP3    H179507   4.340   2.574  14.351  1.3094  0.4723  0.0681
19364TIP3    H279508   4.258   2.682  14.418 -2.6758 -1.2754 -1.6712
19365TIP3   OH279509   3.652   5.542  13.862 -0.4697 -0.1504 -0.1149
19365TIP3    H179510   3.643   5.613  13.799 -0.2050  1.0120  1.1102
19365TIP3    H279511   3.593   5.474  13.830 -0.1065  0.2697 -1.7658
19366TIP3   OH279512   4.637   2.714   1.453 -0.2557 -0.8339  0.3283
19366TIP3    H179513   4.638   2.810   1.458 -0.6075 -0.7038 -1.4558
19366TIP3    H279514   4.660   2.685   1.542  0.8449  0.8962  0.6524
19367TIP3   OH279515   0.415   5.659  14.122 -0.2337  0.0369  0.0618
19367TIP3    H179516   0.461   5.590  14.075 -1.3191 -0.6343 -0.0385
19367TIP3    H279517   0.469   5.737  14.109  0.6069 -0.6177 -0.4581
19368TIP3   OH279518   0.908   1.297  16.467  0.4325  0.8519  0.6110
19368TIP3    H179519   0.945   1.367  16.413 -0.0315  0.1236 -0.6962
19368TIP3    H279520   0.814   1.312  16.463  0.3045 -0.0190  0.0376
19369TIP3   OH279521   4.453   3.644  12.918  1.0405 -0.2764  0.1360
19369TIP3    H179522   4.438   3.644  13.013  0.2293  0.9286  0.0423
19369TIP3    H279523   4.379   3.693  12.883 -0.2236 -3.0862 -1.4176
19370TIP3   OH279524   2.082   5.391   0.213  0.2987  0.2455  0.3737
19370TIP3    H179525   2.120   5.478   0.207  0.5012  0.1669  0.4984
19370TIP3    H279526   2.020   5.397   0.285 -1.2879  0.8730 -0.9852
19371TIP3   OH279527   5.308   4.776  14.182 -0.0413  0.8225  0.3774
19371TIP3    H179528   5.266   4.840  14.239 -0.2199  0.3436  0.7754
19371TIP3    H279529   5.242   4.709  14.166  0.9601 -0.6702  2.1299
19372TIP3   OH279530   0.782   2.520   1.081  0.5578  0.2611 -0.3446
19372TIP3    H179531   0.706   2.478   1.122  0.6178 -0.7114 -1.1763
19372TIP3    H279532   0.827   2.448   1.036  1.5482  0.9605 -0.4990
19373TIP3   OH279533   2.579   0.444  15.070  1.1321 -0.3896 -0.5654
19373TIP3    H179534   2.670   0.451  15.098  0.7938  1.4939  0.2090
19373TIP3    H279535   2.542   0.376  15.126  1.6163  0.1311  0.4115
19374TIP3   OH279536   6.416   0.968   2.031  0.1207  0.4753  0.6836
19374TIP3    H179537   6.359   1.017   1.973 -0.4236  0.0068  0.8110
19374TIP3    H279538   6.504   0.981   1.996 -0.3574 -1.4858 -1.5302
19375TIP3   OH279539   4.982   6.150  12.937 -0.7168 -0.4609  0.1232
19375TIP3    H179540   5.039   6.213  12.892  1.1357 -1.6733  0.6650
19375TIP3    H279541   4.950   6.197  13.014 -0.0251  0.0903  0.0845
19376TIP3   OH279542   6.381   3.965   4.107 -0.6420 -0.3521  0.5872
19376TIP3    H179543   6.327   3.966   4.028  0.0838 -0.2640  0.0793
19376TIP3    H279544   6.391   3.872   4.128 -0.0987 -0.4210  0.0506
19377TIP3   OH279545   3.685   5.514  14.982 -0.4953 -0.0762  0.5633
19377TIP3    H179546   3.746   5.496  15.053  0.3216  0.7697  0.0921
19377TIP3    H279547   3.604   5.541  15.026  0.3068  1.4345  1.1921
19378TIP3   OH279548   5.306   1.997  14.840 -0.7931  0.3121 -0.4265
19378TIP3    H179549   5.384   1.973  14.890 -1.1350  0.2968  0.1090
19378TIP3    H279550   5.271   2.073  14.885 -1.0376  0.3713 -0.7155
19379TIP3   OH279551   0.341   0.079  13.340  0.0353  0.3287 -0.3105
19379TIP3    H179552   0.377   0.062  13.253 -0.3743  0.7049 -0.5583
19379TIP3    H279553   0.382   0.014  13.396 -0.4595 -0.5755 -0.9703
19380TIP3   OH279554   2.681   0.145   2.992 -0.1517 -0.2398 -0.0455
19380TIP3    H179555   2.628   0.078   3.035  0.0861 -1.6644 -1.8688
19380TIP3    H279556   2.625   0.181   2.923  0.2619  0.3631 -0.0829
19381TIP3   OH279557   1.314   0.617  14.626  0.1523  0.6059 -0.3930
19381TIP3    H179558   1.266   0.582  14.551 -1.0445 -2.5321  1.6278
19381TIP3    H279559   1.406   0.610  14.601 -0.1795 -1.1824 -1.2748
19382TIP3   OH279560   6.436   6.375   4.183  0.0247  0.8701  0.1688
19382TIP3    H179561   6.466   6.366   4.092 -0.2290 -0.7377  0.2296
19382TIP3    H279562   6.474   6.301   4.229  0.8180  2.0962  1.5978
19383TIP3   OH279563   0.022   5.065   4.322  0.0881 -0.2383 -0.3712
19383TIP3    H179564  -0.057   5.020   4.352  0.4749 -1.5672 -1.2316
19383TIP3    H279565   0.039   5.028   4.236  0.8410  1.0923 -0.8213
19384TIP3   OH279566   5.092   0.542  15.338  0.2610  0.0840 -0.2425
19384TIP3    H179567   5.133   0.536  15.251  0.2214  0.1941 -0.2687
19384TIP3    H279568   5.110   0.631  15.367  0.4758 -0.0280 -0.0355
19385TIP3   OH279569   5.324   1.075  16.117  0.0414  0.3422 -0.1087
19385TIP3    H179570   5.248   1.133  16.120 -0.7269 -0.6895  1.0546
19385TIP3    H279571   5.294   0.992  16.154  1.3366 -0.5673 -0.9827
19386TIP3   OH279572   5.768   1.148   1.896  0.1438  0.4457  0.1049
19386TIP3    H179573   5.860   1.137   1.917  0.4541  2.0112 -0.2758
19386TIP3    H279574   5.724   1.073   1.936  1.8892 -1.8503 -1.9811
19387TIP3   OH279575   3.594   6.690  12.073  0.3407  0.3356 -0.3504
19387TIP3    H179576   3.569   6.694  12.165  0.4962  0.6833 -0.3216
19387TIP3    H279577   3.673   6.635  12.072  0.5141  0.5787 -0.2360
19388TIP3   OH279578   5.380   0.313   5.862 -0.3659 -0.5816  0.5639
19388TIP3    H179579   5.365   0.220   5.847 -0.1640 -0.8379  1.8738
19388TIP3    H279580   5.336   0.356   5.788  0.8533 -1.7543 -0.9033
19389TIP3   OH279581   4.088   6.373  13.154 -0.9620 -0.1765 -0.7462
19389TIP3    H179582   4.071   6.429  13.230  1.1067  0.4729 -0.6908
19389TIP3    H279583   4.121   6.292  13.192  1.2712  0.5860 -0.8886
19390TIP3   OH279584   4.400   2.557  12.765  0.7700 -0.0527 -0.1822
19390TIP3    H179585   4.391   2.592  12.676  0.2508  1.4131  0.4077
19390TIP3    H279586   4.485   2.589  12.795  1.1968 -1.0176 -0.3346
19391TIP3   OH279587   2.676   4.091   4.386  0.1549 -0.5153 -0.2892
19391TIP3    H179588   2.585   4.103   4.412 -0.2676 -0.6516 -1.6599
19391TIP3    H279589   2.690   4.155   4.316  1.6647  0.7853  1.1268
19392TIP3   OH279590   3.336   5.269  15.621 -0.1888 -0.5580  0.1893
19392TIP3    H179591   3.345   5.266  15.716  1.3102 -0.2577  0.0890
19392TIP3    H279592   3.395   5.200  15.590  0.7754  0.5716 -0.5710
19393TIP3   OH279593   1.016   6.589   5.674  0.4696  0.0549 -0.9999
19393TIP3    H179594   1.000   6.679   5.704 -1.3759 -0.1897 -1.1078
19393TIP3    H279595   1.109   6.587   5.652  0.7806  1.6406 -0.0187
19394TIP3   OH279596   2.084   3.360  15.076  0.5389 -0.5813 -1.1124
19394TIP3    H179597   2.143   3.399  15.141  0.7758 -0.7743 -1.2097
19394TIP3    H279598   2.117   3.391  14.992  0.9238 -1.2396 -1.2130
19395TIP3   OH279599   2.522   3.048  15.162  0.4092 -0.3729  0.0720
19395TIP3    H179600   2.446   3.041  15.219 -0.4021 -1.5734 -1.0981
19395TIP3    H279601   2.508   2.982  15.094  1.3344  0.9715 -1.5207
19396TIP3   OH279602   4.106   0.743   3.885  0.3440  0.0149 -1.3670
19396TIP3    H179603   4.030   0.790   3.850  0.4303 -0.7139 -2.6192
19396TIP3    H279604   4.072   0.690   3.957  0.0388  1.1105 -0.6875
19397TIP3   OH279605   6.592   0.091   1.628 -0.1411 -0.1413 -0.0414
19397TIP3    H179606   6.677   0.106   1.670 -0.6885  1.5144  0.5393
19397TIP3    H279607   6.543   0.038   1.692  0.1392 -0.3423  0.0091
19398TIP3   OH279608   3.472   3.404  14.866 -0.1775 -0.0234  0.1241
19398TIP3    H179609   3.437   3.431  14.951 -1.5574 -0.0783 -0.3920
19398TIP3    H279610   3.496   3.312  14.878  0.0373  0.0934  0.5788
19399TIP3   OH279611   5.656   3.335  12.271  0.2798  0.0919  0.1833
19399TIP3    H179612   5.659   3.304  12.362  0.7607 -2.2068 -0.5609
19399TIP3    H279613   5.748   3.340  12.245  0.1416  0.7464 -0.2032
19400TIP3   OH279614   2.433   1.702  12.948  0.2113  0.3961 -0.0072
19400TIP3    H179615   2.491   1.774  12.922  0.3711  0.4941  0.6076
19400TIP3    H279616   2.361   1.745  12.994  0.7596  0.1016  1.1618
19401TIP3   OH279617   6.406   0.769  12.509 -0.1235 -0.0066 -0.5803
19401TIP3    H179618   6.360   0.709  12.451  2.1063 -2.6714  0.1898
19401TIP3    H279619   6.472   0.715  12.553  0.9660  2.6991  1.4429
19402TIP3   OH279620   0.574   1.454  13.098 -0.8332  0.4682 -0.4278
19402TIP3    H179621   0.548   1.426  13.011  0.4051  1.2933 -1.0826
19402TIP3    H279622   0.566   1.549  13.097  3.4728  1.0043 -1.2048
19403TIP3   OH279623   5.114   6.675   5.076  0.6043 -0.5528 -0.2787
19403TIP3    H179624   5.099   6.679   5.171  1.6219  0.2599 -0.1354
19403TIP3    H279625   5.052   6.737   5.039  1.1030  0.1094 -0.0204
19404TIP3   OH279626   2.247   0.202  11.059  0.3553 -0.7232  0.2364
19404TIP3    H179627   2.197   0.281  11.081 -0.2860 -1.8016  3.1677
19404TIP3    H279628   2.286   0.220  10.974 -3.6771  0.8499 -1.5044
19405TIP3   OH279629   2.780   2.090   6.356  0.0571  0.6215  0.1745
19405TIP3    H179630   2.772   2.001   6.321  0.3470  0.5282  0.3366
19405TIP3    H279631   2.692   2.112   6.386 -0.1939  0.6958 -0.5819
19406TIP3   OH279632   1.463   1.548   0.203  0.0203 -0.1787 -0.6860
19406TIP3    H179633   1.411   1.623   0.175 -0.9926 -1.0018 -1.0558
19406TIP3    H279634   1.411   1.505   0.271  0.8961 -0.1820  0.0158
19407TIP3   OH279635   4.441   1.292  12.211  0.7683  0.5893 -0.0192
19407TIP3    H179636   4.391   1.288  12.293  2.5226 -0.6362  1.0890
19407TIP3    H279637   4.513   1.352  12.231  0.3255  1.5528 -1.2410
19408TIP3   OH279638   6.609   4.498   4.475 -1.0102 -0.7097  0.3223
19408TIP3    H179639   6.670   4.572   4.479 -0.2044 -1.3481  0.0438
19408TIP3    H279640   6.637   4.440   4.545 -1.6596 -0.7470  0.5574
19409TIP3   OH279641   0.436   4.709   3.497 -0.4164 -0.0036 -0.3866
19409TIP3    H179642   0.429   4.627   3.546 -1.6991 -2.2229 -3.8993
19409TIP3    H279643   0.529   4.713   3.472 -0.6969 -1.5999 -1.9005
19410TIP3   OH279644   0.952   2.275  16.093  0.1306  0.3279  0.4749
19410TIP3    H179645   0.941   2.210  16.162  2.1051  0.2868  0.8310
19410TIP3    H279646   1.047   2.286  16.086 -0.1031  3.0326  0.2963
19411TIP3   OH279647   2.186   5.148   5.119  0.0406  0.3650 -0.0029
19411TIP3    H179648   2.129   5.105   5.183  0.5350  0.1490  0.2891
19411TIP3    H279649   2.274   5.121   5.143  0.1827 -0.3043 -1.2119
19412TIP3   OH279650   1.626   4.317   1.817 -0.8189  0.1305 -0.7303
19412TIP3    H179651   1.645   4.408   1.842  1.9293 -0.8513  1.4107
19412TIP3    H279652   1.551   4.293   1.871  0.3187  0.3363  1.0623
19413TIP3   OH279653   6.713   6.473   5.041  0.4523 -0.6566  0.5126
19413TIP3    H179654   6.670   6.543   4.993  0.5129 -0.6104  0.5259
19413TIP3    H279655   6.643   6.432   5.092 -0.7180 -3.7585 -3.0875
19414TIP3   OH279656   3.516   0.113  11.676  0.0066 -0.1758  0.5300
19414TIP3    H179657   3.434   0.102  11.627  0.4941 -1.0579 -0.1238
19414TIP3    H279658   3.529   0.207  11.681 -0.0714 -0.0560 -1.0365
19415TIP3   OH279659   0.258   2.935  10.560 -0.0397 -0.6506  0.2349
19415TIP3    H179660   0.312   2.868  10.603  2.0876  0.2535 -0.8519
19415TIP3    H279661   0.317   3.008  10.547 -0.6199 -0.6600 -3.6848
19416TIP3   OH279662   4.919   4.762  11.431 -0.0688 -0.1114 -0.4284
19416TIP3    H179663   4.870   4.834  11.393 -1.9575 -1.5352 -0.8110
19416TIP3    H279664   4.918   4.779  11.526 -0.9900  0.0662 -0.4695
19417TIP3   OH279665   1.006   0.484   4.877 -0.3777 -0.2947 -0.0603
19417TIP3    H179666   1.061   0.539   4.934 -2.0969 -0.7662  2.1856
19417TIP3    H279667   1.068   0.422   4.837  0.9471  0.1920  1.1446
19418TIP3   OH279668   2.834   3.702  11.869  0.1071  0.1734  0.7114
19418TIP3    H179669   2.922   3.681  11.900 -0.3279 -1.2829  1.0657
19418TIP3    H279670   2.803   3.621  11.829 -0.7214  0.9548 -0.2904
19419TIP3   OH279671   4.611   0.767   5.331 -0.2478 -0.2016  0.2628
19419TIP3    H179672   4.685   0.821   5.360 -0.6713  1.1936 -1.0839
19419TIP3    H279673   4.635   0.741   5.242 -0.9906 -0.4549  0.1353
19420TIP3   OH279674   4.796   3.359  13.763  0.5981  0.0272  0.3059
19420TIP3    H179675   4.845   3.278  13.774  0.4195 -0.1719 -0.3403
19420TIP3    H279676   4.832   3.398  13.683 -0.8557 -0.5370 -0.6607
19421TIP3   OH279677   2.817   2.530   3.683  0.2902 -0.6697  0.4489
19421TIP3    H179678   2.764   2.463   3.639 -0.5291 -0.2613  0.7899
19421TIP3    H279679   2.754   2.599   3.706  0.8304 -0.5289  1.5657
19422TIP3   OH279680   4.602   1.327  14.638 -0.2247 -0.0571 -0.0196
19422TIP3    H179681   4.663   1.261  14.671  1.4586  1.1005 -0.6777
19422TIP3    H279682   4.520   1.279  14.626 -0.3584 -1.0299  3.5903
19423TIP3   OH279683   5.770   6.041   5.751  0.1734 -0.3243  0.2705
19423TIP3    H179684   5.836   6.064   5.816 -1.5131  1.2059  1.5531
19423TIP3    H279685   5.717   6.121   5.741 -0.4479 -0.9304 -2.0129
19424TIP3   OH279686   3.491   2.959  14.484 -0.3958 -0.0431 -0.1825
19424TIP3    H179687   3.459   3.038  14.525  0.6729  0.2576  0.1170
19424TIP3    H279688   3.423   2.894  14.499 -0.3181  0.2300  1.5086
19425TIP3   OH279689   1.639   6.149   5.491  0.1221  0.5416 -0.3110
19425TIP3    H179690   1.727   6.180   5.468  1.2673 -2.4806 -0.4174
19425TIP3    H279691   1.629   6.171   5.584  2.0787 -1.2443  0.3945
19426TIP3   OH279692   0.202   5.438   3.242  0.2983 -0.0312 -0.1621
19426TIP3    H179693   0.110   5.458   3.226 -0.0897 -0.9543  0.8304
19426TIP3    H279694   0.249   5.513   3.205 -0.7894  0.1012 -1.3550
19427TIP3   OH279695   0.752   2.335   1.498 -0.5119 -0.0928  0.0720
19427TIP3    H179696   0.800   2.303   1.574  0.5895  2.8751  0.8014
19427TIP3    H279697   0.820   2.360   1.436 -1.2302  0.9201 -0.3378
19428TIP3   OH279698   2.698   4.236   4.167  0.6401  0.2940 -0.3779
19428TIP3    H179699   2.740   4.296   4.105  0.2626 -0.4969 -1.4226
19428TIP3    H279700   2.612   4.219   4.130 -0.2424  1.0712  1.2160
19429TIP3   OH279701   0.974   4.424   0.865 -0.2250  0.2276 -0.3157
19429TIP3    H179702   1.010   4.510   0.844 -1.1969  0.9097  0.7336
19429TIP3    H279703   0.883   4.428   0.835 -0.6366  0.0149  0.8641
19430TIP3   OH279704   3.022   3.126  13.106  0.0418 -0.4187  0.4933
19430TIP3    H179705   2.964   3.197  13.131 -1.7387 -1.8023  0.4994
19430TIP3    H279706   3.100   3.138  13.161 -0.5563  1.0276  1.0683
19431TIP3   OH279707   1.824   2.571   0.147 -0.1495  0.1787  0.7044
19431TIP3    H179708   1.805   2.477   0.141  1.5869 -0.2065  0.7123
19431TIP3    H279709   1.741   2.610   0.175 -1.1426 -1.2315 -0.1288
19432TIP3   OH279710   2.607   3.599   6.135 -0.5253  0.0164 -0.2366
19432TIP3    H179711   2.564   3.630   6.215 -0.1350 -0.6464  0.2316
19432TIP3    H279712   2.663   3.673   6.109  0.2419 -0.1862  0.7621
19433TIP3   OH279713   1.890   1.900  13.773 -0.5596  0.0904 -0.0292
19433TIP3    H179714   1.861   1.977  13.725  1.2920  1.4567  0.9219
19433TIP3    H279715   1.940   1.935  13.847 -2.0361 -1.9657  2.0908
19434TIP3   OH279716   4.372   2.885   2.333 -0.0268  0.8787  0.1047
19434TIP3    H179717   4.408   2.951   2.392  0.3695  1.2773 -0.5697
19434TIP3    H279718   4.383   2.802   2.379 -2.9064  1.4736  2.1515
19435TIP3   OH279719   5.678   3.777  17.055 -0.1469 -0.7345 -0.1486
19435TIP3    H179720   5.607   3.813  17.108  0.3790 -1.6012  1.1622
19435TIP3    H279721   5.754   3.778  17.112  1.1725  0.9545 -1.7736
19436TIP3   OH279722   1.264   3.558  14.238 -0.4079 -0.3856  0.2025
19436TIP3    H179723   1.285   3.556  14.332  0.6115  0.8932  0.0261
19436TIP3    H279724   1.344   3.525  14.196 -0.1137  0.9171 -0.2969
19437TIP3   OH279725   6.579   0.553  12.577 -0.1512 -0.4420  0.1788
19437TIP3    H179726   6.667   0.532  12.545  0.1048 -0.5264  0.9329
19437TIP3    H279727   6.557   0.482  12.637 -0.1753  0.2815  1.0421
19438TIP3   OH279728   5.426   4.160  14.660  0.2602  0.4811 -0.2943
19438TIP3    H179729   5.501   4.101  14.667  0.8912  1.4413  1.6144
19438TIP3    H279730   5.360   4.109  14.612  1.0500 -1.4813  0.5948
19439TIP3   OH279731   3.514   0.990   0.176 -0.1600 -0.3274 -0.1529
19439TIP3    H179732   3.459   1.053   0.223 -0.5168 -0.5015 -0.3333
19439TIP3    H279733   3.565   0.947   0.244  0.1099  0.1797 -0.0322
19440TIP3   OH279734   3.529   2.829   2.819  0.2903 -0.2316  0.1425
19440TIP3    H179735   3.502   2.738   2.812 -2.0365  0.3816  0.4580
19440TIP3    H279736   3.554   2.840   2.911  0.2211 -0.4551  0.1879
19441TIP3   OH279737   0.773   3.506   1.976 -0.1796  0.0321  0.3786
19441TIP3    H179738   0.849   3.450   1.962 -0.6132 -0.7030  0.8615
19441TIP3    H279739   0.704   3.468   1.921 -0.0482  1.0386 -0.5083
19442TIP3   OH279740   2.405   3.308  16.142  0.1368 -0.0312 -0.1665
19442TIP3    H179741   2.320   3.269  16.123  0.2404  0.4990 -1.8597
19442TIP3    H279742   2.393   3.402  16.124  0.6144  0.3373  1.2757
19443TIP3   OH279743   2.600   6.388   0.481  0.1616  0.3853 -0.1250
19443TIP3    H179744   2.590   6.453   0.550  0.7382  0.6345 -0.2734
19443TIP3    H279745   2.633   6.438   0.406 -1.2254  0.2680 -0.8383
19444TIP3   OH279746   4.085   5.174   4.161 -0.3069 -0.0172  0.5108
19444TIP3    H179747   4.173   5.203   4.137 -0.7381 -0.0284 -1.2379
19444TIP3    H279748   4.091   5.078   4.163  0.0215  0.0177  1.7195
19445TIP3   OH279749   3.409   5.414   4.260  0.1071 -0.2861  0.6690
19445TIP3    H179750   3.430   5.503   4.230 -0.1373 -0.5473 -0.3271
19445TIP3    H279751   3.316   5.404   4.239  0.6859 -1.6308 -1.5468
19446TIP3   OH279752   5.807   5.072   4.247 -0.5769 -0.3252  0.0395
19446TIP3    H179753   5.824   5.164   4.232  0.4958 -0.4376  0.4783
19446TIP3    H279754   5.862   5.026   4.184  2.2447 -0.7326  2.5771
19447TIP3   OH279755   3.331   1.020   1.993 -0.2360 -0.1070 -0.2550
19447TIP3    H179756   3.303   1.101   1.949 -1.6337  0.6430  1.8520
19447TIP3    H279757   3.383   0.974   1.927  0.2739  2.3048 -1.6678
19448TIP3   OH279758   1.824   1.578  14.574 -0.4364  0.1239  0.1420
19448TIP3    H179759   1.825   1.550  14.482  1.0181  0.3778  0.0544
19448TIP3    H279760   1.908   1.548  14.608 -0.3214  1.3709  0.9846
19449TIP3   OH279761   6.181   0.734   3.724 -0.1954  0.4425  0.5138
19449TIP3    H179762   6.240   0.800   3.688  1.7511 -0.1229  2.4623
19449TIP3    H279763   6.229   0.652   3.717 -2.1543 -0.6813 -0.8896
19450TIP3   OH279764   0.125   0.222   2.463  0.3507  0.0323 -0.3281
19450TIP3    H179765   0.123   0.313   2.436 -1.1779 -0.0980 -0.7208
19450TIP3    H279766   0.051   0.212   2.522 -0.2778 -1.2382 -1.2923
19451TIP3   OH279767   4.996   5.738   3.778 -0.4197  0.8517  0.0688
19451TIP3    H179768   5.016   5.775   3.692 -0.1151  0.9359  0.1735
19451TIP3    H279769   4.984   5.645   3.761 -0.5373  0.8949 -0.0927
19452TIP3   OH279770   5.109   2.791   4.454 -0.0757  0.3627 -0.0438
19452TIP3    H179771   5.145   2.706   4.428 -0.5046 -0.6781  2.3991
19452TIP3    H279772   5.024   2.769   4.492 -0.3305  1.9281  0.3501
19453TIP3   OH279773   6.658   3.289  12.035 -0.0501  0.3488 -0.3884
19453TIP3    H179774   6.720   3.229  11.992  0.3805  0.7637 -0.3517
19453TIP3    H279775   6.594   3.310  11.967 -0.3083 -0.2950 -0.3504
19454TIP3   OH279776   2.895   3.503   2.022  0.2828  0.2080  0.2710
19454TIP3    H179777   2.967   3.546   1.976  1.1216 -0.8145  0.5771
19454TIP3    H279778   2.906   3.410   2.000 -0.7361 -0.0019  0.6115
19455TIP3   OH279779   3.170   5.652  16.367 -0.4112 -0.2393 -0.1037
19455TIP3    H179780   3.177   5.671  16.460 -1.0556  1.0434 -0.2960
19455TIP3    H279781   3.226   5.575  16.354 -0.9394 -0.9355  1.4697
19456TIP3   OH279782   4.759   0.072   3.337  0.0566 -0.3147 -0.2537
19456TIP3    H179783   4.697   0.009   3.299 -0.7046 -0.8246  1.7128
19456TIP3    H279784   4.783   0.034   3.421 -0.8691  2.2323  1.2816
19457TIP3   OH279785   0.654   6.051   4.238 -0.2152 -0.0742  0.2713
19457TIP3    H179786   0.597   6.124   4.213 -0.3510 -0.3266 -0.1745
19457TIP3    H279787   0.698   6.081   4.318  1.0758  1.2151 -0.8471
19458TIP3   OH279788   2.293   3.227   3.219 -0.4835  0.3437 -0.0500
19458TIP3    H179789   2.211   3.232   3.170 -0.5327  0.1631  0.0101
19458TIP3    H279790   2.347   3.165   3.169 -0.9041 -0.6111  0.6400
19459TIP3   OH279791   2.784   0.298  12.813 -0.3612 -0.0046 -0.2272
19459TIP3    H179792   2.736   0.235  12.867 -0.0558  1.8117  2.3610
19459TIP3    H279793   2.734   0.304  12.732 -3.0938 -0.0549  1.3525
19460TIP3   OH279794   2.167   1.617   0.731 -0.4542  0.5615  0.3008
19460TIP3    H179795   2.083   1.659   0.744 -0.0730  1.6258 -0.5328
19460TIP3    H279796   2.147   1.539   0.678 -1.3099 -1.0192  2.7970
19461TIP3   OH279797   1.835   6.177  16.984 -0.2194  0.4367  0.4137
19461TIP3    H179798   1.836   6.265  17.021  0.8704  0.1146  1.2105
19461TIP3    H279799   1.780   6.126  17.043  0.3324  0.2617  0.7898
19462TIP3   OH279800   0.204   2.061  12.396  0.2381  0.3175  0.4796
19462TIP3    H179801   0.210   1.975  12.437  1.0669 -0.1709 -0.6049
19462TIP3    H279802   0.255   2.119  12.453  0.0240 -0.0012  0.9948
19463TIP3   OH279803   2.685   3.656  13.903 -0.5369  0.1485  0.2769
19463TIP3    H179804   2.632   3.715  13.956 -2.4546 -1.0590 -0.2198
19463TIP3    H279805   2.643   3.571  13.912 -0.0408 -0.4006 -1.9843
19464TIP3   OH279806   2.701   4.421  13.734 -0.6193  0.8529 -0.1148
19464TIP3    H179807   2.661   4.494  13.686 -2.3664  1.5501  2.2258
19464TIP3    H279808   2.749   4.462  13.806 -1.5596 -0.2412  1.1961
19465TIP3   OH279809   1.174   2.784   2.455  0.6434  0.5108  0.2499
19465TIP3    H179810   1.205   2.853   2.396 -0.5343  0.5824 -0.3026
19465TIP3    H279811   1.123   2.725   2.399 -1.0067  0.8920  1.2748
19466TIP3   OH279812   3.654   5.678   6.521  0.0188  0.0317 -0.0641
19466TIP3    H179813   3.628   5.598   6.475  1.5295 -0.9048  0.6431
19466TIP3    H279814   3.749   5.674   6.526  0.0567  1.3213  0.9921
19467TIP3   OH279815   4.740   4.548  12.773 -0.1433 -0.0073 -0.0112
19467TIP3    H179816   4.733   4.604  12.851 -0.6576  1.9073 -1.3430
19467TIP3    H279817   4.667   4.486  12.782 -1.0543  1.0771  0.4040
19468TIP3   OH279818   0.653   4.031   2.184  0.3019 -0.2517 -0.3932
19468TIP3    H179819   0.694   3.973   2.120 -0.7331 -0.4806 -0.8745
19468TIP3    H279820   0.601   4.093   2.131  2.8929  2.4294 -0.0359
19469TIP3   OH279821   3.099   5.284   5.885  0.0773  0.1813 -0.1820
19469TIP3    H179822   3.032   5.322   5.828 -0.0172  0.0286 -0.1744
19469TIP3    H279823   3.053   5.215   5.934  0.3910 -0.3675 -0.6486
19470TIP3   OH279824   2.540   5.119  16.003  0.1429  0.1447  0.4675
19470TIP3    H179825   2.495   5.064  16.067 -0.3385 -2.6168 -2.0410
19470TIP3    H279826   2.633   5.109  16.024 -0.0627  0.7052  1.7434
19471TIP3   OH279827   3.001   4.639   0.520  0.1575 -0.0437  0.3222
19471TIP3    H179828   3.052   4.718   0.504 -0.1460  0.5388  1.9963
19471TIP3    H279829   2.969   4.613   0.433  1.3675  0.8944 -0.4309
19472TIP3   OH279830   6.041   1.092  15.708 -0.7162 -0.2892  0.1650
19472TIP3    H179831   6.082   1.148  15.641 -1.4411 -0.9550 -0.8667
19472TIP3    H279832   5.947   1.100  15.692 -1.1726  2.1005  3.2259
19473TIP3   OH279833   3.607   1.583  12.581 -0.0116 -0.1588 -0.1193
19473TIP3    H179834   3.577   1.655  12.637 -1.7530  1.2615 -2.6977
19473TIP3    H279835   3.696   1.608  12.557 -0.1843  0.5423 -0.0525
19474TIP3   OH279836   4.164   6.449   0.503  0.3997  0.1965  0.1482
19474TIP3    H179837   4.230   6.518   0.491  0.8309 -0.0046  1.2725
19474TIP3    H279838   4.185   6.410   0.587 -1.5059  0.4897  0.8108
19475TIP3   OH279839   3.186   0.208   2.083 -0.2519  0.4460  0.4381
19475TIP3    H179840   3.266   0.215   2.135  0.2487 -1.9411  0.1260
19475TIP3    H279841   3.201   0.264   2.008  1.8048 -1.0375 -0.3523
19476TIP3   OH279842   3.748   1.496  10.834 -0.2281  0.3733  0.3064
19476TIP3    H179843   3.664   1.534  10.808  0.0514  1.8026  1.3403
19476TIP3    H279844   3.780   1.452  10.755 -0.8507  1.8324 -0.8138
19477TIP3   OH279845   4.694   3.133  16.803 -0.7074  0.4139 -0.2676
19477TIP3    H179846   4.650   3.075  16.741 -0.8627 -0.0226  0.2372
19477TIP3    H279847   4.757   3.076  16.848 -0.1583  0.8668 -0.4557
19478TIP3   OH279848   2.344   4.215  14.400  0.3270  0.0064 -0.8035
19478TIP3    H179849   2.343   4.124  14.370  0.8820 -0.3406  0.1561
19478TIP3    H279850   2.340   4.208  14.496  0.1587  1.0038 -0.7293
19479TIP3   OH279851   2.914   6.332  12.611 -0.2901  0.6923  0.3049
19479TIP3    H179852   2.930   6.346  12.517 -0.5079  0.0925  0.1786
19479TIP3    H279853   2.913   6.421  12.648 -0.5403  0.9541 -0.3118
19480TIP3   OH279854   5.906   5.720  16.026 -0.2266  0.5079 -0.1343
19480TIP3    H179855   5.903   5.624  16.016 -0.7479  0.2828  1.6500
19480TIP3    H279856   5.835   5.752  15.972  1.1667  0.1121 -2.3432
19481TIP3   OH279857   6.139   5.287   3.666  0.1829  0.0010 -0.2972
19481TIP3    H179858   6.090   5.328   3.595 -0.9915  0.1610  0.5785
19481TIP3    H279859   6.124   5.193   3.654 -0.3089  0.0474 -0.0582
19482TIP3   OH279860   2.050   0.202   5.329  0.3307  0.2691 -0.4681
19482TIP3    H179861   1.974   0.152   5.359 -0.4606  0.4730 -2.0371
19482TIP3    H279862   2.048   0.193   5.233  2.6562 -0.2522 -0.5302
19483TIP3   OH279863   3.746   2.498  14.688 -0.0036 -0.3159 -0.1428
19483TIP3    H179864   3.821   2.441  14.700  0.2688  0.1507  0.4136
19483TIP3    H279865   3.777   2.568  14.631 -0.5419 -1.0846 -1.4402
19484TIP3   OH279866   5.867   3.917   2.347  0.4175  0.0401 -0.1345
19484TIP3    H179867   5.847   3.837   2.396 -2.5372  0.6144 -0.1859
19484TIP3    H279868   5.897   3.886   2.262  1.0908 -0.9723  0.4427
19485TIP3   OH279869   5.538   2.047  15.037  0.1332 -0.2161  0.2203
19485TIP3    H179870   5.580   2.051  15.123 -1.2421 -0.4829  0.9308
19485TIP3    H279871   5.588   1.981  14.988  2.9769  2.1504 -0.3925
19486TIP3   OH279872   5.773   0.122  12.265 -0.7181  0.0236 -0.4327
19486TIP3    H179873   5.753   0.192  12.203 -1.0054  1.2653  0.9951
19486TIP3    H279874   5.700   0.060  12.255 -2.0228  1.3852  0.2950
19487TIP3   OH279875   1.447   6.180   0.879  0.2804  0.2014 -0.6012
19487TIP3    H179876   1.460   6.272   0.904 -0.3523 -0.4622  2.5346
19487TIP3    H279877   1.493   6.130   0.946 -0.6724 -1.8049 -1.3788
19488TIP3   OH279878   2.977   2.043   5.756 -0.1491  0.2763 -0.3282
19488TIP3    H179879   3.037   2.118   5.757  0.0253  0.2167 -2.4586
19488TIP3    H279880   3.028   1.971   5.792  1.0258  0.2872 -1.8649
19489TIP3   OH279881   1.688   0.618  15.403  0.2038  0.1103  0.5009
19489TIP3    H179882   1.613   0.656  15.358  0.3140 -1.3937 -1.0693
19489TIP3    H279883   1.650   0.564  15.472 -0.1491 -0.2734  0.0143
19490TIP3   OH279884   1.701   2.955  12.370 -0.3973  0.2358 -0.2495
19490TIP3    H179885   1.766   2.996  12.428 -2.4734  0.6561  1.9077
19490TIP3    H279886   1.666   2.882  12.420 -1.9978  0.3635 -1.1268
19491TIP3   OH279887   5.569   5.977  13.429 -0.0597 -0.5235  0.3790
19491TIP3    H179888   5.584   6.056  13.377  1.6283 -1.8093 -1.2153
19491TIP3    H279889   5.513   6.007  13.501  0.7495  2.1795  0.0279
19492TIP3   OH279890   6.721   5.108   2.137 -0.1164  0.0803  0.0439
19492TIP3    H179891   6.659   5.036   2.144 -1.5152  1.2063 -0.3836
19492TIP3    H279892   6.673   5.185   2.168  1.8727  0.6044  2.2210
19493TIP3   OH279893   1.589   3.491  13.171 -0.3823 -0.1881  0.3236
19493TIP3    H179894   1.518   3.430  13.154 -0.2937 -0.4935  0.9959
19493TIP3    H279895   1.558   3.575  13.139 -1.4988 -0.0860  1.6215
19494TIP3   OH279896   3.174   2.520  11.259  0.4434 -0.0034  0.2345
19494TIP3    H179897   3.145   2.566  11.181  0.3516  0.0714  0.3128
19494TIP3    H279898   3.109   2.450  11.272  0.9374 -0.5649 -0.2548
19495TIP3   OH279899   5.717   5.682  13.222 -0.4091 -0.3139  0.2737
19495TIP3    H179900   5.807   5.681  13.256 -0.9437  0.7717  1.8406
19495TIP3    H279901   5.718   5.750  13.154 -0.3266  0.6681  1.2263
19496TIP3   OH279902   4.921   3.590  15.315 -0.4922 -0.1471 -0.0476
19496TIP3    H179903   4.975   3.519  15.279  3.4481  2.0196  1.0799
19496TIP3    H279904   4.876   3.627  15.238  0.4708 -1.3609 -1.2520
19497TIP3   OH279905   3.638   1.770   3.587 -0.0541 -0.3377 -0.1840
19497TIP3    H179906   3.545   1.783   3.605 -0.0987 -2.5871  1.6907
19497TIP3    H279907   3.683   1.825   3.652 -0.1385 -1.6317  0.9994
19498TIP3   OH279908   6.022   1.895   5.619 -0.2773 -0.2500  0.0850
19498TIP3    H179909   6.093   1.884   5.682  1.1779 -0.0863 -1.4617
19498TIP3    H279910   6.009   1.807   5.584  0.1317 -0.0308 -0.6283
19499TIP3   OH279911   1.429   3.942   1.363 -0.0965 -0.5858  0.6339
19499TIP3    H179912   1.461   4.018   1.411 -0.1888 -0.1330 -0.0065
19499TIP3    H279913   1.343   3.967   1.331 -0.3390 -1.1448  0.8289
19500TIP3   OH279914   5.654   5.399   0.595  0.2387  0.1858  0.0862
19500TIP3    H179915   5.630   5.408   0.687 -2.3347 -0.2291 -0.4624
19500TIP3    H279916   5.683   5.308   0.586 -1.2706 -0.3323  0.1770
19501TIP3   OH279917   1.324   6.359   5.743  0.5958 -0.1366 -0.3399
19501TIP3    H179918   1.230   6.339   5.738  0.0413  2.2193 -1.2058
19501TIP3    H279919   1.328   6.441   5.793  2.0851  0.2654 -1.0537
19502TIP3   OH279920   3.429   2.593  16.514  0.4304  0.0571  0.2286
19502TIP3    H179921   3.449   2.537  16.439  0.1526 -0.0185  0.2061
19502TIP3    H279922   3.337   2.619  16.501 -0.0390 -1.0030  1.1921
19503TIP3   OH279923   3.142   4.639  13.345  0.3064  0.3079  0.9733
19503TIP3    H179924   3.222   4.673  13.385  0.1815 -0.6987  2.1551
19503TIP3    H279925   3.161   4.635  13.252  0.6044  2.7783  0.8632
19504TIP3   OH279926   5.180   5.783   1.468 -0.1673  0.1846 -0.2607
19504TIP3    H179927   5.107   5.816   1.416 -0.6695 -1.9080 -0.9832
19504TIP3    H279928   5.258   5.821   1.427 -0.7108  0.7042 -0.8351
19505TIP3   OH279929   1.144   4.689   6.190 -0.0422  0.0669  0.7261
19505TIP3    H179930   1.162   4.659   6.279  0.1939  0.1734  0.7149
19505TIP3    H279931   1.167   4.615   6.134  3.4341  1.2008  0.4482
19506TIP3   OH279932   2.849   1.035  12.433  0.1629  0.2711  0.0729
19506TIP3    H179933   2.915   1.082  12.382 -1.1892  1.6780 -0.4343
19506TIP3    H279934   2.884   0.946  12.440  1.9571  0.8787 -0.4383
19507TIP3   OH279935   4.994   1.519   4.533  0.4963  0.4692 -0.2664
19507TIP3    H179936   4.920   1.465   4.561  1.2891 -0.7994 -0.5251
19507TIP3    H279937   5.033   1.551   4.614  0.9151 -0.6077 -0.0269
19508TIP3   OH279938   5.774   1.504  13.355 -0.0534  0.4533 -0.2333
19508TIP3    H179939   5.770   1.549  13.440 -1.2281 -1.3545  0.7475
19508TIP3    H279940   5.827   1.561  13.300  1.9979  1.0313  2.1298
19509TIP3   OH279941   0.628   0.390  13.218 -0.1253 -0.2344 -0.6491
19509TIP3    H179942   0.547   0.399  13.168 -0.1580  0.0874 -0.5430
19509TIP3    H279943   0.676   0.471  13.200  0.0653 -0.3192 -0.5245
19510TIP3   OH279944   6.760   3.577  12.117  0.0767 -0.5770 -0.4314
19510TIP3    H179945   6.748   3.495  12.166 -1.7305 -0.0233  0.1241
19510TIP3    H279946   6.726   3.558  12.030 -0.1227 -0.4873 -0.3731
19511TIP3   OH279947   3.094   3.683  10.341 -0.2443  0.1435  0.5253
19511TIP3    H179948   3.039   3.605  10.328 -0.9728  0.7254  0.0806
19511TIP3    H279949   3.055   3.727  10.416  0.9000 -0.5411  1.5443
19512TIP3   OH279950   3.937   3.436  12.046 -0.2583  0.1741 -0.8508
19512TIP3    H179951   4.014   3.489  12.023 -1.1606  1.7657 -0.3828
19512TIP3    H279952   3.962   3.392  12.127  0.2985  0.3509 -0.9177
19513TIP3   OH279953   5.901   5.828   2.820  0.3904  0.5875 -0.0718
19513TIP3    H179954   5.902   5.778   2.738  1.9061  0.7937 -0.2090
19513TIP3    H279955   5.907   5.761   2.888 -0.9542  0.4113 -0.1094
19514TIP3   OH279956   5.587   6.679  13.285 -0.0726  0.0757 -0.0693
19514TIP3    H179957   5.603   6.606  13.344 -1.3760 -0.9551 -0.9369
19514TIP3    H279958   5.625   6.651  13.201  1.4633  1.3769  0.1422
19515TIP3   OH279959   5.095   1.101   5.631  0.2561 -0.4256  0.1966
19515TIP3    H179960   5.034   1.127   5.700  0.9843 -1.3332  1.2209
19515TIP3    H279961   5.167   1.060   5.678  2.5482  2.1645 -0.8234
19516TIP3   OH279962   2.932   0.105   5.065  0.2937  0.2817  0.5355
19516TIP3    H179963   3.013   0.057   5.051  1.9718  3.0341  0.0400
19516TIP3    H279964   2.938   0.181   5.007 -1.7077  1.6336  1.9412
19517TIP3   OH279965   4.465   4.276  15.288  0.1984  0.2406  0.3747
19517TIP3    H179966   4.426   4.224  15.358 -0.9127  1.1368  0.4417
19517TIP3    H279967   4.559   4.275  15.307  0.0786 -0.8382  0.9729
19518TIP3   OH279968   2.315   2.297  14.087 -0.3832 -0.0976 -0.0277
19518TIP3    H179969   2.353   2.228  14.032 -1.9152 -0.0124 -1.2630
19518TIP3    H279970   2.354   2.378  14.054  0.1924 -0.2203  0.3424
19519TIP3   OH279971   3.700   4.601   3.367  0.0962 -0.3176 -0.5102
19519TIP3    H179972   3.747   4.523   3.395  0.7235  0.1811 -0.1567
19519TIP3    H279973   3.612   4.591   3.405  0.5906 -0.2062  0.6946
19520TIP3   OH279974   5.668   3.166  12.943 -0.1455  0.3864 -0.2750
19520TIP3    H179975   5.677   3.215  13.024 -0.9907  1.7367 -0.9594
19520TIP3    H279976   5.574   3.160  12.928 -0.2557 -3.2318  0.7715
19521TIP3   OH279977   2.037   4.685  11.542 -0.3397  0.2675 -0.2378
19521TIP3    H179978   1.975   4.620  11.508  0.0604  0.3412 -1.1438
19521TIP3    H279979   2.122   4.642  11.536 -0.3429 -0.0753  1.6082
19522TIP3   OH279980   4.258   4.155   0.928 -0.0026 -0.2208 -0.0572
19522TIP3    H179981   4.304   4.087   0.978 -1.1554 -2.2915 -1.6394
19522TIP3    H279982   4.165   4.133   0.938 -0.4066  1.0984 -0.6751
19523TIP3   OH279983   5.971   1.706   4.475 -0.0887 -0.2027 -0.0801
19523TIP3    H179984   5.927   1.748   4.549 -1.4319 -0.0638 -0.9145
19523TIP3    H279985   5.909   1.639   4.445  1.6229 -2.2344  0.6548
19524TIP3   OH279986   4.085   1.308  12.513 -0.1756 -0.1382 -0.3414
19524TIP3    H179987   4.172   1.275  12.490  0.5817  1.7914 -0.3777
19524TIP3    H279988   4.097   1.348  12.599 -1.4233 -1.2264  0.3802
19525TIP3   OH279989   0.363   3.643   1.697  0.0350 -0.2419  0.3963
19525TIP3    H179990   0.419   3.573   1.660 -0.9051  0.4375 -2.6074
19525TIP3    H279991   0.274   3.616   1.674 -0.4386  1.2862  0.3878
19526TIP3   OH279992   4.047   3.154  11.139 -0.1134  0.4070 -0.1458
19526TIP3    H179993   3.969   3.202  11.112 -0.5006  0.5407  1.1557
19526TIP3    H279994   4.119   3.215  11.128 -0.1591  0.2573 -1.4347
19527TIP3   OH279995   0.978   0.737   3.245  0.8561 -0.0531  0.2020
19527TIP3    H179996   1.025   0.810   3.286  0.2070  0.5044 -0.0315
19527TIP3    H279997   1.003   0.741   3.153 -2.1522  2.3748 -0.6950
19528TIP3   OH279998   6.741   3.380   5.257 -0.4046 -0.0843 -0.8159
19528TIP3    H179999   6.696   3.464   5.243  1.7966  0.9814 -2.0168
19528TIP3    H280000   6.700   3.343   5.335 -0.9383  2.4683  0.1953
19529TIP3   OH280001   0.725   0.653  16.467  0.2906 -0.2692  0.3551
19529TIP3    H180002   0.745   0.565  16.500  0.4626 -0.1583  0.5512
19529TIP3    H280003   0.637   0.645  16.430  0.3079 -0.5258  0.3662
19530TIP3   OH280004   4.116   2.603  11.781 -0.6648 -0.3142  0.3460
19530TIP3    H180005   4.044   2.610  11.718 -0.8172 -3.3587  0.0444
19530TIP3    H280006   4.181   2.665  11.749 -1.7489  0.0125 -1.3755
19531TIP3   OH280007   4.186   4.774   3.415  0.4082  0.2668  0.0545
19531TIP3    H180008   4.133   4.725   3.353 -1.0847  2.7699 -0.8027
19531TIP3    H280009   4.225   4.708   3.472 -1.3145 -1.8601 -1.1035
19532TIP3   OH280010   4.567   1.552  13.450  0.1316  0.3439 -0.2466
19532TIP3    H180011   4.593   1.528  13.361  0.9559 -2.2586  0.6249
19532TIP3    H280012   4.647   1.587  13.490 -0.2367  1.5069 -0.4784
19533TIP3   OH280013   1.802   5.625  16.361  0.4865  0.2103  0.5010
19533TIP3    H180014   1.736   5.557  16.347  1.4443 -0.9214  1.2423
19533TIP3    H280015   1.841   5.638  16.275 -0.8340  1.0625  0.0052
19534TIP3   OH280016   5.048   2.962   1.022  0.2539  0.6136 -0.3407
19534TIP3    H180017   5.067   3.048   1.059 -0.2829  1.0126 -0.9478
19534TIP3    H280018   4.965   2.975   0.976 -0.4301 -0.5292  0.5336
19535TIP3   OH280019   2.733   2.091   3.882  0.3284  0.1402 -0.5910
19535TIP3    H180020   2.668   2.122   3.818  1.0117  3.1317  0.0665
19535TIP3    H280021   2.777   2.019   3.836 -1.7920 -0.3993 -1.9630
19536TIP3   OH280022   4.500   1.387  15.547  0.2219  0.1216 -0.1984
19536TIP3    H180023   4.595   1.376  15.540  0.1114 -0.3069 -1.4233
19536TIP3    H280024   4.464   1.303  15.517 -0.5485  0.5365 -0.4617
19537TIP3   OH280025   3.592   5.842   6.826  0.0769  0.4554 -0.4811
19537TIP3    H180026   3.567   5.751   6.845 -1.3145  0.8781 -0.1521
19537TIP3    H280027   3.686   5.845   6.844 -0.0147 -0.7171  0.3431
19538TIP3   OH280028   5.311   5.918   4.392 -0.0334  0.7746  0.0691
19538TIP3    H180029   5.223   5.880   4.389  0.5119 -0.7285  1.5285
19538TIP3    H280030   5.340   5.919   4.301 -1.2461  0.5086 -0.3376
19539TIP3   OH280031   4.572   5.862   2.576  0.3008 -0.6292 -0.4773
19539TIP3    H180032   4.567   5.775   2.616 -0.3857 -0.9473 -1.2072
19539TIP3    H280033   4.663   5.871   2.548  0.0740 -1.7674 -1.7337
19540TIP3   OH280034   2.819   4.049  11.982  0.0236 -0.3507 -0.4947
19540TIP3    H180035   2.888   4.031  12.045  0.1682 -1.5861 -0.9902
19540TIP3    H280036   2.865   4.060  11.898 -0.1384  1.5539 -0.3752
19541TIP3   OH280037   5.440   4.292   5.221 -0.9390 -0.1223 -0.1780
19541TIP3    H180038   5.401   4.361   5.274 -0.5171 -0.4560  0.5978
19541TIP3    H280039   5.467   4.226   5.285 -1.7609 -1.2289 -0.9332
19542TIP3   OH280040   6.473   3.545   1.876 -0.2437 -0.2139 -0.0906
19542TIP3    H180041   6.379   3.526   1.873 -0.5096  1.1040 -0.9357
19542TIP3    H280042   6.507   3.508   1.794 -0.4462  1.2367 -0.8638
19543TIP3   OH280043   1.822   4.197  12.339 -0.0553  0.3152 -0.3914
19543TIP3    H180044   1.864   4.152  12.413  0.0839  0.9278 -0.0948
19543TIP3    H280045   1.854   4.287  12.344 -0.3079  0.4448 -1.0034
19544TIP3   OH280046   0.201   5.313  15.404 -0.0441 -0.6760  0.4689
19544TIP3    H180047   0.270   5.251  15.429  1.0853  0.3394 -0.0376
19544TIP3    H280048   0.238   5.399  15.422 -0.8226 -0.0719 -0.7061
19545TIP3   OH280049   3.914   3.304   5.489 -0.3404 -0.3323  0.5679
19545TIP3    H180050   3.855   3.258   5.550 -0.6389  0.0306  0.5553
19545TIP3    H280051   3.872   3.389   5.475  0.6363  0.2797  1.2605
19546TIP3   OH280052   3.808   5.845   3.326 -0.3887 -0.1334  0.5689
19546TIP3    H180053   3.833   5.937   3.339 -1.4213  0.3122 -0.4730
19546TIP3    H280054   3.830   5.803   3.409  1.6419  0.6941  0.4965
19547TIP3   OH280055   5.456   3.076  11.586  0.0629 -0.6081  0.2759
19547TIP3    H180056   5.420   3.055  11.499  0.7311 -1.1327  0.1134
19547TIP3    H280057   5.380   3.083  11.643 -0.4703  0.8217 -0.5661
19548TIP3   OH280058   4.451   4.187   2.451 -0.7730  0.3891  0.7613
19548TIP3    H180059   4.412   4.132   2.383 -0.4436 -0.4197  1.2108
19548TIP3    H280060   4.448   4.276   2.415 -1.0189  0.0338 -0.1179
19549TIP3   OH280061   0.478   0.697  17.324  0.3564 -0.5814  0.1464
19549TIP3    H180062   0.473   0.793  17.326  1.0500 -0.5321 -0.4282
19549TIP3    H280063   0.539   0.675  17.394  1.2231 -0.5215 -0.5742
19550TIP3   OH280064   2.486   5.152  14.331 -0.0955  0.8469 -0.5135
19550TIP3    H180065   2.441   5.230  14.363 -0.9179  0.3439 -0.4177
19550TIP3    H280066   2.418   5.101  14.286 -0.0815 -0.8139  1.1990
19551TIP3   OH280067   4.666   2.662  13.636  0.2726  0.0772  0.1053
19551TIP3    H180068   4.599   2.607  13.594  0.3246  0.0885  0.0062
19551TIP3    H280069   4.676   2.737  13.576 -0.1091  0.4128  0.4534
19552TIP3   OH280070   0.432   0.594  11.879  0.7976  0.5616 -0.2469
19552TIP3    H180071   0.427   0.636  11.793  2.0927  0.4364 -0.4045
19552TIP3    H280072   0.395   0.659  11.939  0.6164  0.9749 -0.7942
19553TIP3   OH280073   4.462   0.741   1.007  0.1252 -0.5132  0.2160
19553TIP3    H180074   4.514   0.797   1.065  2.0512 -1.3360 -0.6020
19553TIP3    H280075   4.508   0.746   0.923 -0.2465 -2.5042 -0.1457
19554TIP3   OH280076   4.046   0.355   0.355 -0.0234  0.0778  0.2281
19554TIP3    H180077   4.096   0.404   0.421  1.1643  0.4955 -0.9380
19554TIP3    H280078   4.092   0.271   0.347 -0.8939 -0.4697  0.8001
19555TIP3   OH280079   3.869   1.520   1.683 -0.6572  0.3483 -0.2700
19555TIP3    H180080   3.825   1.549   1.763  0.5096 -0.7247  0.7976
19555TIP3    H280081   3.818   1.445   1.653  1.3219 -2.0985  2.0042
19556TIP3   OH280082   3.638   3.857   3.024  0.2927  1.0357  0.5133
19556TIP3    H180083   3.637   3.944   2.983  0.5242  0.7328 -0.1484
19556TIP3    H280084   3.686   3.802   2.963 -0.7266  0.1906  0.4406
19557TIP3   OH280085   0.969   1.310   2.381 -0.4559 -0.3061  0.0474
19557TIP3    H180086   1.031   1.240   2.400 -1.7375 -1.7555 -0.8542
19557TIP3    H280087   0.976   1.370   2.455  0.7548 -1.3328  0.7948
19558TIP3   OH280088   2.507   5.146   2.406  0.9890  0.4383  0.3997
19558TIP3    H180089   2.421   5.120   2.439  1.2404  1.0068  1.5676
19558TIP3    H280090   2.563   5.071   2.426  0.6048 -0.3084 -1.1829
19559TIP3   OH280091   6.514   1.247  13.549  0.7696  0.1495 -0.1975
19559TIP3    H180092   6.484   1.168  13.504 -2.0965 -0.1326  1.9555
19559TIP3    H280093   6.506   1.226  13.642  1.6180  2.4142  0.4577
19560TIP3   OH280094   0.237   1.038  17.236  0.1733  0.2838 -0.6312
19560TIP3    H180095   0.173   1.107  17.216  1.2976  1.5175 -0.0945
19560TIP3    H280096   0.185   0.968  17.274 -1.0279  0.7564 -1.3454
19561TIP3   OH280097   3.233   3.732   4.436 -0.2918  0.7019 -0.5022
19561TIP3    H180098   3.221   3.681   4.356  1.4568  0.6653 -0.7625
19561TIP3    H280099   3.231   3.823   4.407  2.6072  0.6915 -1.0190
19562TIP3   OH280100   2.813   6.524   3.890 -0.1060 -0.6870  0.5722
19562TIP3    H180101   2.877   6.478   3.836  0.5585 -0.9829  1.5948
19562TIP3    H280102   2.736   6.466   3.889 -0.2449 -0.5077 -0.3490
19563TIP3   OH280103   3.766   6.552  15.654  0.4299  0.0423 -0.3544
19563TIP3    H180104   3.840   6.500  15.624 -0.8816 -1.4519 -1.1074
19563TIP3    H280105   3.706   6.489  15.694 -0.5654  1.1740  0.0103
19564TIP3   OH280106   0.402   0.904   0.810  0.2824 -0.3592  0.5348
19564TIP3    H180107   0.360   0.843   0.749  1.5073 -0.5504 -0.1552
19564TIP3    H280108   0.467   0.949   0.757  1.2776 -0.4183  1.6715
19565TIP3   OH280109   4.534   0.716  13.387  0.0604 -0.4882 -0.5166
19565TIP3    H180110   4.464   0.650  13.392  0.0271 -0.5076 -1.1150
19565TIP3    H280111   4.615   0.665  13.394  0.0232 -0.3793  1.0698
19566TIP3   OH280112   4.135   6.127  16.513 -0.4450 -0.2459 -0.0370
19566TIP3    H180113   4.115   6.091  16.426 -2.0889 -0.0510  0.2325
19566TIP3    H280114   4.080   6.076  16.573  0.4376 -0.1651  0.8664
19567TIP3   OH280115   5.735   1.529   3.345 -0.2273  0.2524 -0.0399
19567TIP3    H180116   5.773   1.533   3.432 -0.2399  0.1389 -0.0294
19567TIP3    H280117   5.699   1.617   3.330  1.8421  1.0166 -0.8726
19568TIP3   OH280118   3.363   2.568  12.387 -0.1496 -0.1038  0.2027
19568TIP3    H180119   3.415   2.512  12.328  0.8055 -1.5204  2.2633
19568TIP3    H280120   3.286   2.516  12.406 -1.7265  1.3903 -1.6628
19569TIP3   OH280121   6.726   2.951  17.156  0.1969 -0.4203  0.4989
19569TIP3    H180122   6.757   2.996  17.235  3.1392 -0.2376 -0.6493
19569TIP3    H280123   6.701   2.864  17.187  1.0328 -0.2576  1.6997
19570TIP3   OH280124   1.890   6.131  11.155  0.0543  0.0217  0.8909
19570TIP3    H180125   1.821   6.073  11.187  2.1748 -3.0413  0.3915
19570TIP3    H280126   1.866   6.149  11.065  0.0784 -1.4345  0.5611
19571TIP3   OH280127   1.311   2.764   0.551  1.0894 -0.1300  0.5385
19571TIP3    H180128   1.375   2.702   0.586  0.4867  0.0717  2.0665
19571TIP3    H280129   1.307   2.834   0.617  1.4975  1.3824 -0.9721
19572TIP3   OH280130   6.691   1.870  15.961 -0.0445  0.3032 -0.3638
19572TIP3    H180131   6.611   1.923  15.967 -1.2906 -1.4045 -1.0444
19572TIP3    H280132   6.676   1.814  15.885 -0.1918 -3.1715  2.0429
19573TIP3   OH280133   3.719   0.580   4.516  0.4970 -0.2956 -0.5108
19573TIP3    H180134   3.678   0.546   4.596 -0.5637  0.0594 -0.8955
19573TIP3    H280135   3.672   0.537   4.445 -0.4185  1.4338 -0.9958
19574TIP3   OH280136   3.589   5.246   3.418 -1.2363  0.2280 -0.6448
19574TIP3    H180137   3.648   5.211   3.485 -2.4895 -0.2929  0.2076
19574TIP3    H280138   3.626   5.332   3.396  0.1208 -0.2905 -0.5146
19575TIP3   OH280139   2.769   5.610  11.534 -0.4273  0.4052  0.0818
19575TIP3    H180140   2.732   5.607  11.622 -0.7628 -1.3385 -0.0789
19575TIP3    H280141   2.861   5.633  11.547 -0.1729 -1.0291  1.0186
19576TIP3   OH280142   2.883   0.470   0.091  0.4677  0.9456  0.4405
19576TIP3    H180143   2.946   0.466   0.163  1.5404 -0.0544 -0.5116
19576TIP3    H280144   2.936   0.464   0.012 -0.6032  2.8558 -0.5030
19577TIP3   OH280145   1.769   4.465   3.374 -0.3162 -0.5951  0.2212
19577TIP3    H180146   1.756   4.528   3.444  1.0482 -0.8219  0.7108
19577TIP3    H280147   1.683   4.459   3.331 -1.0663 -0.1480  1.5930
19578TIP3   OH280148   5.303   3.558   2.481  0.0645 -0.1439 -0.3756
19578TIP3    H180149   5.282   3.646   2.450  1.8735  1.4885  2.5095
19578TIP3    H280150   5.219   3.521   2.509 -0.5702  1.2393 -0.3702
19579TIP3   OH280151   4.859   3.264  13.338 -0.7156 -0.1551  0.0131
19579TIP3    H180152   4.831   3.249  13.248  0.2284  1.1992 -0.5402
19579TIP3    H280153   4.833   3.185  13.385  0.3376 -1.6564 -1.8140
19580TIP3   OH280154   5.053   1.866  15.990 -0.4198 -0.6205  0.1774
19580TIP3    H180155   5.010   1.784  16.014  1.2199 -1.2382  1.1469
19580TIP3    H280156   5.097   1.847  15.907 -0.8719 -0.3981 -0.1187
19581TIP3   OH280157   5.158   5.091  13.978  0.0843  0.4631 -0.0377
19581TIP3    H180158   5.189   5.022  13.919 -0.6413  0.1432 -0.0589
19581TIP3    H280159   5.129   5.161  13.920  0.8827  0.8174 -0.0152
19582TIP3   OH280160   5.396   0.483  16.653  0.3446 -0.3588 -0.0530
19582TIP3    H180161   5.351   0.503  16.571 -0.3326  1.0209  0.6204
19582TIP3    H280162   5.478   0.533  16.648 -0.8336  1.8246  1.1441
19583TIP3   OH280163   5.389   6.208   4.348 -0.0281  0.2935 -0.2879
19583TIP3    H180164   5.325   6.227   4.416  0.0204 -1.1509  0.1914
19583TIP3    H280165   5.392   6.112   4.343  2.1501  0.2887 -0.2009
19584TIP3   OH280166   3.827   5.866  13.896  0.6495 -0.0476  0.0746
19584TIP3    H180167   3.892   5.934  13.882  1.3077 -0.6371  0.1839
19584TIP3    H280168   3.843   5.836  13.986 -1.8628  1.9673  1.3057
19585TIP3   OH280169   6.010   2.578  16.057  0.2009  0.3282  0.0753
19585TIP3    H180170   5.940   2.513  16.053  0.1009  0.4508 -0.2283
19585TIP3    H280171   5.985   2.637  16.128  0.2840  0.0438  0.3391
19586TIP3   OH280172   5.725   0.393   5.741 -0.3596 -0.9382  0.0006
19586TIP3    H180173   5.776   0.369   5.663 -0.1941 -1.3780  0.2401
19586TIP3    H280174   5.763   0.476   5.769 -0.8276 -0.4594 -0.7445
19587TIP3   OH280175   4.632   3.895   5.275  0.6425  0.3475 -0.2153
19587TIP3    H180176   4.596   3.807   5.268 -0.7414  0.8596  0.1840
19587TIP3    H280177   4.640   3.910   5.370 -1.5121  1.5471 -0.1700
19588TIP3   OH280178   6.416   2.434  13.437  0.1582 -0.2753  0.4346
19588TIP3    H180179   6.395   2.347  13.404  1.3940 -1.0582  1.6010
19588TIP3    H280180   6.456   2.479  13.363 -0.8693 -0.5330 -0.3014
19589TIP3   OH280181   5.895   0.273   1.844  0.0215  0.6647  0.0220
19589TIP3    H180182   5.892   0.203   1.910 -0.3418 -0.1732 -0.8655
19589TIP3    H280183   5.822   0.254   1.785  1.3605  0.3967 -1.6088
19590TIP3   OH280184   3.715   2.040  14.821  0.0694 -0.5811  0.1329
19590TIP3    H180185   3.792   2.084  14.857  0.9211 -2.7044  1.0570
19590TIP3    H280186   3.658   2.112  14.793  2.4343  1.0593 -0.7783
19591TIP3   OH280187   2.422   4.247  11.955 -0.0582 -0.4300  0.1515
19591TIP3    H180188   2.438   4.330  11.912 -2.0418  0.0526  0.2288
19591TIP3    H280189   2.446   4.181  11.890  0.4134  0.2129 -0.3378
19592TIP3   OH280190   5.935   6.498   6.161 -0.0786 -0.4113  0.5455
19592TIP3    H180191   6.021   6.470   6.194 -0.1736  0.4280  1.5473
19592TIP3    H280192   5.881   6.419   6.165  0.9477 -1.2702 -1.2603
19593TIP3   OH280193   1.235   1.105   2.147  0.1911  0.4530 -0.6899
19593TIP3    H180194   1.205   1.104   2.238  0.3116 -1.5004 -0.6264
19593TIP3    H280195   1.265   1.195   2.132 -0.5375  1.0015  0.9550
19594TIP3   OH280196   2.658   1.891   2.655 -0.1230 -0.3461 -0.6012
19594TIP3    H180197   2.599   1.837   2.602  1.5076 -1.6852 -1.1574
19594TIP3    H280198   2.727   1.919   2.595 -0.0403  0.9877  0.0744
19595TIP3   OH280199   2.563   0.184  14.676  0.0570 -0.3103 -0.6815
19595TIP3    H180200   2.539   0.196  14.768  1.9061 -1.0218 -0.0648
19595TIP3    H280201   2.578   0.273  14.644 -1.7900  0.0363 -0.6726
19596TIP3   OH280202   1.679   2.973  14.321  0.7801  0.7655  0.4398
19596TIP3    H180203   1.760   2.923  14.316 -0.3350 -1.0504 -1.4606
19596TIP3    H280204   1.640   2.963  14.234 -2.2234  0.1834  1.7243
19597TIP3   OH280205   0.592   3.129  15.412 -0.2552  0.1645  0.5845
19597TIP3    H180206   0.515   3.181  15.434 -0.6968 -0.2815  0.1136
19597TIP3    H280207   0.557   3.053  15.366  0.4498 -0.1557  0.5705
19598TIP3   OH280208   1.208   0.444  13.513 -0.4018 -0.9847  0.0585
19598TIP3    H180209   1.249   0.521  13.473  0.8801 -1.6558  0.0264
19598TIP3    H280210   1.114   0.459  13.501 -0.1413 -0.0840 -1.1751
19599TIP3   OH280211   0.291   2.712   0.096 -0.0140  0.3139 -0.0331
19599TIP3    H180212   0.317   2.804   0.090 -0.7898  0.4701 -1.3798
19599TIP3    H280213   0.323   2.684   0.182 -2.4268  2.6830  1.7969
19600TIP3   OH280214   1.394   6.253  16.821 -0.4664 -0.1116  0.0273
19600TIP3    H180215   1.330   6.191  16.786 -1.0291  0.2241  0.4422
19600TIP3    H280216   1.357   6.339  16.803  0.8878  0.1749 -1.6435
19601TIP3   OH280217   6.714   2.372   2.445  0.2947 -0.7801  0.6842
19601TIP3    H180218   6.723   2.277   2.434 -0.9985 -1.0477  1.6637
19601TIP3    H280219   6.681   2.383   2.534 -3.1865  0.2894 -0.5532
19602TIP3   OH280220   3.174   1.165  16.926  0.1293  0.4764  0.0303
19602TIP3    H180221   3.221   1.086  16.952  1.0696  0.5185 -1.4101
19602TIP3    H280222   3.194   1.228  16.995  0.0827 -0.2743  0.7515
19603TIP3   OH280223   4.415   6.267   0.461  0.1247  0.1098  0.0147
19603TIP3    H180224   4.323   6.242   0.470  0.4937 -1.4260 -0.0848
19603TIP3    H280225   4.440   6.301   0.547 -0.4617  0.2373  0.1355
19604TIP3   OH280226   5.733   1.994  14.781 -0.3828  0.3178  1.1634
19604TIP3    H180227   5.648   1.953  14.799  0.8301 -1.7755  2.5314
19604TIP3    H280228   5.797   1.936  14.821  1.7512  1.7652  0.0657
19605TIP3   OH280229   4.281   3.814   0.776 -0.3922 -0.2885  0.6394
19605TIP3    H180230   4.375   3.803   0.785 -0.2255  0.8966  0.4760
19605TIP3    H280231   4.270   3.902   0.739 -1.4965 -1.0571 -0.9714
19606TIP3   OH280232   1.641   4.808   0.417 -0.2456 -0.3473  0.0138
19606TIP3    H180233   1.557   4.803   0.371  0.4397  0.0491 -1.3436
19606TIP3    H280234   1.688   4.880   0.374  1.1539 -1.1619  0.0906
19607TIP3   OH280235   6.744   6.521   3.237  0.8431  0.8182 -0.3676
19607TIP3    H180236   6.821   6.548   3.187  1.9052  1.5397  1.5488
19607TIP3    H280237   6.780   6.481   3.316 -0.7711 -0.8462 -0.4107
19608TIP3   OH280238   4.418   5.870   3.093 -0.2098  0.2298  0.7467
19608TIP3    H180239   4.360   5.866   3.017  2.3890 -1.3668 -1.3361
19608TIP3    H280240   4.405   5.786   3.137 -0.4301  0.4257  1.0610
19609TIP3   OH280241   2.856   5.151   5.476  0.7086  0.1130  0.0859
19609TIP3    H180242   2.912   5.162   5.400  2.1372  0.8609  1.1946
19609TIP3    H280243   2.913   5.112   5.542 -0.2883  0.1991  1.0319
19610TIP3   OH280244   1.950   4.702   3.300 -0.4328 -0.6140  0.1755
19610TIP3    H180245   1.999   4.781   3.325  1.6365 -2.0761  1.0298
19610TIP3    H280246   1.861   4.733   3.286  0.4712  2.0148 -0.3539
19611TIP3   OH280247   6.301   0.868  14.076 -0.1231 -0.0243  0.5059
19611TIP3    H180248   6.350   0.926  14.018  2.5529  0.4910  3.0191
19611TIP3    H280249   6.341   0.782  14.063 -0.6959 -0.2775  0.3767
19612TIP3   OH280250   5.852   1.807   4.082 -0.2823  0.3204 -0.2407
19612TIP3    H180251   5.905   1.772   4.153 -1.0569 -2.2120 -0.8167
19612TIP3    H280252   5.826   1.730   4.031 -2.8403  1.6594 -1.1277
19613TIP3   OH280253   2.900   5.405   5.765  0.1325 -0.3296  0.4464
19613TIP3    H180254   2.922   5.495   5.791 -0.2254 -0.3554  0.8638
19613TIP3    H280255   2.807   5.409   5.743  0.2602 -0.4722 -0.1254
19614TIP3   OH280256   5.618   6.496   2.049 -0.0850  0.2641 -0.3385
19614TIP3    H180257   5.705   6.464   2.073  0.4457  0.5342 -1.7739
19614TIP3    H280258   5.635   6.572   1.993 -1.2994  2.6152  2.2494
19615TIP3   OH280259   2.350   1.149  11.630  0.4233  0.5327 -0.3307
19615TIP3    H180260   2.399   1.215  11.678 -0.3220  0.1582  1.0002
19615TIP3    H280261   2.272   1.195  11.600 -0.4787  0.1360  1.2587
19616TIP3   OH280262   1.680   1.807   4.023  0.1737  0.1845  0.0804
19616TIP3    H180263   1.636   1.790   3.939  1.7955  2.4802 -1.3768
19616TIP3    H280264   1.612   1.794   4.089 -1.3159 -1.1984 -1.6276
19617TIP3   OH280265   3.484   5.698   2.521  0.0507  0.1737  0.0480
19617TIP3    H180266   3.456   5.781   2.483  0.4048  0.7412  0.9964
19617TIP3    H280267   3.426   5.633   2.481 -2.3730  1.2295  1.5846
19618TIP3   OH280268   3.213   0.762   3.493 -0.5218  0.2451 -0.1784
19618TIP3    H180269   3.167   0.778   3.411 -0.6041 -0.6883 -0.3215
19618TIP3    H280270   3.294   0.812   3.485  0.3734 -1.3301 -1.6496
19619TIP3   OH280271   2.633   3.864   0.275 -0.0648 -0.4644  0.0765
19619TIP3    H180272   2.602   3.773   0.275 -2.6860  0.3067  1.7335
19619TIP3    H280273   2.593   3.903   0.197 -1.5757 -0.0436  1.0039
19620TIP3   OH280274   3.648   3.810   2.564 -0.4878 -0.0288  0.0374
19620TIP3    H180275   3.694   3.783   2.485 -0.1735  0.1501  0.1606
19620TIP3    H280276   3.555   3.808   2.540 -0.4003 -0.1254 -0.2879
19621TIP3   OH280277   0.612   3.266  12.716  0.7559  0.0470  0.1478
19621TIP3    H180278   0.634   3.353  12.683  1.0365 -0.1005 -0.0591
19621TIP3    H280279   0.518   3.269  12.731  0.5454 -0.0019 -1.0498
19622TIP3   OH280280   5.780   3.610  13.202  0.3187  0.0957 -0.4509
19622TIP3    H180281   5.781   3.686  13.261  1.1216  1.2454 -1.8783
19622TIP3    H280282   5.691   3.575  13.211 -0.6263  2.1917 -0.9520
19623TIP3   OH280283   3.893   5.756  10.810  0.2355  0.5870 -0.1184
19623TIP3    H180284   3.941   5.757  10.728  0.0752  1.5451 -0.2161
19623TIP3    H280285   3.892   5.664  10.837  1.0882  0.3927 -0.7127
19624TIP3   OH280286   0.190   5.149   2.759  0.1222 -0.0628 -0.4472
19624TIP3    H180287   0.146   5.184   2.837  3.1905  2.5017  0.3111
19624TIP3    H280288   0.158   5.203   2.687 -2.3134 -2.1001 -1.0595
19625TIP3   OH280289   2.960   6.370   4.836  0.1649 -0.3103 -0.0246
19625TIP3    H180290   2.996   6.283   4.816  0.9463 -0.4773  1.9023
19625TIP3    H280291   3.034   6.429   4.830  0.3995 -0.3384  1.9783
19626TIP3   OH280292   0.390   0.211   4.257  0.4346  0.2001  0.0394
19626TIP3    H180293   0.424   0.121   4.252  0.6539  0.2940 -0.2203
19626TIP3    H280294   0.309   0.204   4.308  1.7542  0.2178  2.2987
19627TIP3   OH280295   2.711   6.611   4.134  0.0279  0.3605  0.5240
19627TIP3    H180296   2.761   6.587   4.056 -2.0335 -3.2787  0.1189
19627TIP3    H280297   2.643   6.670   4.103  0.5403  0.7058  0.0317
19628TIP3   OH280298   0.404   0.234   4.680  0.2729 -0.5503  0.2605
19628TIP3    H180299   0.381   0.256   4.771  1.7023 -0.3343  0.5948
19628TIP3    H280300   0.361   0.150   4.664 -3.9730  1.5089 -0.4920
19629TIP3   OH280301   2.364   6.338   2.692 -0.2467 -0.0381 -0.7294
19629TIP3    H180302   2.373   6.380   2.778  0.2938 -0.2060 -0.7006
19629TIP3    H280303   2.333   6.249   2.713  1.5664 -0.6716 -0.5713
19630TIP3   OH280304   3.742   4.399   2.599  0.5493 -0.1912 -0.4592
19630TIP3    H180305   3.777   4.415   2.512 -0.1273 -1.7906 -1.0668
19630TIP3    H280306   3.667   4.342   2.585 -0.7836  1.1078  1.0313
19631TIP3   OH280307   6.369   4.845  13.672 -0.0319 -0.3872  0.2971
19631TIP3    H180308   6.342   4.922  13.720 -1.2356 -1.7094  1.8614
19631TIP3    H280309   6.431   4.800  13.729  2.7577  0.6538 -1.6744
19632TIP3   OH280310   3.582   3.339  13.033  0.1207 -0.3200 -0.0307
19632TIP3    H180311   3.591   3.395  12.955 -0.7358 -0.9824 -0.6162
19632TIP3    H280312   3.653   3.276  13.025  0.0405 -0.3806 -0.2664
19633TIP3   OH280313   1.781   5.349  13.086 -0.2563  0.1484 -0.5260
19633TIP3    H180314   1.844   5.304  13.142  0.8337  2.0647 -0.1362
19633TIP3    H280315   1.771   5.290  13.011  0.2952 -1.2183  0.4264
19634TIP3   OH280316   2.528   0.554   4.474 -0.3973  0.3692  0.1790
19634TIP3    H180317   2.502   0.574   4.564 -1.2809  0.8837 -0.1816
19634TIP3    H280318   2.479   0.617   4.421  1.4600  1.2868 -0.5524
19635TIP3   OH280319   5.672   3.006   4.319  0.0884 -0.7599  0.3473
19635TIP3    H180320   5.595   2.960   4.353 -0.5871  0.5851  0.7002
19635TIP3    H280321   5.643   3.045   4.237  0.2934 -0.0300  0.6101
19636TIP3   OH280322   6.534   2.626  16.773  0.2494 -0.0272 -0.1690
19636TIP3    H180323   6.566   2.545  16.733  1.1219  0.9422 -1.5566
19636TIP3    H280324   6.593   2.641  16.847  0.4916 -0.3275 -0.2973
19637TIP3   OH280325   4.122   1.112  15.860  0.2673  1.0271 -0.5756
19637TIP3    H180326   4.057   1.180  15.879 -0.2506  0.2135  0.6274
19637TIP3    H280327   4.146   1.077  15.945 -0.7034 -1.4463 -1.2491
19638TIP3   OH280328   4.970   1.532  12.625  0.1769 -0.2732 -0.0197
19638TIP3    H180329   4.903   1.493  12.680 -0.5700 -0.3830 -0.9790
19638TIP3    H280330   4.977   1.474  12.549  2.0952 -0.8300  0.5132
19639TIP3   OH280331   0.452   3.652   3.502 -0.5569  0.4427 -0.2773
19639TIP3    H180332   0.547   3.658   3.499 -0.5763  1.4601  0.7312
19639TIP3    H280333   0.424   3.677   3.414  0.0572  1.4013 -0.2141
19640TIP3   OH280334   3.543   3.731  16.151  0.2408 -0.0063 -0.3431
19640TIP3    H180335   3.594   3.665  16.198 -0.4751 -0.3620 -0.0445
19640TIP3    H280336   3.504   3.786  16.219  0.6972  0.6257 -0.5877
19641TIP3   OH280337   0.646   6.669   1.270  0.4268 -0.1205  0.1384
19641TIP3    H180338   0.592   6.734   1.314 -0.6421  0.4362 -1.8610
19641TIP3    H280339   0.589   6.593   1.259  1.1975 -0.8707  1.1245
19642TIP3   OH280340   0.633   5.985   2.253 -0.1913  0.1357 -0.3649
19642TIP3    H180341   0.567   6.019   2.313 -1.2854  1.5511 -2.2969
19642TIP3    H280342   0.584   5.949   2.180  1.1318 -1.0513 -0.7247
19643TIP3   OH280343   1.601   5.119   1.384  0.0260 -1.0684  0.3641
19643TIP3    H180344   1.564   5.053   1.443 -1.3849 -0.3072  0.3843
19643TIP3    H280345   1.595   5.201   1.433  1.5017 -0.8578  0.2320
19644TIP3   OH280346   1.170   1.461  16.307  0.4687 -0.6487  1.0140
19644TIP3    H180347   1.211   1.393  16.360  2.8594  0.2726  0.4645
19644TIP3    H280348   1.212   1.454  16.222 -0.9856 -0.0163  0.2114
19645TIP3   OH280349   1.573   4.807   2.141 -0.1827  0.1930  0.2512
19645TIP3    H180350   1.633   4.843   2.075  2.7714 -0.4272  2.3561
19645TIP3    H280351   1.518   4.881   2.167  0.6294  1.2095 -0.8134
19646TIP3   OH280352   1.152   6.752   1.161  0.6854 -0.2679  0.7254
19646TIP3    H180353   1.084   6.804   1.204  1.3387 -0.0355  1.4930
19646TIP3    H280354   1.111   6.667   1.145 -0.0951  0.1776  0.2992
19647TIP3   OH280355   5.829   0.413  11.089  0.1625 -0.2238  0.2845
19647TIP3    H180356   5.820   0.329  11.043  1.6587 -0.7097  0.8167
19647TIP3    H280357   5.847   0.477  11.020  1.2945 -0.7602  0.0563
19648TIP3   OH280358   2.447   0.255   1.623 -0.1410 -0.0486  0.4862
19648TIP3    H180359   2.387   0.199   1.573  0.7116 -0.6137  0.0826
19648TIP3    H280360   2.447   0.216   1.711  0.8841 -1.0693  0.0669
19649TIP3   OH280361   5.971   3.063  16.832 -0.0487  0.3972  0.0606
19649TIP3    H180362   6.008   3.018  16.757 -2.6151  0.6353 -1.4892
19649TIP3    H280363   5.976   3.156  16.810  1.4667  0.6822  1.3887
19650TIP3   OH280364   3.781   1.028   2.834  0.0709 -0.4048 -0.3649
19650TIP3    H180365   3.716   1.069   2.778  1.7357  1.4974 -1.0222
19650TIP3    H280366   3.742   1.028   2.922 -1.3717 -0.7152 -0.9797
19651TIP3   OH280367   6.742   4.049  12.319 -0.2696  0.1037 -0.8930
19651TIP3    H180368   6.757   3.961  12.352 -0.9419  0.5256  0.6160
19651TIP3    H280369   6.718   4.101  12.396 -1.3731  1.2707 -1.9560
19652TIP3   OH280370   4.563   6.392   4.826  0.1335  0.4945  0.1308
19652TIP3    H180371   4.515   6.392   4.909 -0.8894 -1.0723 -0.4164
19652TIP3    H280372   4.494   6.395   4.759  0.7445 -1.8033 -0.6780
19653TIP3   OH280373   0.524   4.125   1.953 -0.3749 -0.1754 -0.0672
19653TIP3    H180374   0.497   4.213   1.978 -1.0410  0.1307 -1.7507
19653TIP3    H280375   0.448   4.088   1.909  0.4411 -0.9970 -0.8240
19654TIP3   OH280376   5.196   4.486   4.951 -0.0964 -0.1422 -0.3401
19654TIP3    H180377   5.164   4.473   4.862  0.0112 -0.3492 -0.3483
19654TIP3    H280378   5.281   4.442   4.953  0.3445  0.6732 -0.4157
19655TIP3   OH280379   4.831   0.816  10.999  0.4737  0.3870 -0.2446
19655TIP3    H180380   4.912   0.766  10.987 -0.3988 -0.6869 -2.0573
19655TIP3    H280381   4.860   0.901  11.030  2.2393 -0.2074 -0.1185
19656TIP3   OH280382   0.495   5.196   1.519 -0.0456 -0.1193 -0.4660
19656TIP3    H180383   0.473   5.111   1.481  0.6240 -0.8431  0.7062
19656TIP3    H280384   0.419   5.251   1.498  0.1050 -0.5768 -2.4313
19657TIP3   OH280385   6.040   5.914  11.655 -0.0284  0.2074 -0.6051
19657TIP3    H180386   6.101   5.881  11.589  0.6565 -2.0008  1.0385
19657TIP3    H280387   5.956   5.921  11.608  0.3462 -1.6687 -1.6336
19658TIP3   OH280388   3.537   5.531  12.333  0.3288  0.1566  0.3768
19658TIP3    H180389   3.629   5.506  12.338  1.2691  3.0385 -0.8067
19658TIP3    H280390   3.503   5.482  12.258  0.9092 -0.8075  0.7216
19659TIP3   OH280391   5.456   1.192   5.031 -0.1354  0.3452 -0.3815
19659TIP3    H180392   5.492   1.206   4.944 -0.0054 -0.8024 -0.5295
19659TIP3    H280393   5.397   1.117   5.021  1.3977 -1.1093  0.8836
19660TIP3   OH280394   6.156   4.056   0.399 -0.3146 -0.4014 -0.5454
19660TIP3    H180395   6.169   4.129   0.460  0.0014 -0.9350  0.0455
19660TIP3    H280396   6.151   4.096   0.313  0.6857  0.2465 -0.3085
19661TIP3   OH280397   3.239   3.993   4.372 -0.0316  0.7069 -0.0836
19661TIP3    H180398   3.236   4.019   4.280 -1.5676  0.8885 -0.0134
19661TIP3    H280399   3.161   4.034   4.411 -0.0283 -0.3040  1.0365
19662TIP3   OH280400   1.331   2.656  16.156 -1.0667 -0.2332 -0.5295
19662TIP3    H180401   1.361   2.742  16.184 -1.6397  0.0840 -0.8790
19662TIP3    H280402   1.240   2.669  16.130 -0.5504 -0.4879 -2.6238
19663TIP3   OH280403   1.377   4.962  16.075  0.2489  0.7278 -0.2256
19663TIP3    H180404   1.305   4.903  16.096  1.5357 -0.0843  2.2704
19663TIP3    H280405   1.335   5.046  16.057 -1.4261 -0.2541 -1.1284
19664TIP3   OH280406   2.164   1.250  12.728 -0.0318  0.1700 -0.5103
19664TIP3    H180407   2.229   1.304  12.772 -2.1120  0.1239  2.9487
19664TIP3    H280408   2.183   1.161  12.757 -0.1759 -0.2009 -1.5022
19665TIP3   OH280409   6.238   5.210   1.293  0.1139 -0.2754 -0.9862
19665TIP3    H180410   6.164   5.199   1.353  0.3847  0.8097 -0.4161
19665TIP3    H280411   6.210   5.166   1.212 -2.7760  3.1101 -2.1159
19666TIP3   OH280412   1.502   3.850  16.499  0.3249 -0.5071  0.1153
19666TIP3    H180413   1.502   3.941  16.470 -0.0046 -0.3989  0.4488
19666TIP3    H280414   1.455   3.851  16.582 -0.2996 -1.0922 -0.2201
19667TIP3   OH280415   0.275   1.864  17.126 -0.2329  0.5810  0.0841
19667TIP3    H180416   0.353   1.911  17.155 -0.5505  0.5451  1.0185
19667TIP3    H280417   0.254   1.805  17.198 -0.1197 -0.6665 -0.8685
19668TIP3   OH280418   5.558   5.975  16.304 -0.2518 -0.0014  0.6587
19668TIP3    H180419   5.643   6.010  16.332 -1.2220  0.5667  3.1433
19668TIP3    H280420   5.526   6.038  16.240  0.7066  0.3533  0.5063
19669TIP3   OH280421   6.352   2.990  16.241  0.1702 -0.3496 -0.2424
19669TIP3    H180422   6.270   3.037  16.250 -1.2968 -2.4883 -1.5628
19669TIP3    H280423   6.412   3.054  16.202 -0.7481  1.3202  0.9963
19670TIP3   OH280424   5.939   5.245   2.292 -0.0719 -0.3931 -0.1347
19670TIP3    H180425   5.873   5.308   2.321  0.3306  0.2526 -0.5902
19670TIP3    H280426   5.987   5.221   2.371 -0.3673 -0.3028  0.0747
19671TIP3   OH280427   4.157   4.125   2.659 -0.9054 -0.0931  0.1683
19671TIP3    H180428   4.127   4.141   2.749 -2.1449 -2.7182  0.3049
19671TIP3    H280429   4.224   4.058   2.667 -0.5236  0.1465 -0.8273
19672TIP3   OH280430   3.634   6.478  13.474  0.2360 -0.1019 -0.4222
19672TIP3    H180431   3.675   6.398  13.441 -1.7669 -0.1967 -3.0135
19672TIP3    H280432   3.551   6.450  13.512  0.9315  0.4562  1.6213
19673TIP3   OH280433   3.336   1.670  14.452 -0.1890  0.4229  0.1967
19673TIP3    H180434   3.363   1.590  14.498  0.5220 -0.2465 -1.3342
19673TIP3    H280435   3.256   1.645  14.405 -1.9523  1.5896  2.3503
19674TIP3   OH280436   2.926   2.042  13.816  0.1778  0.0118 -0.1302
19674TIP3    H180437   2.882   2.077  13.739  0.5818 -0.3067 -0.5127
19674TIP3    H280438   2.864   1.978  13.852  0.0829 -0.0086 -0.3285
19675TIP3   OH280439   6.109   6.294  14.832 -0.1471 -0.6014 -0.1300
19675TIP3    H180440   6.098   6.221  14.770 -1.9000  0.6488 -1.3802
19675TIP3    H280441   6.204   6.299  14.845  0.1405 -2.0199 -1.3560
19676TIP3   OH280442   1.030   4.032  13.260  0.0440 -0.6058 -0.2330
19676TIP3    H180443   1.028   4.030  13.356  0.6414 -3.4064 -0.1786
19676TIP3    H280444   0.937   4.028  13.235 -0.1538  0.8948  0.1842
19677TIP3   OH280445   0.276   0.125  16.311 -0.1830 -0.2044 -0.0339
19677TIP3    H180446   0.228   0.080  16.241  0.2777 -0.9704  0.1272
19677TIP3    H280447   0.327   0.192  16.266  0.3593 -0.9058 -0.4885
19678TIP3   OH280448   2.384   6.255   5.654  0.1663 -0.0357  0.7095
19678TIP3    H180449   2.430   6.190   5.707  2.7955  0.0578 -1.2550
19678TIP3    H280450   2.357   6.208   5.575  0.7661  0.8891 -0.0742
19679TIP3   OH280451   1.301   4.230   0.037  0.2310  0.3297  0.4429
19679TIP3    H180452   1.221   4.240  -0.014 -0.3907 -1.7081  0.9468
19679TIP3    H280453   1.336   4.319   0.045 -1.5694  1.1506 -0.4287
19680TIP3   OH280454   3.715   3.049  10.932 -0.1599 -0.3278  0.1456
19680TIP3    H180455   3.757   2.969  10.901 -1.1592 -0.1093 -1.9485
19680TIP3    H280456   3.652   3.071  10.864 -0.6914  1.6543  1.1931
19681TIP3   OH280457   4.152   0.095   0.429 -0.1679 -0.3283 -0.8117
19681TIP3    H180458   4.148   0.099   0.524 -1.6308  2.1043 -0.8994
19681TIP3    H280459   4.246   0.093   0.409  0.2829  2.1603  0.6637
19682TIP3   OH280460   2.445   4.878  17.132  0.0738  0.6424 -0.1955
19682TIP3    H180461   2.465   4.882  17.039  0.3831  0.2262 -0.1473
19682TIP3    H280462   2.528   4.856  17.174 -0.1303  0.5189  0.1540
19683TIP3   OH280463   5.918   2.063  15.173 -0.8527 -0.4570 -0.2229
19683TIP3    H180464   5.879   2.045  15.259 -3.0098  0.7961 -0.8512
19683TIP3    H280465   5.911   2.158  15.164  0.0865 -0.4920 -1.4536
19684TIP3   OH280466   4.392   4.590   5.182  0.2705 -0.1920  0.2025
19684TIP3    H180467   4.319   4.642   5.149  0.5188  1.1200  1.6158
19684TIP3    H280468   4.374   4.578   5.275  0.6043 -2.0458  0.0661
19685TIP3   OH280469   0.044   5.098  11.244 -0.6920  0.0429  0.3386
19685TIP3    H180470  -0.031   5.056  11.286 -1.2758  1.2904  0.5761
19685TIP3    H280471   0.034   5.191  11.264  0.0362  0.4284 -1.0054
19686TIP3   OH280472   2.234   4.130  12.358  0.1339 -0.0613 -0.0913
19686TIP3    H180473   2.213   4.059  12.298 -0.9316  2.1465 -2.5705
19686TIP3    H280474   2.226   4.091  12.445 -0.6534 -2.8694 -1.2984
19687TIP3   OH280475   2.126   5.837   5.791  0.5152  0.2496  0.0558
19687TIP3    H180476   2.201   5.850   5.735  1.2264 -2.6988  0.1545
19687TIP3    H280477   2.060   5.899   5.759  1.5679  0.0459 -2.6935
19688TIP3   OH280478   2.992   6.520   1.088  0.3974 -0.1900 -0.3212
19688TIP3    H180479   3.003   6.548   1.179 -1.6217 -1.3551  0.3357
19688TIP3    H280480   3.071   6.469   1.069  0.9051  0.1724  0.7229
19689TIP3   OH280481   4.375   1.129   1.373 -0.0453  0.0213  0.2884
19689TIP3    H180482   4.439   1.173   1.318  0.1578  0.6142  0.9879
19689TIP3    H280483   4.300   1.188   1.374  0.1812  0.3097  1.1318
19690TIP3   OH280484   6.094   0.470  16.408  0.0212  0.0488  0.1405
19690TIP3    H180485   6.162   0.428  16.461 -0.7520  0.1332  1.2445
19690TIP3    H280486   6.119   0.562  16.405 -0.2656  0.1600  0.9268
19691TIP3   OH280487   5.165   3.132   3.750  0.8223 -0.7070 -0.1872
19691TIP3    H180488   5.164   3.132   3.845  1.1323 -1.2870 -0.1791
19691TIP3    H280489   5.252   3.164   3.726  0.0847  1.3630 -0.3154
19692TIP3   OH280490   4.389   6.353  16.219  0.3834  0.1453  0.7636
19692TIP3    H180491   4.324   6.403  16.170  0.4401  0.5654  1.1072
19692TIP3    H280492   4.462   6.414  16.232  1.8871 -1.0036 -1.6294
19693TIP3   OH280493   4.224   2.617   6.483  0.0862  0.5344  0.6930
19693TIP3    H180494   4.169   2.690   6.454  0.9425  0.5363 -1.0443
19693TIP3    H280495   4.242   2.637   6.575 -1.4293  1.3827  0.8556
19694TIP3   OH280496   2.203   5.741   0.640  0.2492  0.0407 -0.3749
19694TIP3    H180497   2.172   5.810   0.581  0.3590  1.0737  0.7293
19694TIP3    H280498   2.212   5.664   0.584  0.3212  0.9683 -1.6990
19695TIP3   OH280499   2.424   2.880  15.695 -0.1638 -0.2893 -0.3142
19695TIP3    H180500   2.410   2.910  15.784 -0.3693  0.1410 -0.4891
19695TIP3    H280501   2.337   2.879  15.655 -0.5414 -3.3488  0.3501
19696TIP3   OH280502   5.954   0.337   2.360 -0.3812 -0.3839  0.0477
19696TIP3    H180503   5.984   0.318   2.449  0.3144  0.4732  0.0127
19696TIP3    H280504   6.007   0.279   2.305  2.1429  1.8376 -0.1064
19697TIP3   OH280505   2.920   3.844   2.400 -0.7566  0.3928 -0.3366
19697TIP3    H180506   2.964   3.782   2.342  2.5017  1.5906  0.6272
19697TIP3    H280507   2.884   3.911   2.341  0.3130  0.3053 -1.1088
19698TIP3   OH280508   4.427   4.904   5.677 -0.0313  0.2466  0.4111
19698TIP3    H180509   4.522   4.894   5.669  0.1841  1.3242  1.3237
19698TIP3    H280510   4.403   4.847   5.750 -0.0690  0.0818  0.2706
19699TIP3   OH280511   1.219   0.070   2.068  0.5102 -0.0912 -0.8915
19699TIP3    H180512   1.272   0.146   2.089 -1.0167  0.1381  3.1381
19699TIP3    H280513   1.132   0.106   2.049 -0.1512 -0.6760  0.7653
19700TIP3   OH280514   4.586   1.532  16.615 -0.8885  0.0188 -0.0073
19700TIP3    H180515   4.640   1.456  16.597 -1.4627 -0.1593 -1.0516
19700TIP3    H280516   4.624   1.602  16.562 -1.3890  0.0100 -0.3900
19701TIP3   OH280517   3.651   0.952  11.677 -0.2931  0.4438 -0.0650
19701TIP3    H180518   3.612   1.026  11.630  0.3122  1.2980  0.7406
19701TIP3    H280519   3.576   0.903  11.712 -0.7080  0.4644 -0.9001
19702TIP3   OH280520   3.599   0.046  15.646 -0.2841  0.0539  0.0490
19702TIP3    H180521   3.635  -0.041  15.659  0.4589  0.3230 -0.1250
19702TIP3    H280522   3.676   0.102  15.634 -0.7716  0.5473 -0.9460
19703TIP3   OH280523   5.415   4.665   2.811 -0.0340 -0.1529 -0.3109
19703TIP3    H180524   5.407   4.595   2.876  2.5317  0.6064  0.9402
19703TIP3    H280525   5.432   4.744   2.862  0.8223  0.7117 -1.8503
19704TIP3   OH280526   6.078   0.175   0.497 -0.2287  0.1689  0.3838
19704TIP3    H180527   6.170   0.171   0.525 -0.2750  0.5250  0.6006
19704TIP3    H280528   6.082   0.181   0.401 -0.0876 -1.6709  0.2523
19705TIP3   OH280529   2.919   5.785  16.485  0.0940  0.0604 -0.0227
19705TIP3    H180530   2.981   5.716  16.507  0.0392 -0.1160 -0.4160
19705TIP3    H280531   2.914   5.839  16.564  1.1281  0.3635 -0.1522
19706TIP3   OH280532   5.608   3.229  16.722  0.0217  0.2476 -0.2624
19706TIP3    H180533   5.661   3.160  16.682 -1.2776  0.4748 -2.5802
19706TIP3    H280534   5.557   3.185  16.789 -0.7115 -1.1001 -1.6295
19707TIP3   OH280535   0.104   0.652  12.202 -0.2781  0.7972 -0.1911
19707TIP3    H180536   0.058   0.654  12.118 -0.8358 -1.2677 -0.0027
19707TIP3    H280537   0.046   0.698  12.262 -1.6604 -0.7938 -0.2137
19708TIP3   OH280538   4.484   0.931  11.781  0.3032  0.1890 -0.4707
19708TIP3    H180539   4.541   0.923  11.858 -0.9524  0.0959  0.4797
19708TIP3    H280540   4.450   0.843  11.767  0.0546  0.3297 -0.7488
19709TIP3   OH280541   2.411   1.091  15.250 -0.7249 -0.2053 -0.1122
19709TIP3    H180542   2.491   1.093  15.303 -0.1258 -1.7524 -0.8872
19709TIP3    H280543   2.346   1.139  15.302  0.3891  0.0989  1.0492
19710TIP3   OH280544   2.424   3.399   5.152  0.1281  0.1823  0.1225
19710TIP3    H180545   2.416   3.311   5.115 -0.0018  0.2062  0.0925
19710TIP3    H280546   2.357   3.402   5.221 -0.8399  0.7289 -0.8113
19711TIP3   OH280547   1.345   0.943  15.262 -0.3816  0.0877  0.3639
19711TIP3    H180548   1.286   0.904  15.326  0.3135 -1.0419  0.3307
19711TIP3    H280549   1.387   1.015  15.310 -0.9073  0.1538  0.7370
19712TIP3   OH280550   2.224   6.376   1.404 -0.2386  0.5598  0.2581
19712TIP3    H180551   2.166   6.360   1.329 -1.5207  0.9777  1.1217
19712TIP3    H280552   2.180   6.333   1.477  0.4244  1.1222  0.9930
19713TIP3   OH280553   4.589   4.001   1.344  0.2742 -0.5206  0.4136
19713TIP3    H180554   4.612   3.974   1.255 -0.8278 -0.3460  0.0716
19713TIP3    H280555   4.640   4.081   1.359 -2.1541  1.5397 -1.4187
19714TIP3   OH280556   3.405   2.775  16.006 -0.1615  0.1199  0.4930
19714TIP3    H180557   3.451   2.746  15.927  0.9494  0.9978  0.7896
19714TIP3    H280558   3.475   2.796  16.068 -0.9164  2.1682  0.7168
19715TIP3   OH280559   3.350   3.468  15.372  0.0325 -0.6278  0.0381
19715TIP3    H180560   3.315   3.404  15.434 -1.1846  1.4917  1.6361
19715TIP3    H280561   3.404   3.526  15.425  0.1567  0.3907 -1.1515
19716TIP3   OH280562   2.223   2.411   2.964  0.1206 -0.2625 -0.7654
19716TIP3    H180563   2.257   2.365   2.887  1.8590  1.0164 -0.8224
19716TIP3    H280564   2.299   2.419   3.022 -0.9736 -0.5152  0.7661
19717TIP3   OH280565   2.884   2.712  15.252  0.5486 -0.2137 -0.4816
19717TIP3    H180566   2.944   2.659  15.303  0.6566 -1.1443 -1.5380
19717TIP3    H280567   2.901   2.687  15.161 -2.6276 -1.7955 -0.7472
19718TIP3   OH280568   2.205   0.607   0.273 -0.6417 -0.5478  0.2138
19718TIP3    H180569   2.212   0.668   0.199  3.1363  0.1687  0.9088
19718TIP3    H280570   2.174   0.525   0.235  2.3402 -0.5870 -2.5498
19719TIP3   OH280571   4.156   4.837  17.020 -0.7049 -0.0033  0.1946
19719TIP3    H180572   4.074   4.855  16.975  0.6191 -0.0959 -2.4585
19719TIP3    H280573   4.151   4.744  17.043 -2.0317  0.4053  1.7198
19720TIP3   OH280574   5.333   1.236  15.302  0.0689 -0.3871  0.2779
19720TIP3    H180575   5.371   1.260  15.386 -0.7287  0.0445  0.5235
19720TIP3    H280576   5.321   1.319  15.256  1.4274 -0.6898 -0.6861
19721TIP3   OH280577   2.519   1.782  13.260 -0.7788  0.0720 -0.0988
19721TIP3    H180578   2.432   1.807  13.289 -0.5383 -1.7792  2.5410
19721TIP3    H280579   2.510   1.769  13.166 -2.6681  2.3529 -0.3352
19722TIP3   OH280580   3.021   1.562  14.973 -0.2289 -0.5859  0.6892
19722TIP3    H180581   3.020   1.634  15.035  0.6192 -1.6973  2.0532
19722TIP3    H280582   3.001   1.602  14.889 -0.5040  1.1054  1.5286
19723TIP3   OH280583   5.137   6.664   3.693 -0.2883 -0.8931  0.1306
19723TIP3    H180584   5.189   6.739   3.663  0.5434 -0.9521  1.3515
19723TIP3    H280585   5.200   6.592   3.699 -1.3909 -2.2774 -2.8089
19724TIP3   OH280586   1.818   5.072  11.240 -0.6485 -0.2180 -0.3649
19724TIP3    H180587   1.834   5.073  11.146 -1.2202 -0.8386 -0.4756
19724TIP3    H280588   1.761   5.148  11.256  0.0657  0.3376 -0.3905
19725TIP3   OH280589   5.295   2.808  17.052 -0.2233  0.0820  0.2664
19725TIP3    H180590   5.384   2.822  17.083 -0.4863 -0.1642  1.1677
19725TIP3    H280591   5.278   2.715  17.068 -0.4074 -0.0307 -0.5418
19726TIP3   OH280592   3.761   0.932  14.380  0.4185 -0.0271 -0.2956
19726TIP3    H180593   3.783   0.931  14.474 -0.0619 -0.3622 -0.1814
19726TIP3    H280594   3.707   0.854  14.368 -0.2628  0.5011 -0.6808
19727TIP3   OH280595   5.314   6.133  16.530 -0.3748  0.5138  0.0562
19727TIP3    H180596   5.252   6.188  16.484 -0.5935  1.5451  1.5075
19727TIP3    H280597   5.259   6.078  16.587 -0.0200  0.8516  0.7381
19728TIP3   OH280598   1.604   1.176   6.053 -0.5232 -0.4331  0.2918
19728TIP3    H180599   1.697   1.187   6.074 -0.1116 -2.7064 -0.0120
19728TIP3    H280600   1.570   1.123   6.125 -0.5334 -3.1390 -1.5460
19729TIP3   OH280601   4.141   3.229   5.338  0.9004 -0.1721 -0.0665
19729TIP3    H180602   4.051   3.216   5.368  0.3307  1.4861 -0.9041
19729TIP3    H280603   4.170   3.308   5.384  1.6197 -0.1927 -0.4695
19730TIP3   OH280604   3.573   0.634  11.792 -0.8308  0.6456 -0.4293
19730TIP3    H180605   3.509   0.675  11.732 -1.3269 -0.7517 -0.9043
19730TIP3    H280606   3.645   0.696  11.797 -0.0141  0.1772 -3.8210
19731TIP3   OH280607   6.296   3.167   0.346 -0.2422  0.7016 -0.1093
19731TIP3    H180608   6.309   3.262   0.342  1.5436  0.4407 -1.6773
19731TIP3    H280609   6.252   3.146   0.264  0.3659  0.0592 -0.2770
19732TIP3   OH280610   4.451   2.115   2.776 -0.1357 -0.1908 -0.0022
19732TIP3    H180611   4.467   2.181   2.844  1.7336 -0.8590  0.2857
19732TIP3    H280612   4.417   2.165   2.702  2.0161  1.2984 -0.0880
19733TIP3   OH280613   2.913   6.116  13.782 -0.3805 -0.4508 -0.1092
19733TIP3    H180614   2.880   6.076  13.862  0.3480  0.8441  0.8623
19733TIP3    H280615   3.008   6.120  13.794 -0.1203 -1.3130 -1.5589
19734TIP3   OH280616   4.553   4.638   2.003 -0.1590  0.3072 -0.4961
19734TIP3    H180617   4.485   4.613   1.941 -1.6222  0.0549  1.1271
19734TIP3    H280618   4.544   4.733   2.011  0.4879  0.4320 -1.1580
19735TIP3   OH280619   6.104   3.100   5.623 -0.2566  0.1377  0.0360
19735TIP3    H180620   6.135   3.018   5.661 -1.9585  0.3717  2.1389
19735TIP3    H280621   6.017   3.079   5.589 -0.4013  0.9034 -0.0869
19736TIP3   OH280622   1.734   0.565   0.146  0.0990  0.7102 -0.6005
19736TIP3    H180623   1.777   0.650   0.143  1.2756  0.1023 -1.5316
19736TIP3    H280624   1.776   0.519   0.219 -0.3305  0.8152 -0.2836
19737TIP3   OH280625   5.433   1.498  17.102  0.1160 -0.1156  0.4189
19737TIP3    H180626   5.347   1.514  17.141 -0.0547  0.7916 -0.2981
19737TIP3    H280627   5.454   1.579  17.056  1.1183 -0.5223  0.1348
19738TIP3   OH280628   2.488   5.895   1.690 -0.1539 -0.0042 -0.0926
19738TIP3    H180629   2.471   5.957   1.619 -0.9965 -0.6557 -0.4771
19738TIP3    H280630   2.446   5.814   1.661 -0.9625 -0.1343  1.3881
19739TIP3   OH280631   5.869   3.009  14.494  0.5274 -0.3691  0.4458
19739TIP3    H180632   5.829   3.074  14.552 -0.5134 -0.3626 -0.2588
19739TIP3    H280633   5.868   2.928  14.544  0.2775 -0.2077  0.7030
19740TIP3   OH280634   4.055   5.868   0.624 -0.0198 -0.2162  0.4551
19740TIP3    H180635   3.977   5.834   0.668  0.4304  0.6009  1.9555
19740TIP3    H280636   4.062   5.959   0.652  1.1795 -0.1173 -0.0716
19741TIP3   OH280637   5.952   4.330   5.319 -1.3221  0.0677 -0.6591
19741TIP3    H180638   5.955   4.415   5.363 -0.5480 -0.2355 -0.1041
19741TIP3    H280639   5.995   4.345   5.235 -1.2357  0.2411 -0.5848
19742TIP3   OH280640   6.221   0.649   4.914 -0.6269  0.7804 -0.0666
19742TIP3    H180641   6.160   0.711   4.876 -0.6540  1.1492  0.5732
19742TIP3    H280642   6.291   0.703   4.950 -1.5225  0.6000  2.1068
19743TIP3   OH280643   4.061   1.837   4.844  0.2699 -0.3541 -0.0975
19743TIP3    H180644   4.020   1.874   4.767  0.4953 -1.6543 -0.8661
19743TIP3    H280645   4.042   1.900   4.914  1.5237  1.7383 -1.5337
19744TIP3   OH280646   0.875   3.256   5.261  0.3149 -0.6005 -0.5308
19744TIP3    H180647   0.906   3.284   5.175  2.8223 -1.7913 -0.0975
19744TIP3    H280648   0.941   3.194   5.292 -0.7298 -0.5600  2.0712
19745TIP3   OH280649   5.996   2.590  14.455  0.0265 -0.2451  0.1094
19745TIP3    H180650   5.943   2.630  14.524  0.9253  0.5164  0.3793
19745TIP3    H280651   5.982   2.645  14.378 -1.5598 -1.5184 -0.5640
19746TIP3   OH280652   3.455   2.192  13.615 -0.2686 -0.8665  0.0066
19746TIP3    H180653   3.495   2.249  13.680 -1.9307  0.5947 -0.1662
19746TIP3    H280654   3.456   2.105  13.654 -0.9910 -0.0713  1.8866
19747TIP3   OH280655   3.104   2.658  11.936  0.5042 -0.1566 -0.0289
19747TIP3    H180656   3.059   2.707  11.867  0.1823  0.7238  0.7872
19747TIP3    H280657   3.143   2.725  11.992  1.9825 -0.8894 -0.1366
19748TIP3   OH280658   0.807   5.684   4.109  0.0959 -0.2214 -1.2567
19748TIP3    H180659   0.716   5.705   4.130  0.8550  1.3724  0.8948
19748TIP3    H280660   0.823   5.600   4.152 -0.2681 -0.3014 -1.2782
19749TIP3   OH280661   3.393   0.307   1.476 -0.1385 -0.0400 -0.1265
19749TIP3    H180662   3.425   0.240   1.416  0.0587  0.2126 -0.3095
19749TIP3    H280663   3.370   0.381   1.419  0.1708  0.2491  0.1142
19750TIP3   OH280664   2.404   4.610   3.311 -0.1921  0.1635  0.0037
19750TIP3    H180665   2.370   4.559   3.385  0.8178 -2.4516 -1.2227
19750TIP3    H280666   2.492   4.576   3.297  0.2998  1.8798 -1.2928
19751TIP3   OH280667   3.328   0.759   6.636 -0.1444 -0.1749 -0.2664
19751TIP3    H180668   3.363   0.798   6.716 -1.8518  2.5146 -0.7076
19751TIP3    H280669   3.399   0.768   6.572 -0.0059  0.9654  0.0241
19752TIP3   OH280670   5.503   6.425   0.629  0.0507 -0.5061 -0.1651
19752TIP3    H180671   5.589   6.384   0.613  0.1428 -0.0448 -0.8466
19752TIP3    H280672   5.506   6.450   0.722  0.4902 -0.8671 -0.0769
19753TIP3   OH280673   6.141   0.866  13.241  0.3865  0.2005 -0.3530
19753TIP3    H180674   6.194   0.879  13.162  1.9782  0.6783  0.7429
19753TIP3    H280675   6.198   0.816  13.300 -1.4749 -1.8967 -0.1918
19754TIP3   OH280676   3.126   2.195   3.408  0.1273 -0.3963 -0.0448
19754TIP3    H180677   3.152   2.270   3.461 -0.1115 -0.7865  0.6278
19754TIP3    H280678   3.208   2.148   3.391 -0.1646 -2.2798  3.0673
19755TIP3   OH280679   5.879   5.538   0.666 -0.0273 -0.3479 -0.5859
19755TIP3    H180680   5.872   5.605   0.735  3.3277  0.0656 -0.4656
19755TIP3    H280681   5.789   5.525   0.636 -1.2875  1.4017  2.0235
19756TIP3   OH280682   4.168   1.481  11.902  0.3999  0.4403 -0.2667
19756TIP3    H180683   4.166   1.463  11.808  0.0213  1.1752 -0.4117
19756TIP3    H280684   4.255   1.453  11.930  0.0280 -1.0770 -0.5538
19757TIP3   OH280685   3.473   3.006   6.227  0.2133  0.6039 -0.1125
19757TIP3    H180686   3.517   2.992   6.311 -0.5747  0.7317  0.3256
19757TIP3    H280687   3.520   3.079   6.187  0.8943  0.2363 -0.0058
19758TIP3   OH280688   1.673   5.189   4.759  0.2960  0.0721  0.6037
19758TIP3    H180689   1.672   5.202   4.664 -2.7660  1.4306  0.7151
19758TIP3    H280690   1.661   5.094   4.770 -0.8586  0.0702 -0.4050
19759TIP3   OH280691   5.251   3.447  14.121 -0.1888  0.7531  0.8075
19759TIP3    H180692   5.342   3.476  14.121  0.0683 -0.0057 -0.1516
19759TIP3    H280693   5.202   3.524  14.150  0.5511  1.9028 -0.8146
19760TIP3   OH280694   5.333   0.668  12.936 -0.5483  0.2378 -0.2627
19760TIP3    H180695   5.285   0.736  12.983  0.6635 -0.0434  1.4806
19760TIP3    H280696   5.362   0.710  12.856 -0.0983  1.7159  0.6301
19761TIP3   OH280697   6.141   4.124  12.986  0.3897  0.5027  0.0182
19761TIP3    H180698   6.136   4.080  13.071 -1.3745 -0.4289 -0.5385
19761TIP3    H280699   6.153   4.054  12.923 -0.7408  0.9669 -0.7298
19762TIP3   OH280700   0.977   6.307   4.726 -0.5259 -1.1200 -0.6692
19762TIP3    H180701   0.995   6.215   4.706 -0.7769 -1.2925 -0.1024
19762TIP3    H280702   0.893   6.324   4.684 -0.4890 -1.1515 -0.7579
19763TIP3   OH280703   0.867   0.085  14.354  0.1805  0.6533 -0.0164
19763TIP3    H180704   0.829   0.015  14.301  1.5273 -0.7477  0.7644
19763TIP3    H280705   0.924   0.039  14.417  1.4645  2.4694  0.2343
19764TIP3   OH280706   5.440   2.333  15.131  0.0027 -0.0294  0.0885
19764TIP3    H180707   5.423   2.420  15.167 -0.9660  0.2781 -1.0621
19764TIP3    H280708   5.517   2.345  15.076 -0.0450  0.0688  0.0421
19765TIP3   OH280709   3.782   4.304   4.321 -0.2436 -0.6843  0.3368
19765TIP3    H180710   3.783   4.316   4.226 -0.2380 -1.4540  0.2373
19765TIP3    H280711   3.874   4.306   4.347 -0.2319 -0.7228  0.2970
19766TIP3   OH280712   5.903   3.290  16.249  0.4735  0.0043 -0.0981
19766TIP3    H180713   5.864   3.306  16.335  0.3206 -0.7228 -0.0307
19766TIP3    H280714   5.845   3.335  16.188  0.7645  0.8093  0.2010
19767TIP3   OH280715   3.448   1.700   1.144  0.5658  0.3170 -0.1871
19767TIP3    H180716   3.389   1.715   1.070  1.8159 -1.8843 -1.7350
19767TIP3    H280717   3.458   1.786   1.184 -1.5774  1.2485 -1.4474
19768TIP3   OH280718   0.227   2.620  13.430 -0.1845  0.0518  0.5310
19768TIP3    H180719   0.265   2.594  13.345 -0.8215 -1.9336  0.7943
19768TIP3    H280720   0.234   2.541  13.484 -1.2616  0.7959  1.8053
19769TIP3   OH280721   1.008   5.548  13.506  0.8818 -0.5802 -0.4336
19769TIP3    H180722   0.923   5.590  13.521  2.6408  2.8183  1.4106
19769TIP3    H280723   1.031   5.571  13.416  1.7034  2.6576  0.4601
19770TIP3   OH280724   0.797   3.051   3.349  0.3113 -0.2333  0.7182
19770TIP3    H180725   0.838   3.132   3.317  0.4537 -0.2216  0.9289
19770TIP3    H280726   0.714   3.079   3.386  1.1374  0.0791  2.4368
19771TIP3   OH280727   2.617   1.093  15.453 -0.0436 -0.0626 -0.3003
19771TIP3    H180728   2.672   1.020  15.481  1.5568  1.3658  0.5001
19771TIP3    H280729   2.591   1.136  15.534 -0.3877  0.6520 -0.7822
19772TIP3   OH280730   2.739   1.192   2.688  0.0040 -0.0478  0.0996
19772TIP3    H180731   2.799   1.133   2.643  1.1771  0.1879  1.3206
19772TIP3    H280732   2.779   1.278   2.679 -2.1143  0.8452 -2.4460
19773TIP3   OH280733   3.299   2.229  17.104 -0.3394 -0.5398  0.5844
19773TIP3    H180734   3.237   2.233  17.031 -0.9283 -2.4237  0.9300
19773TIP3    H280735   3.353   2.308  17.094 -1.9410  0.4752 -0.4793
19774TIP3   OH280736   0.363   0.768   2.122 -0.4283  0.3827 -0.6941
19774TIP3    H180737   0.395   0.849   2.162  1.5370 -0.2895 -0.7930
19774TIP3    H280738   0.292   0.739   2.179 -0.3190  1.5264  0.0454
19775TIP3   OH280739   3.947   5.688   6.880  0.6465 -0.0007  0.2294
19775TIP3    H180740   3.938   5.631   6.956 -0.7662 -0.2679 -0.1147
19775TIP3    H280741   3.931   5.776   6.915 -0.7397 -0.1984  0.1222
19776TIP3   OH280742   1.070   2.189   0.381 -0.3935  0.3265 -0.1352
19776TIP3    H180743   1.040   2.270   0.340 -1.9353 -0.5910 -0.9179
19776TIP3    H280744   1.126   2.148   0.314  0.1812  0.6028  0.1653
19777TIP3   OH280745   2.738   2.228  17.318  0.6640 -0.1117 -0.0195
19777TIP3    H180746   2.661   2.219  17.374  1.2257 -1.2158  0.6060
19777TIP3    H280747   2.798   2.282  17.369 -0.9724  3.9701 -1.9434
19778TIP3   OH280748   3.236   3.201  11.155 -0.4518 -0.2526 -0.4455
19778TIP3    H180749   3.172   3.131  11.142  0.3980 -1.0649 -0.4200
19778TIP3    H280750   3.258   3.195  11.248 -1.3852  0.9738 -0.1220
19779TIP3   OH280751   6.064   1.716  13.807  0.1239  0.7022 -0.4129
19779TIP3    H180752   6.151   1.681  13.786 -0.1006 -0.0683 -0.0839
19779TIP3    H280753   6.080   1.777  13.880  0.4806  1.0994 -0.8159
19780TIP3   OH280754   4.342   4.060  14.139  0.2765  0.3294 -0.0244
19780TIP3    H180755   4.288   4.053  14.218 -0.1561 -1.0899 -0.4226
19780TIP3    H280756   4.429   4.082  14.171  0.1574 -0.4678  0.8761
19781TIP3   OH280757   6.226   3.924  12.821  0.6828  0.2764  0.5434
19781TIP3    H180758   6.250   3.837  12.853  0.9408  0.0403 -0.2708
19781TIP3    H280759   6.281   3.937  12.743 -1.5161 -0.1316 -1.1817
19782TIP3   OH280760   4.712   5.907   2.301 -0.1524  0.0453  0.7933
19782TIP3    H180761   4.626   5.948   2.293 -0.9518 -1.0820  2.8405
19782TIP3    H280762   4.707   5.830   2.244  0.7347  1.6507 -1.6514
19783TIP3   OH280763   0.534   2.009  16.194  0.0939 -0.4069 -0.0690
19783TIP3    H180764   0.594   2.084  16.193 -0.3929  0.0253  0.8490
19783TIP3    H280765   0.484   2.021  16.275 -1.6412 -0.4190 -1.1007
19784TIP3   OH280766   1.973   6.394  12.346  0.5946  0.0922  0.2950
19784TIP3    H180767   1.987   6.483  12.312 -0.1976  0.2522  0.3506
19784TIP3    H280768   2.058   6.367  12.380  1.3180  0.0641 -1.4622
19785TIP3   OH280769   5.790   4.796   5.851  0.2089 -0.6481 -0.1922
19785TIP3    H180770   5.729   4.723   5.839  1.3257 -1.9081  1.3512
19785TIP3    H280771   5.766   4.834   5.936  0.8929 -0.4842 -0.0645
19786TIP3   OH280772   3.007   6.578   2.763 -0.1115 -0.2304 -0.8957
19786TIP3    H180773   2.928   6.599   2.812 -0.3337  1.1461 -1.8017
19786TIP3    H280774   3.071   6.643   2.791  0.5258 -0.9518 -0.6343
19787TIP3   OH280775   0.784   2.259   5.843  0.2347  0.4102  0.6682
19787TIP3    H180776   0.728   2.187   5.812  0.2340  0.9557 -0.6597
19787TIP3    H280777   0.733   2.300   5.913 -0.1366 -0.3385  0.8490
19788TIP3   OH280778   5.960   2.426   3.553 -0.1161  0.7052 -0.1570
19788TIP3    H180779   5.874   2.385   3.540  1.4597 -3.9279  1.9174
19788TIP3    H280780   5.950   2.479   3.632 -1.3245  1.1831 -0.6107
19789TIP3   OH280781   1.204   3.364   4.273 -0.3564  0.3641  0.3618
19789TIP3    H180782   1.288   3.370   4.319 -0.4952 -0.7299  0.7656
19789TIP3    H280783   1.220   3.303   4.201 -0.7739  0.2492  0.3631
19790TIP3   OH280784   1.285   0.646  15.737  0.2098  0.6865  0.3256
19790TIP3    H180785   1.190   0.654  15.724  0.0035 -1.0748  0.5735
19790TIP3    H280786   1.295   0.570  15.794  1.8136  0.4318 -0.2557
19791TIP3   OH280787   1.121   5.932  16.346 -0.0538 -0.2939 -0.1258
19791TIP3    H180788   1.136   5.840  16.367 -0.2198  0.3377  3.3963
19791TIP3    H280789   1.027   5.937  16.327 -1.0848 -0.3779  3.9696
19792TIP3   OH280790   6.010   3.822  14.981 -0.4281 -0.0416  0.6260
19792TIP3    H180791   6.062   3.751  14.943 -0.0603  0.9025 -0.7368
19792TIP3    H280792   6.072   3.894  14.992 -1.0643  0.4997  0.7140
19793TIP3   OH280793   4.362   2.813   3.451  0.7189 -0.0445 -0.0610
19793TIP3    H180794   4.403   2.804   3.537  0.8965  0.9568 -0.0270
19793TIP3    H280795   4.282   2.862   3.468 -0.6358 -2.1292 -0.1006
19794TIP3   OH280796   2.028   2.379  15.107 -0.7046  0.2942 -0.0222
19794TIP3    H180797   2.021   2.286  15.128 -0.2886  0.0208 -1.0261
19794TIP3    H280798   2.026   2.382  15.011 -1.4005  1.3828  0.0130
19795TIP3   OH280799   0.227   6.519  16.643 -0.2478 -0.1833 -0.0397
19795TIP3    H180800   0.216   6.447  16.580 -0.2769  0.0845 -0.3451
19795TIP3    H280801   0.268   6.589  16.592 -0.6433  0.1811  0.1331
19796TIP3   OH280802   4.575   3.052  12.684  0.2739  0.5787 -0.0023
19796TIP3    H180803   4.492   3.019  12.649 -0.0839  1.8538 -0.4329
19796TIP3    H280804   4.642   3.002  12.637 -0.2301  1.2321 -1.4910
19797TIP3   OH280805   1.890   1.258  15.868 -0.2548 -0.4203 -0.1797
19797TIP3    H180806   1.905   1.352  15.854  1.8149 -1.0134 -2.7904
19797TIP3    H280807   1.946   1.235  15.942  1.2605 -0.0283 -1.1755
19798TIP3   OH280808   0.807   4.330   2.739  0.0410  0.1203  0.1214
19798TIP3    H180809   0.720   4.348   2.775 -0.1765 -2.2418  0.9353
19798TIP3    H280810   0.854   4.284   2.809  1.0524 -0.8957 -1.1615
19799TIP3   OH280811   3.649   0.445  11.253  0.0701 -0.4877  0.2796
19799TIP3    H180812   3.656   0.514  11.188  0.0716  0.0039  0.7907
19799TIP3    H280813   3.723   0.461  11.312 -0.0055 -0.8481  0.4729
19800TIP3   OH280814   5.744   5.649  12.857  0.7459 -0.6981  0.3751
19800TIP3    H180815   5.702   5.565  12.838  1.0169 -0.5929 -0.7984
19800TIP3    H280816   5.702   5.710  12.795  1.1465 -0.1503  0.6403
19801TIP3   OH280817   2.692   3.461  11.792  0.6201  0.3504 -0.3123
19801TIP3    H180818   2.719   3.369  11.791  0.8427  0.4036  0.3906
19801TIP3    H280819   2.637   3.469  11.870 -0.7900  0.4340 -1.2794
19802TIP3   OH280820   4.810   5.076   2.760  0.0643  0.3910 -0.4789
19802TIP3    H180821   4.824   5.119   2.675  1.2473 -0.1805 -0.5981
19802TIP3    H280822   4.887   5.101   2.812 -0.5222  0.5274  0.3456
19803TIP3   OH280823   5.741   5.580   1.678  0.6731 -0.6467 -0.0378
19803TIP3    H180824   5.669   5.637   1.654  2.4365  1.4592 -0.6450
19803TIP3    H280825   5.714   5.539   1.760 -2.4548 -2.4021 -1.7387
19804TIP3   OH280826   6.210   0.853   5.175 -0.3982 -0.2141 -0.7847
19804TIP3    H180827   6.161   0.879   5.253 -1.5967 -0.3845 -1.4404
19804TIP3    H280828   6.295   0.895   5.184 -0.7067  0.2053  0.3492
19805TIP3   OH280829   0.199   0.969  14.441 -0.0224  0.7293  0.6322
19805TIP3    H180830   0.105   0.951  14.437  0.2743 -0.7921 -0.2158
19805TIP3    H280831   0.237   0.917  14.371  1.4247  1.6809  0.6512
19806TIP3   OH280832   3.665   0.040  16.441 -0.4578  0.4328 -0.5534
19806TIP3    H180833   3.701   0.114  16.490  1.8024 -0.7157 -0.3609
19806TIP3    H280834   3.599   0.079  16.383  0.4062  2.5250 -0.2025
19807TIP3   OH280835   3.461   5.520  15.161 -0.1985 -0.0192 -1.3683
19807TIP3    H180836   3.450   5.533  15.255 -3.1093 -0.9223 -1.5141
19807TIP3    H280837   3.394   5.576  15.121 -0.3341 -1.1455 -2.7990
19808TIP3   OH280838   2.009   1.502  17.197 -0.1012 -0.1195 -0.1040
19808TIP3    H180839   1.918   1.512  17.170 -0.0599 -1.4785 -0.8493
19808TIP3    H280840   2.017   1.554  17.277 -2.4234 -2.6072  1.9147
19809TIP3   OH280841   1.769   3.325   2.130  0.0266 -0.1075 -0.3832
19809TIP3    H180842   1.729   3.319   2.217  1.1652  0.1077  0.1710
19809TIP3    H280843   1.713   3.387   2.083  0.1016  0.7450  0.6017
19810TIP3   OH280844   5.033   6.329   0.684 -1.0120  0.1193  0.7927
19810TIP3    H180845   5.017   6.392   0.754 -1.0702  1.1099 -0.0868
19810TIP3    H280846   5.032   6.244   0.728 -1.4518  0.6823  1.9221
19811TIP3   OH280847   2.482   1.343  15.095 -0.7356  0.4332 -0.0991
19811TIP3    H180848   2.499   1.248  15.094 -1.6721  0.2584 -1.0553
19811TIP3    H280849   2.387   1.350  15.085 -0.7447  1.4717  0.6220
19812TIP3   OH280850   4.405   2.889   2.709  0.1356 -0.0713  0.5715
19812TIP3    H180851   4.316   2.925   2.719  0.1652  0.2545 -0.2298
19812TIP3    H280852   4.462   2.957   2.744  0.2490  1.1285 -1.7475
19813TIP3   OH280853   3.473   6.292   1.122  0.8586  0.4431  0.5551
19813TIP3    H180854   3.405   6.360   1.119 -1.0160 -1.2671 -2.8103
19813TIP3    H280855   3.475   6.264   1.213 -1.3087  2.1932  1.2426
19814TIP3   OH280856   5.902   4.299   0.240  0.1839 -0.2125 -0.0371
19814TIP3    H180857   5.994   4.284   0.218  0.2655  0.5212 -0.2203
19814TIP3    H280858   5.888   4.392   0.220 -0.1322  0.1319  1.6463
19815TIP3   OH280859   2.976   5.466  17.032 -0.6038 -0.2848  0.7129
19815TIP3    H180860   2.958   5.540  16.973 -0.2851 -0.7573  0.0113
19815TIP3    H280861   3.069   5.449  17.021 -0.9690 -1.8106 -0.3727
19816TIP3   OH280862   6.623   6.694  16.468  0.4245  0.5700  0.0832
19816TIP3    H180863   6.574   6.746  16.532  0.6369  1.2986 -0.3426
19816TIP3    H280864   6.596   6.604  16.486 -0.6748  0.9056  0.1985
19817TIP3   OH280865   5.414   6.634   1.767  0.0310 -0.1781  0.0895
19817TIP3    H180866   5.448   6.673   1.687 -2.1983 -0.2363 -0.9355
19817TIP3    H280867   5.353   6.698   1.802 -1.2019 -1.3305  0.1516
19818TIP3   OH280868   5.797   3.801  16.139 -0.6508 -0.2450  0.2129
19818TIP3    H180869   5.757   3.885  16.118  0.1568  0.4236  1.2278
19818TIP3    H280870   5.811   3.804  16.234  0.5355 -0.9975  0.0850
19819TIP3   OH280871   5.581   2.158   3.793 -0.1804 -0.1821  0.0047
19819TIP3    H180872   5.668   2.133   3.825  0.9016  0.5594 -2.1355
19819TIP3    H280873   5.578   2.253   3.803 -0.5779 -0.1612 -0.2819
19820TIP3   OH280874   6.272   2.354  11.365  0.2973  0.2292  0.1700
19820TIP3    H180875   6.259   2.433  11.313 -1.6503  0.5327  1.0418
19820TIP3    H280876   6.192   2.303  11.353  0.5585 -0.5349  1.4279
19821TIP3   OH280877   4.144   3.540  16.276 -0.0779  0.4450 -0.5584
19821TIP3    H180878   4.098   3.608  16.324  1.0012 -0.1672  1.4712
19821TIP3    H280879   4.095   3.460  16.295  0.3940  0.1903 -0.3838
19822TIP3   OH280880   2.376   4.707   0.559 -0.0794 -0.1701 -0.0268
19822TIP3    H180881   2.387   4.651   0.482  1.1999 -0.5051  0.3677
19822TIP3    H280882   2.396   4.649   0.633 -0.3262  0.3938  0.4917
19823TIP3   OH280883   2.347   6.452  14.580  0.4877  0.1020 -0.2976
19823TIP3    H180884   2.360   6.538  14.540 -1.7602  0.3328 -0.6872
19823TIP3    H280885   2.308   6.399  14.510 -0.1621 -0.5547  0.5401
19824TIP3   OH280886   5.743   5.389   5.045  0.9197  0.2129 -0.0832
19824TIP3    H180887   5.772   5.389   5.136  1.0698 -1.4819 -0.1053
19824TIP3    H280888   5.806   5.447   5.001  0.0445  2.1306  1.0825
19825TIP3   OH280889   4.846   4.981  13.156  0.3667 -0.8672 -0.0996
19825TIP3    H180890   4.754   4.996  13.133  0.9004  1.1383 -1.1363
19825TIP3    H280891   4.864   5.044  13.225  1.3206 -0.2913 -0.8655
19826TIP3   OH280892   2.749   5.048  16.346  0.3377 -0.0010 -0.4142
19826TIP3    H180893   2.808   4.995  16.293 -1.4490 -0.9377 -1.5754
19826TIP3    H280894   2.724   4.991  16.418  0.5946  0.2966 -0.0809
19827TIP3   OH280895   6.342   1.767  11.960  0.5282 -0.0391  0.2826
19827TIP3    H180896   6.428   1.725  11.968  0.1733 -0.6162  1.3520
19827TIP3    H280897   6.284   1.712  12.014 -0.5927  0.1236 -0.7142
19828TIP3   OH280898   4.126   0.655   3.068  0.2177  0.1948 -0.0632
19828TIP3    H180899   4.181   0.598   3.121 -1.6695 -1.8713 -0.1776
19828TIP3    H280900   4.159   0.644   2.979 -0.9164 -1.8442 -0.2910
19829TIP3   OH280901   6.681   5.871   5.697  0.0074  0.0628 -0.3060
19829TIP3    H180902   6.601   5.905   5.737 -0.9309 -1.7991 -0.4676
19829TIP3    H280903   6.671   5.775   5.700  2.7152 -0.2977  0.6518
19830TIP3   OH280904   6.645   1.477  12.284 -0.6112  0.0525 -0.0767
19830TIP3    H180905   6.695   1.455  12.362  0.0786  0.4385 -0.3994
19830TIP3    H280906   6.570   1.528  12.316  0.9510  2.3301  0.1441
19831TIP3   OH280907   2.698   5.342  15.549 -0.5183 -0.6603  0.2642
19831TIP3    H180908   2.750   5.313  15.474 -0.4464 -0.8155  0.3767
19831TIP3    H280909   2.742   5.422  15.579 -1.4735  0.3520 -0.8840
19832TIP3   OH280910   2.151   4.124   3.877 -0.2565  0.4689  0.0074
19832TIP3    H180911   2.072   4.176   3.897  0.6050  1.1047  2.0643
19832TIP3    H280912   2.198   4.176   3.812 -0.8207  0.8238 -0.1279
19833TIP3   OH280913   5.815   0.074   3.909  0.4297 -0.2103  0.7933
19833TIP3    H180914   5.780   0.058   3.996 -0.0426  0.3464  0.7113
19833TIP3    H280915   5.810   0.169   3.898 -0.6840 -0.3802 -0.3181
19834TIP3   OH280916   2.978   3.102  11.093 -0.1343  0.3103  0.5627
19834TIP3    H180917   2.899   3.152  11.072 -0.7906 -0.4298  1.1911
19834TIP3    H280918   2.973   3.025  11.036  0.4826  0.5707  0.1388
19835TIP3   OH280919   5.432   1.204   1.859  0.0379  0.0904  0.0586
19835TIP3    H180920   5.496   1.273   1.846  1.5890 -0.6883  2.7592
19835TIP3    H280921   5.470   1.127   1.817  0.5689 -0.2057  1.0631
19836TIP3   OH280922   1.985   6.546   1.627 -0.4622 -0.1465 -0.4564
19836TIP3    H180923   1.904   6.572   1.671 -0.1805  0.7055 -0.4415
19836TIP3    H280924   2.043   6.621   1.636 -0.0169 -0.3775 -1.3466
19837TIP3   OH280925   6.619   5.013   3.827 -0.4991 -0.2748 -0.2157
19837TIP3    H180926   6.641   5.088   3.882 -0.8562 -0.5637  0.3286
19837TIP3    H280927   6.681   4.945   3.853 -1.1724 -0.6660  0.3949
19838TIP3   OH280928   6.709   3.590  14.035 -0.1023  0.0949 -0.0837
19838TIP3    H180929   6.713   3.531  13.960  0.7662 -1.8179  1.3657
19838TIP3    H280930   6.618   3.583  14.066 -0.2819  0.3585 -0.5430
19839TIP3   OH280931   0.516   1.411   1.806  0.0072  0.3523 -0.0021
19839TIP3    H180932   0.451   1.482   1.804  1.0380  1.4484  2.0832
19839TIP3    H280933   0.599   1.454   1.787  0.4915 -0.5374  0.0721
19840TIP3   OH280934   0.716   5.774   3.514 -0.3298 -0.2085  0.0564
19840TIP3    H180935   0.678   5.856   3.545 -1.6273 -0.3949 -0.9803
19840TIP3    H280936   0.715   5.717   3.591  2.6896  1.3784  1.4410
19841TIP3   OH280937   1.092   4.472   2.314  0.3490 -0.6637 -0.0588
19841TIP3    H180938   1.070   4.501   2.403  0.8452  0.2274 -0.2115
19841TIP3    H280939   1.162   4.408   2.327 -2.8207 -4.4474  0.5293
19842TIP3   OH280940   4.076   2.320   1.087 -0.2246  0.0938  0.1434
19842TIP3    H180941   4.136   2.279   1.150  0.0531  0.2597 -0.0118
19842TIP3    H280942   4.065   2.255   1.018 -0.7913 -0.2197  0.5233
19843TIP3   OH280943   4.363   2.382   3.990 -0.2850 -0.1575  0.2878
19843TIP3    H180944   4.458   2.367   3.985 -0.4578 -2.5215  2.1842
19843TIP3    H280945   4.325   2.311   3.937 -1.0348  0.5142 -0.0944
19844TIP3   OH280946   1.585   6.220   6.295 -0.0603  0.5072 -0.3932
19844TIP3    H180947   1.546   6.140   6.332 -0.0234  0.8933  0.5181
19844TIP3    H280948   1.516   6.259   6.242  0.2753 -0.7060 -1.7817
19845TIP3   OH280949   2.308   2.213  16.384  0.2174 -0.4560 -0.5705
19845TIP3    H180950   2.269   2.200  16.471  1.6566 -1.1521  0.0053
19845TIP3    H280951   2.320   2.307  16.377 -2.2329 -0.1334 -1.0877
19846TIP3   OH280952   4.279   3.795   5.500 -0.2518 -0.2552  0.3288
19846TIP3    H180953   4.299   3.874   5.550 -3.4848  0.0505  1.4036
19846TIP3    H280954   4.362   3.747   5.496  1.5660  2.6573  0.5482
19847TIP3   OH280955   5.863   5.315  16.802  0.3098 -0.0335 -0.1660
19847TIP3    H180956   5.914   5.272  16.871 -0.2092  2.1939  1.7551
19847TIP3    H280957   5.923   5.321  16.728  1.2354 -1.6423  0.3940
19848TIP3   OH280958   3.891   3.033  12.273 -0.1431 -0.2402 -0.4461
19848TIP3    H180959   3.851   3.039  12.360 -0.4422  0.9367 -0.6403
19848TIP3    H280960   3.823   3.066  12.213  0.2016 -0.6486 -1.0786
19849TIP3   OH280961   6.198   5.516   0.182 -0.0699 -0.0263 -0.4469
19849TIP3    H180962   6.159   5.603   0.177  0.6899  0.2956 -0.9357
19849TIP3    H280963   6.226   5.497   0.093 -1.3148 -1.2967 -0.5816
19850TIP3   OH280964   6.389   5.000   3.165  0.7229 -0.1299 -0.7719
19850TIP3    H180965   6.450   5.054   3.216  0.5630 -1.1899  0.6374
19850TIP3    H280966   6.303   5.037   3.183  0.7106 -0.2274 -0.6257
19851TIP3   OH280967   6.184   0.540  11.876 -0.5102 -0.0338  0.1935
19851TIP3    H180968   6.260   0.482  11.867 -0.3126  0.4726 -1.9069
19851TIP3    H280969   6.217   0.614  11.929  0.2236 -0.2136  0.0019
19852TIP3   OH280970   1.809   1.392   1.398  0.3069  0.4375 -0.4123
19852TIP3    H180971   1.736   1.373   1.458  0.5721 -1.2078 -0.5755
19852TIP3    H280972   1.846   1.474   1.431 -1.7934  1.4980 -0.5180
19853TIP3   OH280973   0.225   4.312   2.398  0.4411  0.7926 -0.7958
19853TIP3    H180974   0.216   4.394   2.447  0.1094  0.3577 -0.1219
19853TIP3    H280975   0.320   4.305   2.383  0.6762  0.4577  0.6336
19854TIP3   OH280976   3.436   0.079  10.740 -0.4644 -0.2529  0.6092
19854TIP3    H180977   3.436  -0.015  10.720 -2.2151 -0.4626  1.3377
19854TIP3    H280978   3.506   0.090  10.805 -0.4255 -1.1188  0.7268
19855TIP3   OH280979   1.060   4.887  17.223  0.2135  0.1023  0.0298
19855TIP3    H180980   1.132   4.905  17.284 -0.6735  0.5775  0.9751
19855TIP3    H280981   1.099   4.896  17.136  1.0331  1.5149  0.5094
19856TIP3   OH280982   2.762   4.806   1.335  0.3271  0.0322 -0.3254
19856TIP3    H180983   2.748   4.789   1.242 -3.2312 -1.7253  0.3527
19856TIP3    H280984   2.692   4.867   1.359  0.6764 -0.1752  1.3311
19857TIP3   OH280985   0.325   2.977   5.575 -0.3960 -0.5245  0.3411
19857TIP3    H180986   0.352   3.047   5.634 -0.1755 -0.9731  0.7788
19857TIP3    H280987   0.293   2.907   5.633  1.1875 -1.5571  0.0223
19858TIP3   OH280988   1.663   1.644  15.636  0.1716 -0.2657 -0.3380
19858TIP3    H180989   1.587   1.682  15.592  0.4691  2.2838  1.1461
19858TIP3    H280990   1.626   1.576  15.693 -0.7719 -0.1902 -0.8424
19859TIP3   OH280991   2.239   2.295   4.618 -0.0922  0.0974  0.4643
19859TIP3    H180992   2.241   2.383   4.580  1.6246  0.2241  0.7806
19859TIP3    H280993   2.268   2.237   4.548 -0.1460 -0.0748  0.5837
19860TIP3   OH280994   0.906   3.338   3.320 -0.4689 -0.3763  0.2683
19860TIP3    H180995   0.987   3.376   3.284 -1.4765  1.0198 -0.6071
19860TIP3    H280996   0.914   3.352   3.414  0.1295  0.1174  0.1556
19861TIP3   OH280997   0.740   1.329   2.206  0.4548  0.6129  0.3705
19861TIP3    H180998   0.822   1.318   2.254  0.4988 -0.9635 -0.0038
19861TIP3    H280999   0.763   1.306   2.116 -0.8268 -1.9956  0.6296
19862TIP3   OH281000   4.332   4.833   2.786  0.0111 -0.3188  0.3382
19862TIP3    H181001   4.296   4.774   2.852 -1.2479 -0.5289 -0.4869
19862TIP3    H281002   4.318   4.787   2.703  0.5636  0.4022 -0.1617
19863TIP3   OH281003   5.979   2.997   3.182  0.3090 -0.2032  0.0246
19863TIP3    H181004   5.954   3.057   3.112  0.9498 -1.0870 -0.9871
19863TIP3    H281005   5.897   2.954   3.207  0.2758 -0.8517 -1.1316
19864TIP3   OH281006   5.461   0.254   4.506  0.2688 -0.2184  0.4679
19864TIP3    H181007   5.423   0.185   4.452 -0.2826 -0.3305  0.9912
19864TIP3    H281008   5.397   0.267   4.576  1.8224 -1.4374  2.2209
19865TIP3   OH281009   4.808   1.536   1.368  0.3560  0.6924  0.0195
19865TIP3    H181010   4.840   1.626   1.367  0.8814  0.5577 -2.6920
19865TIP3    H281011   4.862   1.492   1.434 -0.0690  2.3500  1.5772
19866TIP3   OH281012   1.966   2.820  14.579  0.4554 -0.3374 -0.0238
19866TIP3    H181013   1.942   2.800  14.670  0.1432  2.3310  0.5731
19866TIP3    H281014   1.886   2.803  14.529 -0.0723  0.2631  0.5862
19867TIP3   OH281015   0.244   4.980  13.797 -0.1138 -0.1368 -0.1750
19867TIP3    H181016   0.258   4.947  13.709  2.1538 -1.4254  0.5807
19867TIP3    H281017   0.241   4.902  13.852 -2.7381  0.5587  0.8126
19868TIP3   OH281018   5.049   5.150   3.989  0.3817  0.6541  0.2172
19868TIP3    H181019   5.082   5.179   3.904  0.4857  1.0320  0.3825
19868TIP3    H281020   4.982   5.085   3.968  2.6624 -1.7604 -0.0967
19869TIP3   OH281021   1.815   3.385  15.861 -0.2334 -0.4158 -0.0924
19869TIP3    H181022   1.897   3.337  15.860 -0.4169 -0.8830  2.5227
19869TIP3    H281023   1.841   3.477  15.863  0.2243 -0.5574  0.5990
19870TIP3   OH281024   5.317   3.037  14.201 -0.0590  0.3743 -0.0708
19870TIP3    H181025   5.373   3.038  14.123  1.4519  2.3194  0.9546
19870TIP3    H281026   5.276   3.123  14.202 -0.6003  0.1117  0.9184
19871TIP3   OH281027   6.639   2.557  13.596 -0.1015  0.2758  0.1763
19871TIP3    H181028   6.551   2.531  13.571 -0.0304 -1.0285  1.1599
19871TIP3    H281029   6.684   2.475  13.616  1.2612  0.9305 -0.0300
19872TIP3   OH281030   3.459   4.829   4.135  0.0429 -0.5865  0.6628
19872TIP3    H181031   3.511   4.888   4.080 -0.8374 -0.9432 -0.6164
19872TIP3    H281032   3.507   4.823   4.217  1.0895  0.4687  0.1556
19873TIP3   OH281033   1.295   0.146  14.576 -0.3099 -0.5432  0.5362
19873TIP3    H181034   1.284   0.190  14.492 -1.0247  0.3223  1.0710
19873TIP3    H281035   1.390   0.133  14.583 -0.2603 -0.8393 -0.5010
19874TIP3   OH281036   2.281   1.010   1.162 -0.2456  0.4689  0.2326
19874TIP3    H181037   2.375   0.994   1.174  0.3068  0.4144 -3.1938
19874TIP3    H281038   2.239   0.949   1.223  1.8542  1.1286  2.5461
19875TIP3   OH281039   4.201   3.139  17.180  0.0792  0.1246  0.7211
19875TIP3    H181040   4.241   3.124  17.266 -1.3077 -0.1833  1.3386
19875TIP3    H281041   4.107   3.145  17.198 -0.0378  2.8639 -0.4139
19876TIP3   OH281042   0.954   5.293  16.517 -0.1593  0.0907  0.3870
19876TIP3    H181043   0.934   5.220  16.459 -0.1388 -0.2328  0.7798
19876TIP3    H281044   0.898   5.364  16.487 -1.8215 -0.7454  1.3793
19877TIP3   OH281045   5.740   1.209   1.420 -0.0110  0.0283  0.3731
19877TIP3    H181046   5.784   1.192   1.503  0.3416  0.2527  0.2352
19877TIP3    H281047   5.686   1.131   1.405 -1.9856  0.9981  1.9926
19878TIP3   OH281048   2.978   3.755  16.234  0.0927 -0.5437  0.8059
19878TIP3    H181049   2.916   3.682  16.233  0.5515 -0.9687  1.9894
19878TIP3    H281050   3.047   3.729  16.173 -0.1827 -0.7097  0.5648
19879TIP3   OH281051   5.727   6.429   1.070  0.1256  0.0706  0.1999
19879TIP3    H181052   5.787   6.429   1.144  0.0661 -2.4909  0.3305
19879TIP3    H281053   5.783   6.418   0.994  0.0309  0.6579  0.0421
19880TIP3   OH281054   4.407   3.428   4.373  0.2918  0.1908 -0.0410
19880TIP3    H181055   4.498   3.444   4.347  0.4150  0.1076  0.3355
19880TIP3    H281056   4.370   3.515   4.388  0.8999  0.1691  1.8051
19881TIP3   OH281057   2.705   0.168  15.107  0.0750 -0.1266  0.1250
19881TIP3    H181058   2.684   0.104  15.038  1.4350 -0.3846 -0.0708
19881TIP3    H281059   2.760   0.232  15.063  1.7546 -0.7974  1.1810
19882TIP3   OH281060   3.305   2.461   2.342 -0.2027  0.0181 -0.3436
19882TIP3    H181061   3.219   2.501   2.339  1.2309  3.3870 -1.1529
19882TIP3    H281062   3.350   2.507   2.414  1.1978 -1.0061 -0.5195
19883TIP3   OH281063   3.554   2.763   4.220  0.2964  0.1881 -0.0890
19883TIP3    H181064   3.524   2.845   4.181  1.2007  0.1911 -0.8019
19883TIP3    H281065   3.581   2.708   4.146  0.0523 -0.6134  0.4014
19884TIP3   OH281066   2.372   3.129   5.095 -0.4403  0.6242 -0.4612
19884TIP3    H181067   2.318   3.061   5.055 -0.0577  0.2394 -0.3300
19884TIP3    H281068   2.395   3.094   5.181  1.1937  0.1471 -1.0559
19885TIP3   OH281069   3.905   6.776   2.636  0.1744  0.2560  0.1692
19885TIP3    H181070   3.975   6.787   2.702 -1.2025  1.6974  1.4750
19885TIP3    H281071   3.936   6.825   2.560  1.4877 -0.8606 -0.0559
19886TIP3   OH281072   6.600   1.697  15.751 -0.3066  0.7614 -0.2255
19886TIP3    H181073   6.586   1.608  15.785 -0.8451  0.7925 -0.3591
19886TIP3    H281074   6.523   1.746  15.779  0.4423  1.4531  0.7063
19887TIP3   OH281075   2.338   3.546  16.838 -0.3959 -0.2082 -0.1796
19887TIP3    H181076   2.262   3.593  16.804 -0.4385 -1.1607 -1.4966
19887TIP3    H281077   2.302   3.465  16.875 -0.2161  0.2608  1.0386
19888TIP3   OH281078   1.350   1.807  13.414 -0.2504  0.3987  0.4247
19888TIP3    H181079   1.257   1.799  13.392 -0.2596  0.2163  0.5250
19888TIP3    H281080   1.374   1.894  13.384 -0.3778  0.3279  0.1096
19889TIP3   OH281081   1.926   4.039   5.305  0.2629  0.5065  0.3173
19889TIP3    H181082   1.902   4.062   5.216 -0.7814  0.2159  0.5076
19889TIP3    H281083   1.898   3.947   5.314  0.5202  0.4807  0.8768
19890TIP3   OH281084   1.851   3.546   4.087 -0.2575  0.2277 -0.4469
19890TIP3    H181085   1.878   3.590   4.006  0.1735  0.2873 -0.2702
19890TIP3    H281086   1.786   3.482   4.058 -0.7528  0.8441 -0.7273
19891TIP3   OH281087   6.420   5.435  11.605 -0.2121  0.3827 -0.1936
19891TIP3    H181088   6.361   5.378  11.556 -0.4640 -0.0275  0.5882
19891TIP3    H281089   6.455   5.494  11.538  1.6565 -1.9627 -1.4068
19892TIP3   OH281090   5.259   6.464  13.627 -0.1648 -0.5754 -0.6636
19892TIP3    H181091   5.284   6.538  13.683  1.2595  0.6263 -2.7455
19892TIP3    H281092   5.164   6.455  13.640 -0.2807  1.2648  0.0606
19893TIP3   OH281093   3.534   4.035   4.275  0.1829  0.2962 -0.1087
19893TIP3    H181094   3.585   4.104   4.233 -0.4827  1.4329  0.8578
19893TIP3    H281095   3.451   4.078   4.297 -0.1090 -0.7084  0.8381
19894TIP3   OH281096   2.642   3.748  16.444 -0.1444  0.0302  0.1624
19894TIP3    H181097   2.683   3.679  16.497  0.5374  0.9390  0.8433
19894TIP3    H281098   2.643   3.713  16.355 -0.6334 -1.2165  0.6246
19895TIP3   OH281099   0.020   6.657   5.869 -0.2916 -0.3657  0.3241
19895TIP3    H181100   0.094   6.685   5.923 -0.1820  0.1785 -0.0946
19895TIP3    H281101   0.040   6.566   5.846 -1.0820 -1.1275  2.4259
19896TIP3   OH281102   2.362   1.958   1.894  0.4857 -0.6975 -0.4223
19896TIP3    H181103   2.450   1.988   1.868  0.7987 -2.2454 -1.3369
19896TIP3    H281104   2.311   1.963   1.813 -0.6195  1.2073  0.3394
19897TIP3   OH281105   2.248   1.106   3.598 -0.1606  0.2747  0.2229
19897TIP3    H181106   2.246   1.025   3.650 -1.6195 -1.0302 -1.7088
19897TIP3    H281107   2.233   1.077   3.508 -2.7018  2.8131 -0.3406
19898TIP3   OH281108   0.120   1.763  12.123  0.1200 -0.1933  0.5373
19898TIP3    H181109   0.126   1.804  12.037  0.0936 -0.1077  0.5756
19898TIP3    H281110   0.083   1.676  12.107  0.5916 -0.3715  0.4045
19899TIP3   OH281111   6.683   0.455  13.379  0.3590 -0.1868  0.6713
19899TIP3    H181112   6.602   0.467  13.428 -0.1406 -1.6853  0.2684
19899TIP3    H281113   6.700   0.361  13.384  0.5528 -0.3342 -1.5837
19900TIP3   OH281114   3.503   3.994   0.746 -0.2803  0.0922 -0.0930
19900TIP3    H181115   3.583   3.995   0.798  0.9317  0.9240 -1.8921
19900TIP3    H281116   3.483   3.901   0.734 -0.0734 -0.1146  1.0347
19901TIP3   OH281117   0.993   6.700   2.893 -0.1762 -0.2513 -0.5019
19901TIP3    H181118   1.012   6.606   2.889 -0.1453 -0.3270  0.9887
19901TIP3    H281119   0.900   6.705   2.916 -0.5553  0.1069 -2.0108
19902TIP3   OH281120   1.653   3.759   4.515 -0.2625 -0.3378  0.3039
19902TIP3    H181121   1.592   3.754   4.441  0.3342 -0.3105 -0.1942
19902TIP3    H281122   1.633   3.682   4.568  0.5099 -1.3622 -0.8299
19903TIP3   OH281123   3.254   3.569   4.205  0.0615 -0.8321  0.7867
19903TIP3    H181124   3.201   3.504   4.160  0.6745 -1.1189  0.4577
19903TIP3    H281125   3.320   3.518   4.252  1.2353 -0.4341 -0.3652
19904TIP3   OH281126   6.717   5.806  16.551 -0.3577 -0.1326 -0.1783
19904TIP3    H181127   6.779   5.737  16.574 -0.1702 -0.0163 -0.3312
19904TIP3    H281128   6.686   5.840  16.636 -1.0058 -0.8938 -0.1006
19905TIP3   OH281129   4.283   5.831  12.436 -0.2121  0.4432  0.2499
19905TIP3    H181130   4.234   5.850  12.355 -1.8661 -1.9170  0.5903
19905TIP3    H281131   4.351   5.769  12.409  0.6992  1.3886  0.3154
19906TIP3   OH281132   5.935   6.556  11.945 -0.2519 -0.4179  0.0688
19906TIP3    H181133   5.896   6.643  11.946  0.5449 -0.0459 -0.1125
19906TIP3    H281134   5.864   6.497  11.970 -0.4633  0.4218  1.5544
19907TIP3   OH281135   3.288   6.421   3.888  0.6008  0.1400 -0.4200
19907TIP3    H181136   3.327   6.343   3.926 -0.8482 -0.6200 -0.4316
19907TIP3    H281137   3.317   6.493   3.945  3.1628 -0.1482 -1.2615
19908TIP3   OH281138   2.731   2.697   6.472 -0.5344  0.4802 -0.0297
19908TIP3    H181139   2.781   2.670   6.395  1.2369  1.8022  0.6029
19908TIP3    H281140   2.764   2.784   6.493 -2.1153  0.8124  1.2949
19909TIP3   OH281141   6.765   2.038  16.508 -0.2553  0.0423  0.6282
19909TIP3    H181142   6.758   2.133  16.520 -0.5446  0.2122 -0.7229
19909TIP3    H281143   6.681   2.004  16.541 -0.3127  0.2923  0.7465
19910TIP3   OH281144   1.161   4.865  15.868 -0.5625  0.1284 -0.3246
19910TIP3    H181145   1.115   4.782  15.876 -2.0108  1.0496  1.5315
19910TIP3    H281146   1.135   4.916  15.945  2.3713  1.3159  0.0521
19911TIP3   OH281147   0.575   0.417  13.608  0.1152 -0.4745 -0.7738
19911TIP3    H181148   0.582   0.346  13.545 -0.5731  1.3758 -3.0708
19911TIP3    H281149   0.480   0.426  13.623  0.1624  0.2654 -0.8962
19912TIP3   OH281150   0.141   5.237   0.675  0.7965 -0.1574 -0.2358
19912TIP3    H181151   0.167   5.205   0.588  0.4876 -0.6494 -0.1528
19912TIP3    H281152   0.194   5.315   0.689  1.6366 -0.6788 -0.4175
19913TIP3   OH281153   1.949   4.298  12.819  0.6825 -0.5454  0.4368
19913TIP3    H181154   2.026   4.251  12.850  0.6464 -1.0366 -0.1955
19913TIP3    H281155   1.928   4.257  12.735 -1.6308 -2.0183  1.6037
19914TIP3   OH281156   5.352   6.520   3.488  0.4006 -0.2307 -0.8271
19914TIP3    H181157   5.411   6.445   3.482  1.3638  0.2252  1.8554
19914TIP3    H281158   5.400   6.586   3.537 -2.1430  0.3533  1.1104
19915TIP3   OH281159   5.468   3.184   5.046 -0.1530  0.1343  0.4795
19915TIP3    H181160   5.518   3.106   5.072 -0.1721 -0.3916 -0.9793
19915TIP3    H281161   5.532   3.255   5.053  0.6596 -0.4358 -0.7591
19916TIP3   OH281162   1.353   0.097   0.306 -0.5403 -0.1787 -0.8909
19916TIP3    H181163   1.430   0.151   0.328 -0.0925 -0.7400 -1.0636
19916TIP3    H281164   1.385   0.007   0.310 -1.1021 -0.3996 -1.3398
19917TIP3   OH281165   4.471   3.511  11.732 -0.0886  0.1443  0.4300
19917TIP3    H181166   4.489   3.604  11.748  1.3951  0.0129 -0.2013
19917TIP3    H281167   4.475   3.503  11.636 -0.2514 -0.5631  0.4787
19918TIP3   OH281168   0.700   6.120  10.604 -0.5181 -0.2475  0.2765
19918TIP3    H181169   0.624   6.147  10.655 -0.5967 -0.5535  0.3200
19918TIP3    H281170   0.757   6.076  10.666  0.0712  0.6909  0.4219
19919TIP3   OH281171   0.065   0.988  16.531  0.6765 -0.7620 -0.0482
19919TIP3    H181172   0.137   1.008  16.591 -0.7308 -0.6098  1.6571
19919TIP3    H281173   0.067   0.892  16.523  1.7117 -0.6924 -0.8975
19920TIP3   OH281174   1.632   2.024  11.693 -0.2808  0.6854  0.3737
19920TIP3    H181175   1.580   2.103  11.683  0.5298  1.5039  2.1320
19920TIP3    H281176   1.628   2.004  11.787  2.6452  0.8915  0.6538
19921TIP3   OH281177   6.110   6.748   6.498 -0.3626 -0.3699  0.4710
19921TIP3    H181178   6.161   6.675   6.534 -0.8927 -1.3939 -0.7604
19921TIP3    H281179   6.175   6.803   6.453  0.0034 -0.2329  1.1545
19922TIP3   OH281180   1.539   2.523  12.472  0.0272 -0.1659  0.4052
19922TIP3    H181181   1.618   2.477  12.500 -0.4398 -0.9702  0.4193
19922TIP3    H281182   1.485   2.528  12.551 -0.2746 -0.3296  0.2109
19923TIP3   OH281183   0.098   3.985   5.719 -0.1104  0.5872 -0.0663
19923TIP3    H181184   0.119   4.027   5.803 -1.7347 -0.7507  1.0759
19923TIP3    H281185   0.035   3.917   5.742  1.5666 -1.7848 -1.9558
19924TIP3   OH281186   3.073   2.704   0.008  0.2347  0.4544  1.0340
19924TIP3    H181187   3.008   2.754   0.058 -0.6587 -0.2224  0.5725
19924TIP3    H281188   3.144   2.767  -0.008  0.2272  0.8904  2.5184
19925TIP3   OH281189   3.702   0.271   4.482 -0.1635  0.0307  0.6121
19925TIP3    H181190   3.661   0.212   4.546  1.4878 -1.3471  0.4771
19925TIP3    H281191   3.730   0.213   4.411  1.7076  0.9034  0.5664
19926TIP3   OH281192   1.635   0.910  12.409 -0.3409  0.3557  0.2205
19926TIP3    H181193   1.570   0.895  12.478 -1.4418 -0.3280 -0.9089
19926TIP3    H281194   1.649   1.005  12.410 -2.3734  0.7241 -0.3092
19927TIP3   OH281195   1.187   3.767  13.157  0.1358 -0.4493  0.5601
19927TIP3    H181196   1.096   3.783  13.184  0.1447  0.0520  0.3026
19927TIP3    H281197   1.180   3.706  13.083 -0.0430  0.1634  0.0610
19928TIP3   OH281198   0.173   3.580   5.434 -0.0574  0.1322  0.0988
19928TIP3    H181199   0.258   3.593   5.475 -0.1659  0.7958  0.1366
19928TIP3    H281200   0.151   3.666   5.397 -2.6047  1.2566  3.6759
19929TIP3   OH281201   2.549   3.427   6.389  0.2354 -0.5970  0.2950
19929TIP3    H181202   2.639   3.458   6.376 -0.1224  1.1603  1.6370
19929TIP3    H281203   2.496   3.507   6.390 -1.6923 -1.6795 -2.5365
19930TIP3   OH281204   5.612   5.590   2.235  0.5554 -0.2748  0.3093
19930TIP3    H181205   5.683   5.539   2.272  1.0632 -1.5346 -2.2141
19930TIP3    H281206   5.546   5.526   2.210 -0.0760  0.5760 -0.2896
19931TIP3   OH281207   1.062   6.277   5.755 -0.4734 -0.9353 -0.4460
19931TIP3    H181208   1.082   6.206   5.694 -1.3199  0.5978 -2.6727
19931TIP3    H281209   0.997   6.331   5.709 -0.7710  0.6345  1.6235
19932TIP3   OH281210   4.880   6.489   3.725 -0.3676  0.7637 -0.4103
19932TIP3    H181211   4.927   6.406   3.730 -0.0784  0.9231 -0.4536
19932TIP3    H281212   4.948   6.556   3.737 -0.2842  1.0643 -2.3521
19933TIP3   OH281213   6.161   2.392   0.914 -0.3877  0.2605 -0.1406
19933TIP3    H181214   6.078   2.418   0.875 -0.2365 -1.0653 -1.4742
19933TIP3    H281215   6.140   2.370   1.005 -1.3912  0.4373 -0.3178
19934TIP3   OH281216   5.771   5.153  12.776 -0.2480 -0.1592 -0.4202
19934TIP3    H181217   5.759   5.101  12.855 -0.9742  0.4014 -0.1579
19934TIP3    H281218   5.866   5.161  12.768 -0.1648 -0.2616  0.3609
19935TIP3   OH281219   1.323   3.707   3.958  0.7248 -0.9849 -0.0136
19935TIP3    H181220   1.289   3.699   4.047  2.2037 -0.8291  0.5954
19935TIP3    H281221   1.334   3.801   3.945 -1.2430 -0.8631 -1.0837
19936TIP3   OH281222   5.947   6.143   0.413 -0.0656 -0.1797  0.0071
19936TIP3    H181223   5.930   6.077   0.480  0.9487  0.2280  0.6817
19936TIP3    H281224   6.041   6.160   0.419 -0.3581  1.5873  0.1020
19937TIP3   OH281225   0.190   1.172  15.998  0.1320 -0.0437 -0.3263
19937TIP3    H181226   0.162   1.081  16.005 -1.0673  0.4356  2.8575
19937TIP3    H281227   0.120   1.214  15.947  0.0350 -0.6355 -0.6976
19938TIP3   OH281228   3.266   4.890   4.870 -0.4879  0.3792 -0.5473
19938TIP3    H181229   3.310   4.878   4.954 -1.4274 -1.3096 -0.2390
19938TIP3    H281230   3.336   4.899   4.807  0.2537  0.4554  0.2706
19939TIP3   OH281231   1.526   0.417  11.519 -0.1651  0.8842 -0.1485
19939TIP3    H181232   1.620   0.409  11.501 -0.1131  2.4360 -0.7060
19939TIP3    H281233   1.516   0.387  11.609  0.6785 -0.3321 -0.4213
19940TIP3   OH281234   4.207   1.045   6.107  0.0772  0.2715  0.1641
19940TIP3    H181235   4.174   1.118   6.055  0.8663 -0.2389 -1.1048
19940TIP3    H281236   4.168   0.968   6.067  1.0993 -0.1722  0.0037
19941TIP3   OH281237   3.750   1.534  17.037 -0.3260 -0.1335  0.0434
19941TIP3    H181238   3.819   1.468  17.024 -0.2276  0.2717 -1.7261
19941TIP3    H281239   3.798   1.615  17.056 -0.2057  0.3756 -2.1835
19942TIP3   OH281240   4.815   5.721   0.661  0.7472  0.9636  0.0089
19942TIP3    H181241   4.905   5.752   0.673  1.2214 -0.6166  0.8771
19942TIP3    H281242   4.794   5.677   0.744  0.1258 -0.9550 -1.1131
19943TIP3   OH281243   6.328   2.207  16.448  0.1244 -0.4182 -0.0888
19943TIP3    H181244   6.303   2.211  16.355 -0.2318  2.0213  0.0543
19943TIP3    H281245   6.418   2.240  16.449  1.3350 -3.3660  0.1486
19944LIG      S81246   3.649   2.856  16.777  0.0020 -0.4411  0.0042
19944LIG     O181247   3.853   3.114  16.589 -0.9142 -0.5413  0.2290
19944LIG     O281248   3.158   3.307  16.867  0.0989 -0.7656 -0.0331
19944LIG     O381249   3.106   3.392  17.061 -0.7467 -0.0116  0.1446
19944LIG     N181250   4.003   3.306  16.360  0.3078 -0.2100  0.6863
19944LIG     N281251   3.427   3.209  16.860 -0.3122 -0.4038 -0.4634
19944LIG     N381252   3.558   3.350  16.991 -0.0921 -0.0732 -1.4165
19944LIG     N481253   3.181   3.368  16.968  0.5101 -0.2108  0.4549
19944LIG     N581254   3.585   3.467  17.056  0.1580 -0.0420  0.1262
19944LIG     C181255   3.873   3.287  16.412 -0.1076 -0.5856 -0.1230
19944LIG     C281256   3.845   3.140  16.458 -0.0328  0.3020  0.3075
19944LIG     C381257   3.805   2.989  16.601 -0.4785  0.7416  0.2311
19944LIG     C481258   3.807   2.936  16.745 -0.4273  0.3346 -0.1526
19944LIG     C581259   3.808   3.033  16.385  0.1948 -0.1980 -0.1811
19944LIG     C681260   3.524   2.991  16.774  0.4627 -1.0567 -0.1951
19944LIG     C781261   3.776   2.933  16.474 -0.9719 -0.0349 -0.7715
19944LIG     C881262   3.548   3.117  16.860  0.2056  0.4281  0.1813
19944LIG     C981263   4.107   3.293  16.455 -0.3767  0.4894  0.0731
19944LIG    C1081264   4.038   3.229  16.239 -0.2839  0.7166 -0.4660
19944LIG    C1181265   3.434   3.328  16.942 -0.0917  0.5681 -0.1238
19944LIG    C1281266   3.319   3.411  16.983 -0.2574 -0.2242  0.2576
19944LIG    C1381267   3.362   3.536  17.035 -0.1807  0.1272 -0.8037
19944LIG    C1481268   3.500   3.568  17.060  0.2095  0.1948 -0.8761
19944LIG     H181269   3.802   3.337  16.342  0.2722  1.0053  0.5673
19944LIG     H281270   3.882   3.355  16.500 -0.8106 -1.4444  0.6323
19944LIG     H381271   3.896   2.873  16.763 -1.7329 -1.3274  0.7148
19944LIG     H481272   3.826   3.021  16.815 -0.9856  0.3825 -0.0549
19944LIG     H581273   3.792   3.040  16.278 -1.6496 -1.1815 -0.0092
19944LIG     H681274   3.428   2.943  16.803  0.4887 -1.0754 -0.1406
19944LIG     H781275   3.514   3.033  16.671  0.1616 -1.9302 -0.5326
19944LIG     H881276   3.743   2.833  16.451 -0.3415 -0.1522 -1.1990
19944LIG     H981277   3.576   3.098  16.965  0.8378  1.4469  0.2085
19944LIG    H1081278   3.638   3.163  16.814  0.0108 -0.0933 -0.7659
19944LIG    H1181279   4.149   3.191  16.444  1.0361  0.8963  1.3566
19944LIG    H1281280   4.064   3.283  16.557 -0.8691  0.5104 -0.1256
19944LIG    H1381281   4.179   3.377  16.451  0.6710 -0.3809 -3.5709
19944LIG    H1481282   4.113   3.279  16.175 -0.5656  3.0718  0.9020
19944LIG    H1581283   3.943   3.214  16.183 -1.1519 -1.3813  1.3931
19944LIG    H1681284   4.075   3.128  16.268  1.2038  1.7046  1.2956
19944LIG    H1781285   3.343   3.152  16.866  0.5486 -1.7087 -0.4967
19944LIG    H1881286   3.287   3.611  17.051  0.4991  0.9294 -1.3087
19944LIG    H1981287   3.526   3.647  17.129  3.2596 -2.9507  1.9531
   6.77911   6.77911  17.33020
